
     Program PWSCF v.6.0 (svn rev. 13079) starts on 29Jul2017 at  1: 1:59 

     This program is part of the open-source Quantum ESPRESSO suite
     for quantum simulation of materials; please cite
         "P. Giannozzi et al., J. Phys.:Condens. Matter 21 395502 (2009);
          URL http://www.quantum-espresso.org", 
     in publications or presentations arising from this work. More details at
     http://www.quantum-espresso.org/quote

     Parallel version (MPI), running on    10 processors
     R & G space division:  proc/nbgrp/npool/nimage =      10
     Reading input from input/dftmin-Gold5-multi-7.in

     Current dimensions of program PWSCF are:
     Max number of different atomic species (ntypx) = 10
     Max number of k-points (npk) =  40000
     Max angular momentum in pseudopotentials (lmaxx) =  3
     Message from routine iosys:
     pot_extrapolation='second-order' not available, using 'atomic'
     Message from routine iosys:
     wfc_extrapolation='second-order' not available, using 'atomic'

     Subspace diagonalization in iterative solution of the eigenvalue problem:
     a serial algorithm will be used

 
     Parallelization info
     --------------------
     sticks:   dense  smooth     PW     G-vecs:    dense   smooth      PW
     Min         380     380     94                17748    17748    2208
     Max         381     381     95                17753    17753    2213
     Sum        3809    3809    949               177509   177509   22119
 


     bravais-lattice index     =            1
     lattice parameter (alat)  =      20.0000  a.u.
     unit-cell volume          =    8000.0000 (a.u.)^3
     number of atoms/cell      =            5
     number of atomic types    =            1
     number of electrons       =        55.00
     number of Kohn-Sham states=           34
     kinetic-energy cutoff     =      30.0000  Ry
     charge density cutoff     =     120.0000  Ry
     convergence threshold     =      1.0E-08
     mixing beta               =       0.7000
     number of iterations used =            8  plain     mixing
     Exchange-correlation      = BLYP ( 1  3  1  3 0 0)
     nstep                     =           50


     celldm(1)=  20.000000  celldm(2)=   0.000000  celldm(3)=   0.000000
     celldm(4)=   0.000000  celldm(5)=   0.000000  celldm(6)=   0.000000

     crystal axes: (cart. coord. in units of alat)
               a(1) = (   1.000000   0.000000   0.000000 )  
               a(2) = (   0.000000   1.000000   0.000000 )  
               a(3) = (   0.000000   0.000000   1.000000 )  

     reciprocal axes: (cart. coord. in units 2 pi/alat)
               b(1) = (  1.000000  0.000000  0.000000 )  
               b(2) = (  0.000000  1.000000  0.000000 )  
               b(3) = (  0.000000  0.000000  1.000000 )  


     PseudoPot. # 1 for Au read from file:
     ./Au.blyp-d-hgh.UPF
     MD5 check sum: c10d8bae01f806c36a1643a1c69a8479
     Pseudo is Norm-conserving, Zval = 11.0
     Generated in analytical, separable form
     Using radial grid of 1279 points,  6 beta functions with: 
                l(1) =   0
                l(2) =   0
                l(3) =   1
                l(4) =   1
                l(5) =   2
                l(6) =   2

     atomic species   valence    mass     pseudopotential
        Au            11.00    28.08600     Au( 1.00)

     No symmetry found



   Cartesian axes

     site n.     atom                  positions (alat units)
         1           Au  tau(   1) = (  -0.0848243   0.1132188  -0.0649306  )
         2           Au  tau(   2) = (  -0.0346158   0.1922928   0.1811690  )
         3           Au  tau(   3) = (   0.1548523   0.0811126   0.0288462  )
         4           Au  tau(   4) = (   0.1913703   0.1839238   0.2975502  )
         5           Au  tau(   5) = (   0.3667636   0.0555467   0.1598369  )

     number of k points=     1  Marzari-Vanderbilt smearing, width (Ry)=  0.0250
                       cart. coord. in units 2pi/alat
        k(    1) = (   0.0000000   0.0000000   0.0000000), wk =   2.0000000

     Dense  grid:   177509 G-vectors     FFT dimensions: (  72,  72,  72)

     Estimated max dynamical RAM per process >      15.04Mb

     Estimated total allocated dynamical RAM >     150.39Mb

     Initial potential from superposition of free atoms
     Check: negative starting charge=   -0.006396

     starting charge   54.99940, renormalised to   55.00000

     negative rho (up, down):  6.396E-03 0.000E+00
     Starting wfc are   45 randomized atomic wfcs

     total cpu time spent up to now is        0.6 secs

     per-process dynamical memory:    41.0 Mb

     Self-consistent Calculation

     iteration #  1     ecut=    30.00 Ry     beta=0.70
     Davidson diagonalization with overlap
     ethr =  1.00E-02,  avg # of iterations =  3.0

     Threshold (ethr) on eigenvalues was too large:
     Diagonalizing with lowered threshold

     Davidson diagonalization with overlap
     ethr =  4.13E-04,  avg # of iterations =  5.0

     negative rho (up, down):  8.913E-04 0.000E+00

     total cpu time spent up to now is        1.5 secs

     total energy              =    -329.37777694 Ry
     Harris-Foulkes estimate   =    -329.54729735 Ry
     estimated scf accuracy    <       0.28116155 Ry

     iteration #  2     ecut=    30.00 Ry     beta=0.70
     Davidson diagonalization with overlap
     ethr =  5.11E-04,  avg # of iterations =  3.0

     negative rho (up, down):  3.990E-04 0.000E+00

     total cpu time spent up to now is        2.0 secs

     total energy              =    -329.41333566 Ry
     Harris-Foulkes estimate   =    -329.56544539 Ry
     estimated scf accuracy    <       0.31250146 Ry

     iteration #  3     ecut=    30.00 Ry     beta=0.70
     Davidson diagonalization with overlap
     ethr =  5.11E-04,  avg # of iterations =  2.0

     negative rho (up, down):  1.494E-04 0.000E+00

     total cpu time spent up to now is        2.4 secs

     total energy              =    -329.47541911 Ry
     Harris-Foulkes estimate   =    -329.50174248 Ry
     estimated scf accuracy    <       0.06757672 Ry

     iteration #  4     ecut=    30.00 Ry     beta=0.70
     Davidson diagonalization with overlap
     ethr =  1.23E-04,  avg # of iterations =  2.0

     negative rho (up, down):  1.782E-05 0.000E+00

     total cpu time spent up to now is        2.8 secs

     total energy              =    -329.48804101 Ry
     Harris-Foulkes estimate   =    -329.49064242 Ry
     estimated scf accuracy    <       0.00665066 Ry

     iteration #  5     ecut=    30.00 Ry     beta=0.70
     Davidson diagonalization with overlap
     ethr =  1.21E-05,  avg # of iterations =  6.0

     total cpu time spent up to now is        3.3 secs

     total energy              =    -329.48946181 Ry
     Harris-Foulkes estimate   =    -329.49024826 Ry
     estimated scf accuracy    <       0.00209546 Ry

     iteration #  6     ecut=    30.00 Ry     beta=0.70
     Davidson diagonalization with overlap
     ethr =  3.81E-06,  avg # of iterations =  2.0

     total cpu time spent up to now is        3.7 secs

     total energy              =    -329.48981534 Ry
     Harris-Foulkes estimate   =    -329.48997700 Ry
     estimated scf accuracy    <       0.00036819 Ry

     iteration #  7     ecut=    30.00 Ry     beta=0.70
     Davidson diagonalization with overlap
     ethr =  6.69E-07,  avg # of iterations =  2.0

     total cpu time spent up to now is        4.1 secs

     total energy              =    -329.48989305 Ry
     Harris-Foulkes estimate   =    -329.48990872 Ry
     estimated scf accuracy    <       0.00003388 Ry

     iteration #  8     ecut=    30.00 Ry     beta=0.70
     Davidson diagonalization with overlap
     ethr =  6.16E-08,  avg # of iterations =  2.0

     total cpu time spent up to now is        4.5 secs

     total energy              =    -329.48989978 Ry
     Harris-Foulkes estimate   =    -329.48990430 Ry
     estimated scf accuracy    <       0.00000889 Ry

     iteration #  9     ecut=    30.00 Ry     beta=0.70
     Davidson diagonalization with overlap
     ethr =  1.62E-08,  avg # of iterations =  2.0

     total cpu time spent up to now is        5.0 secs

     total energy              =    -329.48990112 Ry
     Harris-Foulkes estimate   =    -329.48990229 Ry
     estimated scf accuracy    <       0.00000175 Ry

     iteration # 10     ecut=    30.00 Ry     beta=0.70
     Davidson diagonalization with overlap
     ethr =  3.18E-09,  avg # of iterations =  2.0

     total cpu time spent up to now is        5.3 secs

     total energy              =    -329.48990142 Ry
     Harris-Foulkes estimate   =    -329.48990164 Ry
     estimated scf accuracy    <       0.00000038 Ry

     iteration # 11     ecut=    30.00 Ry     beta=0.70
     Davidson diagonalization with overlap
     ethr =  6.88E-10,  avg # of iterations =  2.0

     total cpu time spent up to now is        5.8 secs

     total energy              =    -329.48990146 Ry
     Harris-Foulkes estimate   =    -329.48990152 Ry
     estimated scf accuracy    <       0.00000006 Ry

     iteration # 12     ecut=    30.00 Ry     beta=0.70
     Davidson diagonalization with overlap
     ethr =  1.12E-10,  avg # of iterations =  2.0

     total cpu time spent up to now is        6.2 secs

     total energy              =    -329.48990150 Ry
     Harris-Foulkes estimate   =    -329.48990148 Ry
     estimated scf accuracy    <       0.00000001 Ry

     iteration # 13     ecut=    30.00 Ry     beta=0.70
     Davidson diagonalization with overlap
     ethr =  1.87E-11,  avg # of iterations =  2.0

     total cpu time spent up to now is        6.6 secs

     End of self-consistent calculation

          k = 0.0000 0.0000 0.0000 ( 22119 PWs)   bands (ev):

    -8.3488  -7.6601  -7.6151  -7.1976  -6.9998  -6.7330  -6.5351  -6.4312
    -6.3224  -5.9832  -5.9644  -5.7004  -5.6702  -5.6386  -5.3868  -5.3700
    -5.3518  -5.2303  -5.2168  -5.2000  -5.1551  -5.1335  -5.0044  -4.9222
    -4.8922  -4.6567  -4.4771  -3.8151  -2.4892  -2.1869  -0.5204  -0.2219
     0.3889   0.7771

     the Fermi energy is    -3.7909 ev

!    total energy              =    -329.48990143 Ry
     Harris-Foulkes estimate   =    -329.48990150 Ry
     estimated scf accuracy    <          2.4E-09 Ry

     The total energy is the sum of the following terms:

     one-electron contribution =    -601.72631287 Ry
     hartree contribution      =     322.33377148 Ry
     xc contribution           =     -51.38619697 Ry
     ewald contribution        =       1.29119776 Ry
     smearing contrib. (-TS)   =      -0.00236082 Ry

     convergence has been achieved in  13 iterations

     Forces acting on atoms (Ry/au):

     atom    1 type  1   force =     0.01421696    0.00058952    0.01145748
     atom    2 type  1   force =    -0.00472385   -0.00123851   -0.01399912
     atom    3 type  1   force =    -0.01898464    0.00469642    0.00231944
     atom    4 type  1   force =     0.00696500   -0.00460401   -0.00272961
     atom    5 type  1   force =     0.00252653    0.00055659    0.00295180

     Total force =     0.032156     Total SCF correction =     0.000167

     BFGS Geometry Optimization

     number of scf cycles    =   1
     number of bfgs steps    =   0

     energy   new            =    -329.4899014261 Ry

     new trust radius        =       0.0196939812 bohr
     new conv_thr            =       0.0000000100 Ry


ATOMIC_POSITIONS (bohr)
Au      -1.682269037   2.264965517  -1.287153522
Au      -0.697038848   3.844617491   3.609380885
Au       3.078062355   1.626948417   0.579243444
Au       3.834372002   3.673872986   5.948274394
Au       7.337799528   1.111491589   3.199689800



     Writing output data file pwscf.save
     Check: negative starting charge=   -0.006396
     NEW-OLD atomic charge density approx. for the potential
     Check: negative starting charge=   -0.006395

     negative rho (up, down):  6.265E-05 0.000E+00

     total cpu time spent up to now is        7.0 secs

     per-process dynamical memory:    42.9 Mb

     Self-consistent Calculation

     iteration #  1     ecut=    30.00 Ry     beta=0.70
     Davidson diagonalization with overlap
     ethr =  1.00E-06,  avg # of iterations =  4.0

     negative rho (up, down):  3.498E-07 0.000E+00

     total cpu time spent up to now is        7.7 secs

     total energy              =    -329.49074003 Ry
     Harris-Foulkes estimate   =    -329.49075752 Ry
     estimated scf accuracy    <       0.00008296 Ry

     iteration #  2     ecut=    30.00 Ry     beta=0.70
     Davidson diagonalization with overlap
     ethr =  1.51E-07,  avg # of iterations =  3.0

     negative rho (up, down):  7.216E-08 0.000E+00

     total cpu time spent up to now is        8.1 secs

     total energy              =    -329.49072501 Ry
     Harris-Foulkes estimate   =    -329.49083711 Ry
     estimated scf accuracy    <       0.00030820 Ry

     iteration #  3     ecut=    30.00 Ry     beta=0.70
     Davidson diagonalization with overlap
     ethr =  1.51E-07,  avg # of iterations =  2.0

     total cpu time spent up to now is        8.5 secs

     total energy              =    -329.49078108 Ry
     Harris-Foulkes estimate   =    -329.49078322 Ry
     estimated scf accuracy    <       0.00001083 Ry

     iteration #  4     ecut=    30.00 Ry     beta=0.70
     Davidson diagonalization with overlap
     ethr =  1.97E-08,  avg # of iterations =  2.0

     total cpu time spent up to now is        8.9 secs

     total energy              =    -329.49078319 Ry
     Harris-Foulkes estimate   =    -329.49078497 Ry
     estimated scf accuracy    <       0.00000555 Ry

     iteration #  5     ecut=    30.00 Ry     beta=0.70
     Davidson diagonalization with overlap
     ethr =  1.01E-08,  avg # of iterations =  2.0

     total cpu time spent up to now is        9.3 secs

     total energy              =    -329.49078412 Ry
     Harris-Foulkes estimate   =    -329.49078475 Ry
     estimated scf accuracy    <       0.00000144 Ry

     iteration #  6     ecut=    30.00 Ry     beta=0.70
     Davidson diagonalization with overlap
     ethr =  2.61E-09,  avg # of iterations =  2.0

     total cpu time spent up to now is        9.7 secs

     total energy              =    -329.49078438 Ry
     Harris-Foulkes estimate   =    -329.49078442 Ry
     estimated scf accuracy    <       0.00000007 Ry

     iteration #  7     ecut=    30.00 Ry     beta=0.70
     Davidson diagonalization with overlap
     ethr =  1.33E-10,  avg # of iterations =  2.0

     total cpu time spent up to now is       10.1 secs

     End of self-consistent calculation

          k = 0.0000 0.0000 0.0000 ( 22119 PWs)   bands (ev):

    -8.3714  -7.6796  -7.6213  -7.2093  -7.0028  -6.7411  -6.5520  -6.4437
    -6.3221  -5.9967  -5.9725  -5.7127  -5.6831  -5.6498  -5.3899  -5.3763
    -5.3490  -5.2284  -5.2160  -5.1994  -5.1604  -5.1362  -5.0062  -4.9274
    -4.8975  -4.6490  -4.4833  -3.8024  -2.4840  -2.1872  -0.5228  -0.2161
     0.3910   0.7740

     the Fermi energy is    -3.7752 ev

!    total energy              =    -329.49078435 Ry
     Harris-Foulkes estimate   =    -329.49078440 Ry
     estimated scf accuracy    <          4.5E-09 Ry

     The total energy is the sum of the following terms:

     one-electron contribution =    -602.74251590 Ry
     hartree contribution      =     322.83150018 Ry
     xc contribution           =     -51.38836008 Ry
     ewald contribution        =       1.81161223 Ry
     smearing contrib. (-TS)   =      -0.00302078 Ry

     convergence has been achieved in   7 iterations

     Forces acting on atoms (Ry/au):

     atom    1 type  1   force =     0.01056105    0.00023546    0.00809716
     atom    2 type  1   force =    -0.00374762    0.00012567   -0.00996850
     atom    3 type  1   force =    -0.01273725    0.00312294    0.00374577
     atom    4 type  1   force =     0.00490989   -0.00400336   -0.00307718
     atom    5 type  1   force =     0.00101393    0.00051928    0.00120275

     Total force =     0.022999     Total SCF correction =     0.000232

     number of scf cycles    =   2
     number of bfgs steps    =   1

     energy   old            =    -329.4899014261 Ry
     energy   new            =    -329.4907843498 Ry

     CASE: energy  _new < energy  _old

     new trust radius        =       0.0216633793 bohr
     new conv_thr            =       0.0000000009 Ry


ATOMIC_POSITIONS (bohr)
Au      -1.665535718   2.265351888  -1.274296892
Au      -0.702961054   3.844747929   3.593558130
Au       3.057791297   1.631920550   0.585045524
Au       3.842168755   3.667568228   5.943467729
Au       7.339462720   1.112307406   3.201660510



     Writing output data file pwscf.save
     Check: negative starting charge=   -0.006395
     NEW-OLD atomic charge density approx. for the potential
     Check: negative starting charge=   -0.006391

     negative rho (up, down):  9.169E-05 0.000E+00

     total cpu time spent up to now is       10.5 secs

     per-process dynamical memory:    50.6 Mb

     Self-consistent Calculation

     iteration #  1     ecut=    30.00 Ry     beta=0.70
     Davidson diagonalization with overlap
     ethr =  1.00E-06,  avg # of iterations =  4.0

     negative rho (up, down):  7.407E-07 0.000E+00

     total cpu time spent up to now is       11.2 secs

     total energy              =    -329.49139041 Ry
     Harris-Foulkes estimate   =    -329.49140922 Ry
     estimated scf accuracy    <       0.00010186 Ry

     iteration #  2     ecut=    30.00 Ry     beta=0.70
     Davidson diagonalization with overlap
     ethr =  1.85E-07,  avg # of iterations =  3.0

     negative rho (up, down):  1.630E-07 0.000E+00

     total cpu time spent up to now is       11.7 secs

     total energy              =    -329.49137366 Ry
     Harris-Foulkes estimate   =    -329.49150363 Ry
     estimated scf accuracy    <       0.00034923 Ry

     iteration #  3     ecut=    30.00 Ry     beta=0.70
     Davidson diagonalization with overlap
     ethr =  1.85E-07,  avg # of iterations =  2.0

     total cpu time spent up to now is       12.1 secs

     total energy              =    -329.49143810 Ry
     Harris-Foulkes estimate   =    -329.49144227 Ry
     estimated scf accuracy    <       0.00001540 Ry

     iteration #  4     ecut=    30.00 Ry     beta=0.70
     Davidson diagonalization with overlap
     ethr =  2.80E-08,  avg # of iterations =  2.0

     total cpu time spent up to now is       12.5 secs

     total energy              =    -329.49144162 Ry
     Harris-Foulkes estimate   =    -329.49144312 Ry
     estimated scf accuracy    <       0.00000611 Ry

     iteration #  5     ecut=    30.00 Ry     beta=0.70
     Davidson diagonalization with overlap
     ethr =  1.11E-08,  avg # of iterations =  2.0

     total cpu time spent up to now is       12.8 secs

     total energy              =    -329.49144271 Ry
     Harris-Foulkes estimate   =    -329.49144346 Ry
     estimated scf accuracy    <       0.00000198 Ry

     iteration #  6     ecut=    30.00 Ry     beta=0.70
     Davidson diagonalization with overlap
     ethr =  3.60E-09,  avg # of iterations =  2.0

     total cpu time spent up to now is       13.2 secs

     total energy              =    -329.49144304 Ry
     Harris-Foulkes estimate   =    -329.49144312 Ry
     estimated scf accuracy    <       0.00000010 Ry

     iteration #  7     ecut=    30.00 Ry     beta=0.70
     Davidson diagonalization with overlap
     ethr =  1.82E-10,  avg # of iterations =  2.0

     total cpu time spent up to now is       13.6 secs

     total energy              =    -329.49144312 Ry
     Harris-Foulkes estimate   =    -329.49144307 Ry
     estimated scf accuracy    <          4.8E-09 Ry

     iteration #  8     ecut=    30.00 Ry     beta=0.70
     Davidson diagonalization with overlap
     ethr =  8.74E-12,  avg # of iterations =  3.0

     total cpu time spent up to now is       14.1 secs

     total energy              =    -329.49144313 Ry
     Harris-Foulkes estimate   =    -329.49144312 Ry
     estimated scf accuracy    <          1.3E-09 Ry

     iteration #  9     ecut=    30.00 Ry     beta=0.70
     Davidson diagonalization with overlap
     ethr =  2.39E-12,  avg # of iterations =  3.0

     total cpu time spent up to now is       14.5 secs

     End of self-consistent calculation

          k = 0.0000 0.0000 0.0000 ( 22119 PWs)   bands (ev):

    -8.4038  -7.7075  -7.6288  -7.2245  -7.0059  -6.7571  -6.5721  -6.4583
    -6.3223  -6.0115  -5.9823  -5.7280  -5.6970  -5.6600  -5.3924  -5.3836
    -5.3443  -5.2258  -5.2169  -5.1953  -5.1677  -5.1356  -5.0068  -4.9313
    -4.9019  -4.6402  -4.4886  -3.7876  -2.4765  -2.1862  -0.5261  -0.2094
     0.3945   0.7717

     the Fermi energy is    -3.7576 ev

!    total energy              =    -329.49144315 Ry
     Harris-Foulkes estimate   =    -329.49144314 Ry
     estimated scf accuracy    <          3.3E-10 Ry

     The total energy is the sum of the following terms:

     one-electron contribution =    -604.05728987 Ry
     hartree contribution      =     323.47635017 Ry
     xc contribution           =     -51.39181358 Ry
     ewald contribution        =       2.48497884 Ry
     smearing contrib. (-TS)   =      -0.00366871 Ry

     convergence has been achieved in   9 iterations

     Forces acting on atoms (Ry/au):

     atom    1 type  1   force =     0.00614271   -0.00021953    0.00420492
     atom    2 type  1   force =    -0.00283479    0.00165229   -0.00534599
     atom    3 type  1   force =    -0.00621977    0.00159365    0.00488641
     atom    4 type  1   force =     0.00273280   -0.00325191   -0.00324384
     atom    5 type  1   force =     0.00017905    0.00022550   -0.00050150

     Total force =     0.013741     Total SCF correction =     0.000074

     number of scf cycles    =   3
     number of bfgs steps    =   2

     energy   old            =    -329.4907843498 Ry
     energy   new            =    -329.4914431495 Ry

     CASE: energy  _new < energy  _old

     new trust radius        =       0.0309605391 bohr
     new conv_thr            =       0.0000000006 Ry


ATOMIC_POSITIONS (bohr)
Au      -1.641449473   2.265105170  -1.256912037
Au      -0.712977056   3.848474272   3.571779603
Au       3.031206102   1.638604849   0.599436581
Au       3.853138150   3.656420504   5.933301316
Au       7.341008277   1.113291205   3.201829538



     Writing output data file pwscf.save
     Check: negative starting charge=   -0.006391
     NEW-OLD atomic charge density approx. for the potential
     Check: negative starting charge=   -0.006380

     negative rho (up, down):  2.343E-04 0.000E+00

     total cpu time spent up to now is       14.9 secs

     per-process dynamical memory:    50.7 Mb

     Self-consistent Calculation

     iteration #  1     ecut=    30.00 Ry     beta=0.70
     Davidson diagonalization with overlap
     ethr =  1.00E-06,  avg # of iterations =  4.0

     negative rho (up, down):  4.874E-06 0.000E+00

     total cpu time spent up to now is       15.6 secs

     total energy              =    -329.49172165 Ry
     Harris-Foulkes estimate   =    -329.49172661 Ry
     estimated scf accuracy    <       0.00019741 Ry

     iteration #  2     ecut=    30.00 Ry     beta=0.70
     Davidson diagonalization with overlap
     ethr =  3.59E-07,  avg # of iterations =  3.0

     negative rho (up, down):  1.222E-06 0.000E+00

     total cpu time spent up to now is       16.0 secs

     total energy              =    -329.49169691 Ry
     Harris-Foulkes estimate   =    -329.49191979 Ry
     estimated scf accuracy    <       0.00057551 Ry

     iteration #  3     ecut=    30.00 Ry     beta=0.70
     Davidson diagonalization with overlap
     ethr =  3.59E-07,  avg # of iterations =  2.0

     negative rho (up, down):  1.759E-08 0.000E+00

     total cpu time spent up to now is       16.4 secs

     total energy              =    -329.49180829 Ry
     Harris-Foulkes estimate   =    -329.49181927 Ry
     estimated scf accuracy    <       0.00003845 Ry

     iteration #  4     ecut=    30.00 Ry     beta=0.70
     Davidson diagonalization with overlap
     ethr =  6.99E-08,  avg # of iterations =  2.0

     total cpu time spent up to now is       16.8 secs

     total energy              =    -329.49181667 Ry
     Harris-Foulkes estimate   =    -329.49181919 Ry
     estimated scf accuracy    <       0.00001012 Ry

     iteration #  5     ecut=    30.00 Ry     beta=0.70
     Davidson diagonalization with overlap
     ethr =  1.84E-08,  avg # of iterations =  2.0

     total cpu time spent up to now is       17.1 secs

     total energy              =    -329.49181837 Ry
     Harris-Foulkes estimate   =    -329.49182004 Ry
     estimated scf accuracy    <       0.00000430 Ry

     iteration #  6     ecut=    30.00 Ry     beta=0.70
     Davidson diagonalization with overlap
     ethr =  7.81E-09,  avg # of iterations =  2.0

     total cpu time spent up to now is       17.5 secs

     total energy              =    -329.49181909 Ry
     Harris-Foulkes estimate   =    -329.49181924 Ry
     estimated scf accuracy    <       0.00000024 Ry

     iteration #  7     ecut=    30.00 Ry     beta=0.70
     Davidson diagonalization with overlap
     ethr =  4.34E-10,  avg # of iterations =  2.0

     total cpu time spent up to now is       17.9 secs

     total energy              =    -329.49181927 Ry
     Harris-Foulkes estimate   =    -329.49181916 Ry
     estimated scf accuracy    <       0.00000001 Ry

     iteration #  8     ecut=    30.00 Ry     beta=0.70
     Davidson diagonalization with overlap
     ethr =  2.01E-11,  avg # of iterations =  2.0

     total cpu time spent up to now is       18.4 secs

     total energy              =    -329.49181924 Ry
     Harris-Foulkes estimate   =    -329.49181928 Ry
     estimated scf accuracy    <          3.6E-09 Ry

     iteration #  9     ecut=    30.00 Ry     beta=0.70
     Davidson diagonalization with overlap
     ethr =  6.63E-12,  avg # of iterations =  2.0

     total cpu time spent up to now is       18.7 secs

     End of self-consistent calculation

          k = 0.0000 0.0000 0.0000 ( 22119 PWs)   bands (ev):

    -8.4585  -7.7534  -7.6423  -7.2496  -7.0089  -6.7890  -6.6010  -6.4799
    -6.3239  -6.0325  -5.9975  -5.7492  -5.7156  -5.6726  -5.3996  -5.3898
    -5.3368  -5.2220  -5.2190  -5.1884  -5.1773  -5.1324  -5.0061  -4.9335
    -4.9066  -4.6293  -4.4940  -3.7669  -2.4640  -2.1835  -0.5315  -0.1994
     0.4010   0.7700

     the Fermi energy is    -3.7335 ev

!    total energy              =    -329.49181922 Ry
     Harris-Foulkes estimate   =    -329.49181924 Ry
     estimated scf accuracy    <          5.2E-10 Ry

     The total energy is the sum of the following terms:

     one-electron contribution =    -606.11789621 Ry
     hartree contribution      =     324.48912931 Ry
     xc contribution           =     -51.39834555 Ry
     ewald contribution        =       3.53973248 Ry
     smearing contrib. (-TS)   =      -0.00443927 Ry

     convergence has been achieved in   9 iterations

     Forces acting on atoms (Ry/au):

     atom    1 type  1   force =    -0.00038454   -0.00088023   -0.00137724
     atom    2 type  1   force =    -0.00196787    0.00379025    0.00126503
     atom    3 type  1   force =     0.00255794   -0.00043145    0.00560999
     atom    4 type  1   force =    -0.00032673   -0.00190823   -0.00289031
     atom    5 type  1   force =     0.00012119   -0.00057034   -0.00260746

     Total force =     0.008950     Total SCF correction =     0.000101

     number of scf cycles    =   4
     number of bfgs steps    =   3

     energy   old            =    -329.4914431495 Ry
     energy   new            =    -329.4918192237 Ry

     CASE: energy  _new < energy  _old

     new trust radius        =       0.0070746204 bohr
     new conv_thr            =       0.0000000004 Ry


ATOMIC_POSITIONS (bohr)
Au      -1.638958869   2.264225123  -1.256152187
Au      -0.716121618   3.852559479   3.570380317
Au       3.030384186   1.639024775   0.606450736
Au       3.854158080   3.653273280   5.929365578
Au       7.341464221   1.112813343   3.199390556



     Writing output data file pwscf.save
     Check: negative starting charge=   -0.006380
     NEW-OLD atomic charge density approx. for the potential
     Check: negative starting charge=   -0.006379

     negative rho (up, down):  1.056E-06 0.000E+00

     total cpu time spent up to now is       19.1 secs

     per-process dynamical memory:    50.7 Mb

     Self-consistent Calculation

     iteration #  1     ecut=    30.00 Ry     beta=0.70
     Davidson diagonalization with overlap
     ethr =  1.00E-06,  avg # of iterations =  3.0

     Threshold (ethr) on eigenvalues was too large:
     Diagonalizing with lowered threshold

     Davidson diagonalization with overlap
     ethr =  1.18E-08,  avg # of iterations =  2.0

     total cpu time spent up to now is       20.0 secs

     total energy              =    -329.49189234 Ry
     Harris-Foulkes estimate   =    -329.49189247 Ry
     estimated scf accuracy    <       0.00000706 Ry

     iteration #  2     ecut=    30.00 Ry     beta=0.70
     Davidson diagonalization with overlap
     ethr =  1.28E-08,  avg # of iterations =  3.0

     total cpu time spent up to now is       20.5 secs

     total energy              =    -329.49189378 Ry
     Harris-Foulkes estimate   =    -329.49189556 Ry
     estimated scf accuracy    <       0.00000403 Ry

     iteration #  3     ecut=    30.00 Ry     beta=0.70
     Davidson diagonalization with overlap
     ethr =  7.32E-09,  avg # of iterations =  2.0

     total cpu time spent up to now is       20.9 secs

     total energy              =    -329.49189492 Ry
     Harris-Foulkes estimate   =    -329.49189483 Ry
     estimated scf accuracy    <       0.00000037 Ry

     iteration #  4     ecut=    30.00 Ry     beta=0.70
     Davidson diagonalization with overlap
     ethr =  6.78E-10,  avg # of iterations =  3.0

     total cpu time spent up to now is       21.3 secs

     total energy              =    -329.49189487 Ry
     Harris-Foulkes estimate   =    -329.49189509 Ry
     estimated scf accuracy    <       0.00000022 Ry

     iteration #  5     ecut=    30.00 Ry     beta=0.70
     Davidson diagonalization with overlap
     ethr =  3.96E-10,  avg # of iterations =  2.0

     total cpu time spent up to now is       21.7 secs

     total energy              =    -329.49189494 Ry
     Harris-Foulkes estimate   =    -329.49189492 Ry
     estimated scf accuracy    <       0.00000003 Ry

     iteration #  6     ecut=    30.00 Ry     beta=0.70
     Davidson diagonalization with overlap
     ethr =  5.77E-11,  avg # of iterations =  2.0

     total cpu time spent up to now is       22.1 secs

     total energy              =    -329.49189492 Ry
     Harris-Foulkes estimate   =    -329.49189495 Ry
     estimated scf accuracy    <          2.7E-09 Ry

     iteration #  7     ecut=    30.00 Ry     beta=0.70
     Davidson diagonalization with overlap
     ethr =  4.94E-12,  avg # of iterations =  2.0

     total cpu time spent up to now is       22.5 secs

     total energy              =    -329.49189489 Ry
     Harris-Foulkes estimate   =    -329.49189492 Ry
     estimated scf accuracy    <          9.4E-10 Ry

     iteration #  8     ecut=    30.00 Ry     beta=0.70
     Davidson diagonalization with overlap
     ethr =  1.71E-12,  avg # of iterations =  2.0

     total cpu time spent up to now is       22.9 secs

     End of self-consistent calculation

          k = 0.0000 0.0000 0.0000 ( 22119 PWs)   bands (ev):

    -8.4657  -7.7602  -7.6449  -7.2529  -7.0062  -6.7935  -6.6042  -6.4832
    -6.3245  -6.0358  -5.9988  -5.7503  -5.7171  -5.6740  -5.4025  -5.3893
    -5.3357  -5.2212  -5.2190  -5.1889  -5.1766  -5.1323  -5.0057  -4.9317
    -4.9073  -4.6307  -4.4940  -3.7651  -2.4617  -2.1835  -0.5324  -0.1980
     0.4024   0.7708

     the Fermi energy is    -3.7314 ev

!    total energy              =    -329.49189489 Ry
     Harris-Foulkes estimate   =    -329.49189489 Ry
     estimated scf accuracy    <          2.0E-10 Ry

     The total energy is the sum of the following terms:

     one-electron contribution =    -606.38994098 Ry
     hartree contribution      =     324.62313371 Ry
     xc contribution           =     -51.39919734 Ry
     ewald contribution        =       3.67862177 Ry
     smearing contrib. (-TS)   =      -0.00451205 Ry

     convergence has been achieved in   8 iterations

     Forces acting on atoms (Ry/au):

     atom    1 type  1   force =    -0.00058430   -0.00092479   -0.00151983
     atom    2 type  1   force =    -0.00198539    0.00381506    0.00167414
     atom    3 type  1   force =     0.00251589   -0.00048354    0.00501139
     atom    4 type  1   force =    -0.00072296   -0.00159630   -0.00256918
     atom    5 type  1   force =     0.00077676   -0.00081042   -0.00259652

     Total force =     0.008611     Total SCF correction =     0.000051

     number of scf cycles    =   5
     number of bfgs steps    =   4

     energy   old            =    -329.4918192237 Ry
     energy   new            =    -329.4918948940 Ry

     CASE: energy  _new < energy  _old


     WARNING: bfgs curvature condition failed, Theta= 0.883
     new trust radius        =       0.0077820824 bohr
     new conv_thr            =            1.0E-10 Ry


ATOMIC_POSITIONS (bohr)
Au      -1.636816922   2.263098343  -1.255901406
Au      -0.719719985   3.857552632   3.569704264
Au       3.030214756   1.639279229   0.614226811
Au       3.854728579   3.649978966   5.925058454
Au       7.342519573   1.111986830   3.196346876



     Writing output data file pwscf.save
     Check: negative starting charge=   -0.006379
     NEW-OLD atomic charge density approx. for the potential
     Check: negative starting charge=   -0.006377

     negative rho (up, down):  1.840E-06 0.000E+00

     total cpu time spent up to now is       23.3 secs

     per-process dynamical memory:    50.7 Mb

     Self-consistent Calculation

     iteration #  1     ecut=    30.00 Ry     beta=0.70
     Davidson diagonalization with overlap
     ethr =  1.00E-06,  avg # of iterations =  3.0

     Threshold (ethr) on eigenvalues was too large:
     Diagonalizing with lowered threshold

     Davidson diagonalization with overlap
     ethr =  1.45E-08,  avg # of iterations =  2.0

     total cpu time spent up to now is       24.2 secs

     total energy              =    -329.49197602 Ry
     Harris-Foulkes estimate   =    -329.49197637 Ry
     estimated scf accuracy    <       0.00000869 Ry

     iteration #  2     ecut=    30.00 Ry     beta=0.70
     Davidson diagonalization with overlap
     ethr =  1.58E-08,  avg # of iterations =  3.0

     total cpu time spent up to now is       24.6 secs

     total energy              =    -329.49197746 Ry
     Harris-Foulkes estimate   =    -329.49197989 Ry
     estimated scf accuracy    <       0.00000472 Ry

     iteration #  3     ecut=    30.00 Ry     beta=0.70
     Davidson diagonalization with overlap
     ethr =  8.57E-09,  avg # of iterations =  2.0

     total cpu time spent up to now is       25.0 secs

     total energy              =    -329.49197850 Ry
     Harris-Foulkes estimate   =    -329.49197874 Ry
     estimated scf accuracy    <       0.00000055 Ry

     iteration #  4     ecut=    30.00 Ry     beta=0.70
     Davidson diagonalization with overlap
     ethr =  9.91E-10,  avg # of iterations =  3.0

     total cpu time spent up to now is       25.4 secs

     total energy              =    -329.49197886 Ry
     Harris-Foulkes estimate   =    -329.49197879 Ry
     estimated scf accuracy    <       0.00000048 Ry

     iteration #  5     ecut=    30.00 Ry     beta=0.70
     Davidson diagonalization with overlap
     ethr =  8.75E-10,  avg # of iterations =  2.0

     total cpu time spent up to now is       25.8 secs

     total energy              =    -329.49197886 Ry
     Harris-Foulkes estimate   =    -329.49197897 Ry
     estimated scf accuracy    <       0.00000004 Ry

     iteration #  6     ecut=    30.00 Ry     beta=0.70
     Davidson diagonalization with overlap
     ethr =  8.17E-11,  avg # of iterations =  2.0

     total cpu time spent up to now is       26.2 secs

     total energy              =    -329.49197884 Ry
     Harris-Foulkes estimate   =    -329.49197887 Ry
     estimated scf accuracy    <          2.6E-09 Ry

     iteration #  7     ecut=    30.00 Ry     beta=0.70
     Davidson diagonalization with overlap
     ethr =  4.77E-12,  avg # of iterations =  2.0

     total cpu time spent up to now is       26.6 secs

     total energy              =    -329.49197880 Ry
     Harris-Foulkes estimate   =    -329.49197884 Ry
     estimated scf accuracy    <          1.1E-09 Ry

     iteration #  8     ecut=    30.00 Ry     beta=0.70
     Davidson diagonalization with overlap
     ethr =  2.08E-12,  avg # of iterations =  2.0

     total cpu time spent up to now is       27.0 secs

     total energy              =    -329.49197879 Ry
     Harris-Foulkes estimate   =    -329.49197880 Ry
     estimated scf accuracy    <          2.8E-10 Ry

     iteration #  9     ecut=    30.00 Ry     beta=0.70
     Davidson diagonalization with overlap
     ethr =  5.17E-13,  avg # of iterations =  2.0

     total cpu time spent up to now is       27.4 secs

     End of self-consistent calculation

          k = 0.0000 0.0000 0.0000 ( 22119 PWs)   bands (ev):

    -8.4717  -7.7659  -7.6472  -7.2554  -7.0022  -6.7972  -6.6063  -6.4859
    -6.3249  -6.0388  -5.9991  -5.7510  -5.7182  -5.6752  -5.4058  -5.3882
    -5.3346  -5.2208  -5.2187  -5.1899  -5.1753  -5.1323  -5.0052  -4.9295
    -4.9079  -4.6329  -4.4938  -3.7640  -2.4594  -2.1839  -0.5332  -0.1966
     0.4039   0.7719

     the Fermi energy is    -3.7301 ev

!    total energy              =    -329.49197879 Ry
     Harris-Foulkes estimate   =    -329.49197879 Ry
     estimated scf accuracy    <          3.2E-11 Ry

     The total energy is the sum of the following terms:

     one-electron contribution =    -606.60651903 Ry
     hartree contribution      =     324.72987910 Ry
     xc contribution           =     -51.39983326 Ry
     ewald contribution        =       3.78906137 Ry
     smearing contrib. (-TS)   =      -0.00456697 Ry

     convergence has been achieved in   9 iterations

     Forces acting on atoms (Ry/au):

     atom    1 type  1   force =    -0.00059211   -0.00094572   -0.00145416
     atom    2 type  1   force =    -0.00202275    0.00372736    0.00188677
     atom    3 type  1   force =     0.00219925   -0.00045217    0.00426470
     atom    4 type  1   force =    -0.00103537   -0.00131309   -0.00220310
     atom    5 type  1   force =     0.00145098   -0.00101638   -0.00249421

     Total force =     0.008071     Total SCF correction =     0.000022

     number of scf cycles    =   6
     number of bfgs steps    =   5

     energy   old            =    -329.4918948940 Ry
     energy   new            =    -329.4919787890 Ry

     CASE: energy  _new < energy  _old

     new trust radius        =       0.0116731236 bohr
     new conv_thr            =            1.0E-10 Ry


ATOMIC_POSITIONS (bohr)
Au      -1.633892880   2.261178435  -1.255873035
Au      -0.725542899   3.865736426   3.569475311
Au       3.030258176   1.639559558   0.625896488
Au       3.854943179   3.645130044   5.918588043
Au       7.345160425   1.110291537   3.191348194



     Writing output data file pwscf.save
     Check: negative starting charge=   -0.006377
     NEW-OLD atomic charge density approx. for the potential
     Check: negative starting charge=   -0.006376

     negative rho (up, down):  1.249E-05 0.000E+00

     total cpu time spent up to now is       27.8 secs

     per-process dynamical memory:    50.7 Mb

     Self-consistent Calculation

     iteration #  1     ecut=    30.00 Ry     beta=0.70
     Davidson diagonalization with overlap
     ethr =  1.00E-06,  avg # of iterations =  4.0

     Threshold (ethr) on eigenvalues was too large:
     Diagonalizing with lowered threshold

     Davidson diagonalization with overlap
     ethr =  3.68E-08,  avg # of iterations =  1.0

     total cpu time spent up to now is       28.8 secs

     total energy              =    -329.49209210 Ry
     Harris-Foulkes estimate   =    -329.49209407 Ry
     estimated scf accuracy    <       0.00002076 Ry

     iteration #  2     ecut=    30.00 Ry     beta=0.70
     Davidson diagonalization with overlap
     ethr =  3.77E-08,  avg # of iterations =  3.0

     total cpu time spent up to now is       29.2 secs

     total energy              =    -329.49209615 Ry
     Harris-Foulkes estimate   =    -329.49210110 Ry
     estimated scf accuracy    <       0.00001076 Ry

     iteration #  3     ecut=    30.00 Ry     beta=0.70
     Davidson diagonalization with overlap
     ethr =  1.96E-08,  avg # of iterations =  2.0

     total cpu time spent up to now is       29.6 secs

     total energy              =    -329.49209836 Ry
     Harris-Foulkes estimate   =    -329.49209915 Ry
     estimated scf accuracy    <       0.00000152 Ry

     iteration #  4     ecut=    30.00 Ry     beta=0.70
     Davidson diagonalization with overlap
     ethr =  2.76E-09,  avg # of iterations =  3.0

     total cpu time spent up to now is       30.1 secs

     total energy              =    -329.49209888 Ry
     Harris-Foulkes estimate   =    -329.49209917 Ry
     estimated scf accuracy    <       0.00000139 Ry

     iteration #  5     ecut=    30.00 Ry     beta=0.70
     Davidson diagonalization with overlap
     ethr =  2.53E-09,  avg # of iterations =  2.0

     total cpu time spent up to now is       30.4 secs

     total energy              =    -329.49209909 Ry
     Harris-Foulkes estimate   =    -329.49209916 Ry
     estimated scf accuracy    <       0.00000010 Ry

     iteration #  6     ecut=    30.00 Ry     beta=0.70
     Davidson diagonalization with overlap
     ethr =  1.74E-10,  avg # of iterations =  3.0

     total cpu time spent up to now is       30.9 secs

     total energy              =    -329.49209905 Ry
     Harris-Foulkes estimate   =    -329.49209912 Ry
     estimated scf accuracy    <       0.00000001 Ry

     iteration #  7     ecut=    30.00 Ry     beta=0.70
     Davidson diagonalization with overlap
     ethr =  1.93E-11,  avg # of iterations =  2.0

     total cpu time spent up to now is       31.3 secs

     total energy              =    -329.49209902 Ry
     Harris-Foulkes estimate   =    -329.49209905 Ry
     estimated scf accuracy    <          4.0E-09 Ry

     iteration #  8     ecut=    30.00 Ry     beta=0.70
     Davidson diagonalization with overlap
     ethr =  7.24E-12,  avg # of iterations =  2.0

     total cpu time spent up to now is       31.7 secs

     total energy              =    -329.49209904 Ry
     Harris-Foulkes estimate   =    -329.49209902 Ry
     estimated scf accuracy    <          5.0E-10 Ry

     iteration #  9     ecut=    30.00 Ry     beta=0.70
     Davidson diagonalization with overlap
     ethr =  9.12E-13,  avg # of iterations =  2.0

     total cpu time spent up to now is       32.1 secs

     End of self-consistent calculation

          k = 0.0000 0.0000 0.0000 ( 22119 PWs)   bands (ev):

    -8.4791  -7.7725  -7.6501  -7.2577  -6.9949  -6.8017  -6.6079  -6.4888
    -6.3251  -6.0429  -5.9983  -5.7516  -5.7194  -5.6765  -5.4110  -5.3862
    -5.3329  -5.2212  -5.2173  -5.1915  -5.1730  -5.1323  -5.0046  -4.9258
    -4.9087  -4.6372  -4.4933  -3.7630  -2.4562  -2.1851  -0.5342  -0.1948
     0.4062   0.7736

     the Fermi energy is    -3.7289 ev

!    total energy              =    -329.49209906 Ry
     Harris-Foulkes estimate   =    -329.49209904 Ry
     estimated scf accuracy    <          7.7E-11 Ry

     The total energy is the sum of the following terms:

     one-electron contribution =    -606.84194652 Ry
     hartree contribution      =     324.84609398 Ry
     xc contribution           =     -51.40047244 Ry
     ewald contribution        =       3.90885203 Ry
     smearing contrib. (-TS)   =      -0.00462611 Ry

     convergence has been achieved in   9 iterations

     Forces acting on atoms (Ry/au):

     atom    1 type  1   force =    -0.00049599   -0.00094172   -0.00117671
     atom    2 type  1   force =    -0.00205985    0.00347945    0.00200761
     atom    3 type  1   force =     0.00162348   -0.00034775    0.00308617
     atom    4 type  1   force =    -0.00137404   -0.00096549   -0.00165412
     atom    5 type  1   force =     0.00230640   -0.00122449   -0.00226295

     Total force =     0.007258     Total SCF correction =     0.000029

     number of scf cycles    =   7
     number of bfgs steps    =   6

     energy   old            =    -329.4919787890 Ry
     energy   new            =    -329.4920990606 Ry

     CASE: energy  _new < energy  _old

     new trust radius        =       0.0175096854 bohr
     new conv_thr            =       0.0000000001 Ry


ATOMIC_POSITIONS (bohr)
Au      -1.629470177   2.257971905  -1.255856989
Au      -0.735092305   3.879003354   3.569828242
Au       3.030227260   1.640004140   0.643400501
Au       3.854526493   3.637771386   5.908780725
Au       7.350734730   1.107145214   3.183282521



     Writing output data file pwscf.save
     Check: negative starting charge=   -0.006376
     NEW-OLD atomic charge density approx. for the potential
     Check: negative starting charge=   -0.006375

     negative rho (up, down):  5.703E-05 0.000E+00

     total cpu time spent up to now is       32.4 secs

     per-process dynamical memory:    50.7 Mb

     Self-consistent Calculation

     iteration #  1     ecut=    30.00 Ry     beta=0.70
     Davidson diagonalization with overlap
     ethr =  1.00E-06,  avg # of iterations =  4.0

     Threshold (ethr) on eigenvalues was too large:
     Diagonalizing with lowered threshold

     Davidson diagonalization with overlap
     ethr =  9.34E-08,  avg # of iterations =  1.0

     negative rho (up, down):  2.845E-07 0.000E+00

     total cpu time spent up to now is       33.4 secs

     total energy              =    -329.49223954 Ry
     Harris-Foulkes estimate   =    -329.49224447 Ry
     estimated scf accuracy    <       0.00005139 Ry

     iteration #  2     ecut=    30.00 Ry     beta=0.70
     Davidson diagonalization with overlap
     ethr =  9.34E-08,  avg # of iterations =  2.0

     total cpu time spent up to now is       33.8 secs

     total energy              =    -329.49224887 Ry
     Harris-Foulkes estimate   =    -329.49226185 Ry
     estimated scf accuracy    <       0.00002712 Ry

     iteration #  3     ecut=    30.00 Ry     beta=0.70
     Davidson diagonalization with overlap
     ethr =  4.93E-08,  avg # of iterations =  2.0

     total cpu time spent up to now is       34.2 secs

     total energy              =    -329.49225517 Ry
     Harris-Foulkes estimate   =    -329.49225689 Ry
     estimated scf accuracy    <       0.00000535 Ry

     iteration #  4     ecut=    30.00 Ry     beta=0.70
     Davidson diagonalization with overlap
     ethr =  9.72E-09,  avg # of iterations =  3.0

     total cpu time spent up to now is       34.6 secs

     total energy              =    -329.49225603 Ry
     Harris-Foulkes estimate   =    -329.49225781 Ry
     estimated scf accuracy    <       0.00000459 Ry

     iteration #  5     ecut=    30.00 Ry     beta=0.70
     Davidson diagonalization with overlap
     ethr =  8.35E-09,  avg # of iterations =  2.0

     total cpu time spent up to now is       35.0 secs

     total energy              =    -329.49225705 Ry
     Harris-Foulkes estimate   =    -329.49225691 Ry
     estimated scf accuracy    <       0.00000036 Ry

     iteration #  6     ecut=    30.00 Ry     beta=0.70
     Davidson diagonalization with overlap
     ethr =  6.61E-10,  avg # of iterations =  3.0

     total cpu time spent up to now is       35.3 secs

     total energy              =    -329.49225706 Ry
     Harris-Foulkes estimate   =    -329.49225715 Ry
     estimated scf accuracy    <       0.00000003 Ry

     iteration #  7     ecut=    30.00 Ry     beta=0.70
     Davidson diagonalization with overlap
     ethr =  6.26E-11,  avg # of iterations =  2.0

     total cpu time spent up to now is       35.7 secs

     total energy              =    -329.49225711 Ry
     Harris-Foulkes estimate   =    -329.49225707 Ry
     estimated scf accuracy    <          8.4E-09 Ry

     iteration #  8     ecut=    30.00 Ry     beta=0.70
     Davidson diagonalization with overlap
     ethr =  1.52E-11,  avg # of iterations =  2.0

     total cpu time spent up to now is       36.2 secs

     total energy              =    -329.49225711 Ry
     Harris-Foulkes estimate   =    -329.49225711 Ry
     estimated scf accuracy    <          1.1E-09 Ry

     iteration #  9     ecut=    30.00 Ry     beta=0.70
     Davidson diagonalization with overlap
     ethr =  1.97E-12,  avg # of iterations =  2.0

     total cpu time spent up to now is       36.6 secs

     total energy              =    -329.49225710 Ry
     Harris-Foulkes estimate   =    -329.49225711 Ry
     estimated scf accuracy    <          2.0E-10 Ry

     iteration # 10     ecut=    30.00 Ry     beta=0.70
     Davidson diagonalization with overlap
     ethr =  3.66E-13,  avg # of iterations =  2.0

     total cpu time spent up to now is       37.0 secs

     End of self-consistent calculation

          k = 0.0000 0.0000 0.0000 ( 22119 PWs)   bands (ev):

    -8.4887  -7.7803  -7.6536  -7.2592  -6.9820  -6.8074  -6.6086  -6.4918
    -6.3248  -6.0490  -5.9951  -5.7527  -5.7209  -5.6782  -5.4189  -5.3828
    -5.3304  -5.2229  -5.2145  -5.1936  -5.1695  -5.1320  -5.0038  -4.9209
    -4.9089  -4.6447  -4.4926  -3.7624  -2.4515  -2.1878  -0.5354  -0.1921
     0.4099   0.7762

     the Fermi energy is    -3.7280 ev

!    total energy              =    -329.49225710 Ry
     Harris-Foulkes estimate   =    -329.49225710 Ry
     estimated scf accuracy    <          4.4E-11 Ry

     The total energy is the sum of the following terms:

     one-electron contribution =    -607.09879327 Ry
     hartree contribution      =     324.97307102 Ry
     xc contribution           =     -51.40107278 Ry
     ewald contribution        =       4.03923301 Ry
     smearing contrib. (-TS)   =      -0.00469508 Ry

     convergence has been achieved in  10 iterations

     Forces acting on atoms (Ry/au):

     atom    1 type  1   force =    -0.00033536   -0.00088425   -0.00067780
     atom    2 type  1   force =    -0.00199712    0.00301811    0.00199487
     atom    3 type  1   force =     0.00077609   -0.00021826    0.00140471
     atom    4 type  1   force =    -0.00177944   -0.00052903   -0.00083170
     atom    5 type  1   force =     0.00333583   -0.00138656   -0.00189008

     Total force =     0.006466     Total SCF correction =     0.000028

     number of scf cycles    =   8
     number of bfgs steps    =   7

     energy   old            =    -329.4920990606 Ry
     energy   new            =    -329.4922571004 Ry

     CASE: energy  _new < energy  _old

     new trust radius        =       0.0262645282 bohr
     new conv_thr            =       0.0000000002 Ry


ATOMIC_POSITIONS (bohr)
Au      -1.622723886   2.252732840  -1.255612330
Au      -0.750515121   3.900218269   3.571202856
Au       3.029812161   1.640697594   0.669250738
Au       3.852723627   3.626616535   5.894171858
Au       7.361629219   1.101630762   3.170421878



     Writing output data file pwscf.save
     Check: negative starting charge=   -0.006375
     NEW-OLD atomic charge density approx. for the potential
     Check: negative starting charge=   -0.006375

     negative rho (up, down):  1.866E-04 0.000E+00

     total cpu time spent up to now is       37.4 secs

     per-process dynamical memory:    50.7 Mb

     Self-consistent Calculation

     iteration #  1     ecut=    30.00 Ry     beta=0.70
     Davidson diagonalization with overlap
     ethr =  1.00E-06,  avg # of iterations =  4.0

     negative rho (up, down):  3.230E-06 0.000E+00

     total cpu time spent up to now is       38.1 secs

     total energy              =    -329.49239652 Ry
     Harris-Foulkes estimate   =    -329.49238835 Ry
     estimated scf accuracy    <       0.00012690 Ry

     iteration #  2     ecut=    30.00 Ry     beta=0.70
     Davidson diagonalization with overlap
     ethr =  2.31E-07,  avg # of iterations =  3.0

     negative rho (up, down):  1.545E-07 0.000E+00

     total cpu time spent up to now is       38.5 secs

     total energy              =    -329.49241975 Ry
     Harris-Foulkes estimate   =    -329.49245522 Ry
     estimated scf accuracy    <       0.00007484 Ry

     iteration #  3     ecut=    30.00 Ry     beta=0.70
     Davidson diagonalization with overlap
     ethr =  1.36E-07,  avg # of iterations =  2.0

     total cpu time spent up to now is       38.9 secs

     total energy              =    -329.49243484 Ry
     Harris-Foulkes estimate   =    -329.49244374 Ry
     estimated scf accuracy    <       0.00002210 Ry

     iteration #  4     ecut=    30.00 Ry     beta=0.70
     Davidson diagonalization with overlap
     ethr =  4.02E-08,  avg # of iterations =  2.0

     total cpu time spent up to now is       39.3 secs

     total energy              =    -329.49244009 Ry
     Harris-Foulkes estimate   =    -329.49244330 Ry
     estimated scf accuracy    <       0.00001091 Ry

     iteration #  5     ecut=    30.00 Ry     beta=0.70
     Davidson diagonalization with overlap
     ethr =  1.98E-08,  avg # of iterations =  2.0

     total cpu time spent up to now is       39.7 secs

     total energy              =    -329.49244177 Ry
     Harris-Foulkes estimate   =    -329.49244215 Ry
     estimated scf accuracy    <       0.00000083 Ry

     iteration #  6     ecut=    30.00 Ry     beta=0.70
     Davidson diagonalization with overlap
     ethr =  1.51E-09,  avg # of iterations =  3.0

     total cpu time spent up to now is       40.1 secs

     total energy              =    -329.49244192 Ry
     Harris-Foulkes estimate   =    -329.49244201 Ry
     estimated scf accuracy    <       0.00000008 Ry

     iteration #  7     ecut=    30.00 Ry     beta=0.70
     Davidson diagonalization with overlap
     ethr =  1.41E-10,  avg # of iterations =  3.0

     total cpu time spent up to now is       40.5 secs

     total energy              =    -329.49244190 Ry
     Harris-Foulkes estimate   =    -329.49244194 Ry
     estimated scf accuracy    <       0.00000002 Ry

     iteration #  8     ecut=    30.00 Ry     beta=0.70
     Davidson diagonalization with overlap
     ethr =  3.30E-11,  avg # of iterations =  2.0

     total cpu time spent up to now is       40.9 secs

     total energy              =    -329.49244193 Ry
     Harris-Foulkes estimate   =    -329.49244190 Ry
     estimated scf accuracy    <          1.7E-09 Ry

     iteration #  9     ecut=    30.00 Ry     beta=0.70
     Davidson diagonalization with overlap
     ethr =  3.02E-12,  avg # of iterations =  3.0

     total cpu time spent up to now is       41.3 secs

     total energy              =    -329.49244193 Ry
     Harris-Foulkes estimate   =    -329.49244193 Ry
     estimated scf accuracy    <          5.4E-10 Ry

     iteration # 10     ecut=    30.00 Ry     beta=0.70
     Davidson diagonalization with overlap
     ethr =  9.75E-13,  avg # of iterations =  2.0

     total cpu time spent up to now is       41.7 secs

     End of self-consistent calculation

          k = 0.0000 0.0000 0.0000 ( 22119 PWs)   bands (ev):

    -8.5010  -7.7885  -7.6580  -7.2586  -6.9599  -6.8145  -6.6071  -6.4944
    -6.3230  -6.0580  -5.9876  -5.7546  -5.7228  -5.6803  -5.4306  -5.3772
    -5.3265  -5.2271  -5.2098  -5.1960  -5.1649  -5.1307  -5.0025  -4.9189
    -4.9028  -4.6572  -4.4918  -3.7623  -2.4448  -2.1933  -0.5367  -0.1882
     0.4158   0.7802

     the Fermi energy is    -3.7276 ev

!    total energy              =    -329.49244193 Ry
     Harris-Foulkes estimate   =    -329.49244193 Ry
     estimated scf accuracy    <          7.6E-11 Ry

     The total energy is the sum of the following terms:

     one-electron contribution =    -607.33716806 Ry
     hartree contribution      =     325.09138428 Ry
     xc contribution           =     -51.40145344 Ry
     ewald contribution        =       4.15956825 Ry
     smearing contrib. (-TS)   =      -0.00477297 Ry

     convergence has been achieved in  10 iterations

     Forces acting on atoms (Ry/au):

     atom    1 type  1   force =    -0.00011814   -0.00069398    0.00003929
     atom    2 type  1   force =    -0.00166284    0.00239042    0.00159812
     atom    3 type  1   force =    -0.00042890   -0.00022957   -0.00033623
     atom    4 type  1   force =    -0.00224440   -0.00009922    0.00011711
     atom    5 type  1   force =     0.00445428   -0.00136764   -0.00141829

     Total force =     0.006377     Total SCF correction =     0.000036

     number of scf cycles    =   9
     number of bfgs steps    =   8

     energy   old            =    -329.4922571004 Ry
     energy   new            =    -329.4924419312 Ry

     CASE: energy  _new < energy  _old

     new trust radius        =       0.0393967922 bohr
     new conv_thr            =       0.0000000002 Ry


ATOMIC_POSITIONS (bohr)
Au      -1.612396096   2.244924445  -1.254210519
Au      -0.773675347   3.932026003   3.573197662
Au       3.027486530   1.641563479   0.705641411
Au       3.848571141   3.610361513   5.873573960
Au       7.380939773   1.093020559   3.151232486



     Writing output data file pwscf.save
     Check: negative starting charge=   -0.006375
     NEW-OLD atomic charge density approx. for the potential
     Check: negative starting charge=   -0.006379

     negative rho (up, down):  4.388E-04 0.000E+00

     total cpu time spent up to now is       42.1 secs

     per-process dynamical memory:    50.7 Mb

     Self-consistent Calculation

     iteration #  1     ecut=    30.00 Ry     beta=0.70
     Davidson diagonalization with overlap
     ethr =  1.00E-06,  avg # of iterations =  4.0

     negative rho (up, down):  1.600E-05 0.000E+00

     total cpu time spent up to now is       42.8 secs

     total energy              =    -329.49254238 Ry
     Harris-Foulkes estimate   =    -329.49242182 Ry
     estimated scf accuracy    <       0.00028816 Ry

     iteration #  2     ecut=    30.00 Ry     beta=0.70
     Davidson diagonalization with overlap
     ethr =  5.24E-07,  avg # of iterations =  3.0

     negative rho (up, down):  1.925E-06 0.000E+00

     total cpu time spent up to now is       43.3 secs

     total energy              =    -329.49258295 Ry
     Harris-Foulkes estimate   =    -329.49268761 Ry
     estimated scf accuracy    <       0.00021265 Ry

     iteration #  3     ecut=    30.00 Ry     beta=0.70
     Davidson diagonalization with overlap
     ethr =  3.87E-07,  avg # of iterations =  2.0

     negative rho (up, down):  6.391E-08 0.000E+00

     total cpu time spent up to now is       43.7 secs

     total energy              =    -329.49262610 Ry
     Harris-Foulkes estimate   =    -329.49265666 Ry
     estimated scf accuracy    <       0.00008252 Ry

     iteration #  4     ecut=    30.00 Ry     beta=0.70
     Davidson diagonalization with overlap
     ethr =  1.50E-07,  avg # of iterations =  2.0

     total cpu time spent up to now is       44.1 secs

     total energy              =    -329.49264400 Ry
     Harris-Foulkes estimate   =    -329.49264898 Ry
     estimated scf accuracy    <       0.00001633 Ry

     iteration #  5     ecut=    30.00 Ry     beta=0.70
     Davidson diagonalization with overlap
     ethr =  2.97E-08,  avg # of iterations =  2.0

     total cpu time spent up to now is       44.4 secs

     total energy              =    -329.49264667 Ry
     Harris-Foulkes estimate   =    -329.49264747 Ry
     estimated scf accuracy    <       0.00000195 Ry

     iteration #  6     ecut=    30.00 Ry     beta=0.70
     Davidson diagonalization with overlap
     ethr =  3.55E-09,  avg # of iterations =  2.0

     total cpu time spent up to now is       44.8 secs

     total energy              =    -329.49264697 Ry
     Harris-Foulkes estimate   =    -329.49264718 Ry
     estimated scf accuracy    <       0.00000017 Ry

     iteration #  7     ecut=    30.00 Ry     beta=0.70
     Davidson diagonalization with overlap
     ethr =  3.06E-10,  avg # of iterations =  2.0

     total cpu time spent up to now is       45.2 secs

     total energy              =    -329.49264700 Ry
     Harris-Foulkes estimate   =    -329.49264702 Ry
     estimated scf accuracy    <       0.00000003 Ry

     iteration #  8     ecut=    30.00 Ry     beta=0.70
     Davidson diagonalization with overlap
     ethr =  6.03E-11,  avg # of iterations =  2.0

     total cpu time spent up to now is       45.5 secs

     total energy              =    -329.49264698 Ry
     Harris-Foulkes estimate   =    -329.49264701 Ry
     estimated scf accuracy    <          2.7E-09 Ry

     iteration #  9     ecut=    30.00 Ry     beta=0.70
     Davidson diagonalization with overlap
     ethr =  4.93E-12,  avg # of iterations =  2.0

     total cpu time spent up to now is       45.9 secs

     total energy              =    -329.49264698 Ry
     Harris-Foulkes estimate   =    -329.49264698 Ry
     estimated scf accuracy    <          6.9E-10 Ry

     iteration # 10     ecut=    30.00 Ry     beta=0.70
     Davidson diagonalization with overlap
     ethr =  1.26E-12,  avg # of iterations =  2.0

     total cpu time spent up to now is       46.3 secs

     total energy              =    -329.49264697 Ry
     Harris-Foulkes estimate   =    -329.49264698 Ry
     estimated scf accuracy    <          2.1E-10 Ry

     iteration # 11     ecut=    30.00 Ry     beta=0.70
     Davidson diagonalization with overlap
     ethr =  3.89E-13,  avg # of iterations =  2.0

     total cpu time spent up to now is       46.7 secs

     End of self-consistent calculation

          k = 0.0000 0.0000 0.0000 ( 22119 PWs)   bands (ev):

    -8.5167  -7.7967  -7.6642  -7.2543  -6.9259  -6.8227  -6.6025  -6.4971
    -6.3187  -6.0712  -5.9740  -5.7584  -5.7253  -5.6830  -5.4461  -5.3689
    -5.3208  -5.2356  -5.2031  -5.1976  -5.1611  -5.1269  -5.0007  -4.9229
    -4.8856  -4.6756  -4.4916  -3.7627  -2.4355  -2.2025  -0.5382  -0.1825
     0.4248   0.7859

     the Fermi energy is    -3.7277 ev

!    total energy              =    -329.49264694 Ry
     Harris-Foulkes estimate   =    -329.49264697 Ry
     estimated scf accuracy    <          1.3E-11 Ry

     The total energy is the sum of the following terms:

     one-electron contribution =    -607.53973451 Ry
     hartree contribution      =     325.19264080 Ry
     xc contribution           =     -51.40155334 Ry
     ewald contribution        =       4.26087468 Ry
     smearing contrib. (-TS)   =      -0.00487457 Ry

     convergence has been achieved in  11 iterations

     Forces acting on atoms (Ry/au):

     atom    1 type  1   force =    -0.00003508   -0.00033860    0.00079442
     atom    2 type  1   force =    -0.00132420    0.00199974    0.00100344
     atom    3 type  1   force =    -0.00144297   -0.00062042   -0.00146191
     atom    4 type  1   force =    -0.00254042   -0.00001506    0.00058659
     atom    5 type  1   force =     0.00534267   -0.00102567   -0.00092255

     Total force =     0.007025     Total SCF correction =     0.000017

     number of scf cycles    =  10
     number of bfgs steps    =   9

     energy   old            =    -329.4924419312 Ry
     energy   new            =    -329.4926469424 Ry

     CASE: energy  _new < energy  _old

     new trust radius        =       0.0590951884 bohr
     new conv_thr            =       0.0000000002 Ry


ATOMIC_POSITIONS (bohr)
Au      -1.596262833   2.233685005  -1.250317725
Au      -0.808427746   3.979788957   3.574989947
Au       3.021521635   1.642182538   0.758566477
Au       3.841452261   3.585780061   5.843269030
Au       7.412642683   1.080459441   3.122927272



     Writing output data file pwscf.save
     Check: negative starting charge=   -0.006379
     NEW-OLD atomic charge density approx. for the potential
     Check: negative starting charge=   -0.006399

     negative rho (up, down):  9.286E-04 0.000E+00

     total cpu time spent up to now is       47.1 secs

     per-process dynamical memory:    50.7 Mb

     Self-consistent Calculation

     iteration #  1     ecut=    30.00 Ry     beta=0.70
     Davidson diagonalization with overlap
     ethr =  1.00E-06,  avg # of iterations =  6.0

     negative rho (up, down):  5.776E-05 0.000E+00

     total cpu time spent up to now is       47.9 secs

     total energy              =    -329.49260233 Ry
     Harris-Foulkes estimate   =    -329.49210418 Ry
     estimated scf accuracy    <       0.00068081 Ry

     iteration #  2     ecut=    30.00 Ry     beta=0.70
     Davidson diagonalization with overlap
     ethr =  1.24E-06,  avg # of iterations =  4.0

     negative rho (up, down):  1.327E-05 0.000E+00

     total cpu time spent up to now is       48.3 secs

     total energy              =    -329.49266603 Ry
     Harris-Foulkes estimate   =    -329.49297977 Ry
     estimated scf accuracy    <       0.00065421 Ry

     iteration #  3     ecut=    30.00 Ry     beta=0.70
     Davidson diagonalization with overlap
     ethr =  1.19E-06,  avg # of iterations =  2.0

     negative rho (up, down):  1.002E-06 0.000E+00

     total cpu time spent up to now is       48.5 secs

     total energy              =    -329.49280312 Ry
     Harris-Foulkes estimate   =    -329.49288770 Ry
     estimated scf accuracy    <       0.00023515 Ry

     iteration #  4     ecut=    30.00 Ry     beta=0.70
     Davidson diagonalization with overlap
     ethr =  4.28E-07,  avg # of iterations =  2.0

     total cpu time spent up to now is       48.8 secs

     total energy              =    -329.49285322 Ry
     Harris-Foulkes estimate   =    -329.49285937 Ry
     estimated scf accuracy    <       0.00002643 Ry

     iteration #  5     ecut=    30.00 Ry     beta=0.70
     Davidson diagonalization with overlap
     ethr =  4.81E-08,  avg # of iterations =  2.0

     total cpu time spent up to now is       49.2 secs

     total energy              =    -329.49285765 Ry
     Harris-Foulkes estimate   =    -329.49286018 Ry
     estimated scf accuracy    <       0.00000569 Ry

     iteration #  6     ecut=    30.00 Ry     beta=0.70
     Davidson diagonalization with overlap
     ethr =  1.03E-08,  avg # of iterations =  2.0

     total cpu time spent up to now is       49.4 secs

     total energy              =    -329.49285861 Ry
     Harris-Foulkes estimate   =    -329.49285900 Ry
     estimated scf accuracy    <       0.00000043 Ry

     iteration #  7     ecut=    30.00 Ry     beta=0.70
     Davidson diagonalization with overlap
     ethr =  7.75E-10,  avg # of iterations =  2.0

     total cpu time spent up to now is       49.7 secs

     total energy              =    -329.49285865 Ry
     Harris-Foulkes estimate   =    -329.49285874 Ry
     estimated scf accuracy    <       0.00000005 Ry

     iteration #  8     ecut=    30.00 Ry     beta=0.70
     Davidson diagonalization with overlap
     ethr =  9.75E-11,  avg # of iterations =  2.0

     total cpu time spent up to now is       50.0 secs

     total energy              =    -329.49285865 Ry
     Harris-Foulkes estimate   =    -329.49285867 Ry
     estimated scf accuracy    <       0.00000001 Ry

     iteration #  9     ecut=    30.00 Ry     beta=0.70
     Davidson diagonalization with overlap
     ethr =  1.87E-11,  avg # of iterations =  2.0

     total cpu time spent up to now is       50.4 secs

     total energy              =    -329.49285863 Ry
     Harris-Foulkes estimate   =    -329.49285865 Ry
     estimated scf accuracy    <          2.6E-09 Ry

     iteration # 10     ecut=    30.00 Ry     beta=0.70
     Davidson diagonalization with overlap
     ethr =  4.81E-12,  avg # of iterations =  2.0

     total cpu time spent up to now is       50.6 secs

     total energy              =    -329.49285861 Ry
     Harris-Foulkes estimate   =    -329.49285863 Ry
     estimated scf accuracy    <          7.3E-10 Ry

     iteration # 11     ecut=    30.00 Ry     beta=0.70
     Davidson diagonalization with overlap
     ethr =  1.33E-12,  avg # of iterations =  2.0

     total cpu time spent up to now is       50.9 secs

     End of self-consistent calculation

          k = 0.0000 0.0000 0.0000 ( 22119 PWs)   bands (ev):

    -8.5390  -7.8075  -7.6760  -7.2451  -6.8764  -6.8326  -6.5962  -6.5034
    -6.3104  -6.0920  -5.9529  -5.7650  -5.7286  -5.6864  -5.4663  -5.3562
    -5.3130  -5.2506  -5.1995  -5.1920  -5.1605  -5.1195  -4.9984  -4.9310
    -4.8552  -4.7013  -4.4942  -3.7627  -2.4235  -2.2160  -0.5400  -0.1734
     0.4388   0.7940

     the Fermi energy is    -3.7270 ev

!    total energy              =    -329.49285857 Ry
     Harris-Foulkes estimate   =    -329.49285861 Ry
     estimated scf accuracy    <          5.7E-11 Ry

     The total energy is the sum of the following terms:

     one-electron contribution =    -607.78041573 Ry
     hartree contribution      =     325.31309408 Ry
     xc contribution           =     -51.40166022 Ry
     ewald contribution        =       4.38117965 Ry
     smearing contrib. (-TS)   =      -0.00505635 Ry

     convergence has been achieved in  11 iterations

     Forces acting on atoms (Ry/au):

     atom    1 type  1   force =    -0.00009107    0.00040311    0.00180304
     atom    2 type  1   force =    -0.00115077    0.00152198    0.00127958
     atom    3 type  1   force =    -0.00210307   -0.00165844   -0.00397156
     atom    4 type  1   force =    -0.00226260    0.00003136    0.00075721
     atom    5 type  1   force =     0.00560751   -0.00029800    0.00013173

     Total force =     0.008300     Total SCF correction =     0.000037

     number of scf cycles    =  11
     number of bfgs steps    =  10

     energy   old            =    -329.4926469424 Ry
     energy   new            =    -329.4928585664 Ry

     CASE: energy  _new < energy  _old

     new trust radius        =       0.0320530096 bohr
     new conv_thr            =       0.0000000002 Ry


ATOMIC_POSITIONS (bohr)
Au      -1.588515199   2.228646780  -1.246606060
Au      -0.827104487   4.005724545   3.577423057
Au       3.017212359   1.640248511   0.781812363
Au       3.836010675   3.572947864   5.828047801
Au       7.433322652   1.074328300   3.108757839



     Writing output data file pwscf.save
     Check: negative starting charge=   -0.006399
     NEW-OLD atomic charge density approx. for the potential
     Check: negative starting charge=   -0.006410

     negative rho (up, down):  2.571E-04 0.000E+00

     total cpu time spent up to now is       51.2 secs

     per-process dynamical memory:    50.7 Mb

     Self-consistent Calculation

     iteration #  1     ecut=    30.00 Ry     beta=0.70
     Davidson diagonalization with overlap
     ethr =  1.00E-06,  avg # of iterations =  4.0

     negative rho (up, down):  5.573E-06 0.000E+00

     total cpu time spent up to now is       51.7 secs

     total energy              =    -329.49284620 Ry
     Harris-Foulkes estimate   =    -329.49283328 Ry
     estimated scf accuracy    <       0.00019191 Ry

     iteration #  2     ecut=    30.00 Ry     beta=0.70
     Davidson diagonalization with overlap
     ethr =  3.49E-07,  avg # of iterations =  2.0

     negative rho (up, down):  7.448E-07 0.000E+00

     total cpu time spent up to now is       52.0 secs

     total energy              =    -329.49285326 Ry
     Harris-Foulkes estimate   =    -329.49296474 Ry
     estimated scf accuracy    <       0.00023606 Ry

     iteration #  3     ecut=    30.00 Ry     beta=0.70
     Davidson diagonalization with overlap
     ethr =  3.49E-07,  avg # of iterations =  2.0

     negative rho (up, down):  1.991E-08 0.000E+00

     total cpu time spent up to now is       52.3 secs

     total energy              =    -329.49290478 Ry
     Harris-Foulkes estimate   =    -329.49292945 Ry
     estimated scf accuracy    <       0.00007272 Ry

     iteration #  4     ecut=    30.00 Ry     beta=0.70
     Davidson diagonalization with overlap
     ethr =  1.32E-07,  avg # of iterations =  2.0

     total cpu time spent up to now is       52.5 secs

     total energy              =    -329.49291906 Ry
     Harris-Foulkes estimate   =    -329.49292059 Ry
     estimated scf accuracy    <       0.00000554 Ry

     iteration #  5     ecut=    30.00 Ry     beta=0.70
     Davidson diagonalization with overlap
     ethr =  1.01E-08,  avg # of iterations =  3.0

     total cpu time spent up to now is       52.8 secs

     total energy              =    -329.49291995 Ry
     Harris-Foulkes estimate   =    -329.49292078 Ry
     estimated scf accuracy    <       0.00000148 Ry

     iteration #  6     ecut=    30.00 Ry     beta=0.70
     Davidson diagonalization with overlap
     ethr =  2.69E-09,  avg # of iterations =  2.0

     total cpu time spent up to now is       53.1 secs

     total energy              =    -329.49292028 Ry
     Harris-Foulkes estimate   =    -329.49292030 Ry
     estimated scf accuracy    <       0.00000013 Ry

     iteration #  7     ecut=    30.00 Ry     beta=0.70
     Davidson diagonalization with overlap
     ethr =  2.30E-10,  avg # of iterations =  3.0

     total cpu time spent up to now is       53.4 secs

     total energy              =    -329.49292040 Ry
     Harris-Foulkes estimate   =    -329.49292032 Ry
     estimated scf accuracy    <       0.00000002 Ry

     iteration #  8     ecut=    30.00 Ry     beta=0.70
     Davidson diagonalization with overlap
     ethr =  2.93E-11,  avg # of iterations =  2.0

     total cpu time spent up to now is       53.7 secs

     total energy              =    -329.49292035 Ry
     Harris-Foulkes estimate   =    -329.49292040 Ry
     estimated scf accuracy    <          3.4E-09 Ry

     iteration #  9     ecut=    30.00 Ry     beta=0.70
     Davidson diagonalization with overlap
     ethr =  6.13E-12,  avg # of iterations =  2.0

     total cpu time spent up to now is       53.9 secs

     total energy              =    -329.49292037 Ry
     Harris-Foulkes estimate   =    -329.49292035 Ry
     estimated scf accuracy    <          1.3E-09 Ry

     iteration # 10     ecut=    30.00 Ry     beta=0.70
     Davidson diagonalization with overlap
     ethr =  2.35E-12,  avg # of iterations =  2.0

     total cpu time spent up to now is       54.2 secs

     total energy              =    -329.49292037 Ry
     Harris-Foulkes estimate   =    -329.49292037 Ry
     estimated scf accuracy    <          2.3E-10 Ry

     iteration # 11     ecut=    30.00 Ry     beta=0.70
     Davidson diagonalization with overlap
     ethr =  4.18E-13,  avg # of iterations =  2.0

     total cpu time spent up to now is       54.5 secs

     End of self-consistent calculation

          k = 0.0000 0.0000 0.0000 ( 22119 PWs)   bands (ev):

    -8.5436  -7.8066  -7.6798  -7.2361  -6.8530  -6.8311  -6.5904  -6.5043
    -6.3043  -6.1003  -5.9404  -5.7676  -5.7292  -5.6869  -5.4736  -5.3499
    -5.3101  -5.2582  -5.1999  -5.1863  -5.1619  -5.1169  -4.9980  -4.9354
    -4.8397  -4.7144  -4.4966  -3.7640  -2.4203  -2.2232  -0.5400  -0.1694
     0.4459   0.7979

     the Fermi energy is    -3.7280 ev

!    total energy              =    -329.49292038 Ry
     Harris-Foulkes estimate   =    -329.49292037 Ry
     estimated scf accuracy    <          2.0E-11 Ry

     The total energy is the sum of the following terms:

     one-electron contribution =    -607.62449850 Ry
     hartree contribution      =     325.23698334 Ry
     xc contribution           =     -51.40068673 Ry
     ewald contribution        =       4.30040129 Ry
     smearing contrib. (-TS)   =      -0.00511977 Ry

     convergence has been achieved in  11 iterations

     Forces acting on atoms (Ry/au):

     atom    1 type  1   force =    -0.00026274    0.00080106    0.00228963
     atom    2 type  1   force =    -0.00044161    0.00140091    0.00114977
     atom    3 type  1   force =    -0.00180380   -0.00229305   -0.00487180
     atom    4 type  1   force =    -0.00146947    0.00004846    0.00056522
     atom    5 type  1   force =     0.00397762    0.00004262    0.00086719

     Total force =     0.007793     Total SCF correction =     0.000024

     number of scf cycles    =  12
     number of bfgs steps    =  11

     energy   old            =    -329.4928585664 Ry
     energy   new            =    -329.4929203816 Ry

     CASE: energy  _new < energy  _old

     new trust radius        =       0.0100071283 bohr
     new conv_thr            =            1.0E-10 Ry


ATOMIC_POSITIONS (bohr)
Au      -1.588615131   2.229040122  -1.243134236
Au      -0.830874244   4.012677745   3.580466576
Au       3.015045846   1.635842031   0.778663577
Au       3.832187471   3.570740898   5.826229564
Au       7.443182058   1.073595204   3.107209519



     Writing output data file pwscf.save
     Check: negative starting charge=   -0.006410
     NEW-OLD atomic charge density approx. for the potential
     Check: negative starting charge=   -0.006406

     negative rho (up, down):  4.483E-06 0.000E+00

     total cpu time spent up to now is       54.8 secs

     per-process dynamical memory:    50.7 Mb

     Self-consistent Calculation

     iteration #  1     ecut=    30.00 Ry     beta=0.70
     Davidson diagonalization with overlap
     ethr =  1.00E-06,  avg # of iterations =  3.0

     Threshold (ethr) on eigenvalues was too large:
     Diagonalizing with lowered threshold

     Davidson diagonalization with overlap
     ethr =  3.27E-08,  avg # of iterations =  2.0

     total cpu time spent up to now is       55.4 secs

     total energy              =    -329.49298991 Ry
     Harris-Foulkes estimate   =    -329.49299589 Ry
     estimated scf accuracy    <       0.00001927 Ry

     iteration #  2     ecut=    30.00 Ry     beta=0.70
     Davidson diagonalization with overlap
     ethr =  3.50E-08,  avg # of iterations =  3.0

     total cpu time spent up to now is       55.7 secs

     total energy              =    -329.49298779 Ry
     Harris-Foulkes estimate   =    -329.49300780 Ry
     estimated scf accuracy    <       0.00005031 Ry

     iteration #  3     ecut=    30.00 Ry     beta=0.70
     Davidson diagonalization with overlap
     ethr =  3.50E-08,  avg # of iterations =  2.0

     total cpu time spent up to now is       55.9 secs

     total energy              =    -329.49299777 Ry
     Harris-Foulkes estimate   =    -329.49299934 Ry
     estimated scf accuracy    <       0.00000473 Ry

     iteration #  4     ecut=    30.00 Ry     beta=0.70
     Davidson diagonalization with overlap
     ethr =  8.59E-09,  avg # of iterations =  2.0

     total cpu time spent up to now is       56.2 secs

     total energy              =    -329.49299842 Ry
     Harris-Foulkes estimate   =    -329.49299884 Ry
     estimated scf accuracy    <       0.00000041 Ry

     iteration #  5     ecut=    30.00 Ry     beta=0.70
     Davidson diagonalization with overlap
     ethr =  7.42E-10,  avg # of iterations =  2.0

     total cpu time spent up to now is       56.5 secs

     total energy              =    -329.49299857 Ry
     Harris-Foulkes estimate   =    -329.49299855 Ry
     estimated scf accuracy    <       0.00000009 Ry

     iteration #  6     ecut=    30.00 Ry     beta=0.70
     Davidson diagonalization with overlap
     ethr =  1.69E-10,  avg # of iterations =  2.0

     total cpu time spent up to now is       56.7 secs

     total energy              =    -329.49299856 Ry
[...]
     Diagonalizing with lowered threshold

     Davidson diagonalization with overlap
     ethr =  4.19E-08,  avg # of iterations =  1.0

     total cpu time spent up to now is       91.2 secs

     total energy              =    -329.49332924 Ry
     Harris-Foulkes estimate   =    -329.49334044 Ry
     estimated scf accuracy    <       0.00002383 Ry

     iteration #  2     ecut=    30.00 Ry     beta=0.70
     Davidson diagonalization with overlap
     ethr =  4.33E-08,  avg # of iterations =  3.0

     total cpu time spent up to now is       91.5 secs

     total energy              =    -329.49333258 Ry
     Harris-Foulkes estimate   =    -329.49334361 Ry
     estimated scf accuracy    <       0.00002308 Ry

     iteration #  3     ecut=    30.00 Ry     beta=0.70
     Davidson diagonalization with overlap
     ethr =  4.20E-08,  avg # of iterations =  2.0

     total cpu time spent up to now is       91.8 secs

     total energy              =    -329.49333704 Ry
     Harris-Foulkes estimate   =    -329.49333795 Ry
     estimated scf accuracy    <       0.00000150 Ry

     iteration #  4     ecut=    30.00 Ry     beta=0.70
     Davidson diagonalization with overlap
     ethr =  2.73E-09,  avg # of iterations =  2.0

     total cpu time spent up to now is       92.0 secs

     total energy              =    -329.49333712 Ry
     Harris-Foulkes estimate   =    -329.49333805 Ry
     estimated scf accuracy    <       0.00000231 Ry

     iteration #  5     ecut=    30.00 Ry     beta=0.70
     Davidson diagonalization with overlap
     ethr =  2.73E-09,  avg # of iterations =  2.0

     total cpu time spent up to now is       92.3 secs

     total energy              =    -329.49333745 Ry
     Harris-Foulkes estimate   =    -329.49333752 Ry
     estimated scf accuracy    <       0.00000005 Ry

     iteration #  6     ecut=    30.00 Ry     beta=0.70
     Davidson diagonalization with overlap
     ethr =  9.97E-11,  avg # of iterations =  3.0

     total cpu time spent up to now is       92.6 secs

     total energy              =    -329.49333747 Ry
     Harris-Foulkes estimate   =    -329.49333747 Ry
     estimated scf accuracy    <       0.00000002 Ry

     iteration #  7     ecut=    30.00 Ry     beta=0.70
     Davidson diagonalization with overlap
     ethr =  2.95E-11,  avg # of iterations =  2.0

     total cpu time spent up to now is       92.9 secs

     total energy              =    -329.49333743 Ry
     Harris-Foulkes estimate   =    -329.49333748 Ry
     estimated scf accuracy    <          2.4E-09 Ry

     iteration #  8     ecut=    30.00 Ry     beta=0.70
     Davidson diagonalization with overlap
     ethr =  4.29E-12,  avg # of iterations =  2.0

     total cpu time spent up to now is       93.2 secs

     total energy              =    -329.49333739 Ry
     Harris-Foulkes estimate   =    -329.49333743 Ry
     estimated scf accuracy    <          8.6E-10 Ry

     iteration #  9     ecut=    30.00 Ry     beta=0.70
     Davidson diagonalization with overlap
     ethr =  1.56E-12,  avg # of iterations =  2.0

     total cpu time spent up to now is       93.4 secs

     total energy              =    -329.49333739 Ry
     Harris-Foulkes estimate   =    -329.49333739 Ry
     estimated scf accuracy    <          1.2E-10 Ry

     iteration # 10     ecut=    30.00 Ry     beta=0.70
     Davidson diagonalization with overlap
     ethr =  2.15E-13,  avg # of iterations =  2.0

     total cpu time spent up to now is       93.7 secs

     End of self-consistent calculation

          k = 0.0000 0.0000 0.0000 ( 22119 PWs)   bands (ev):

    -8.5232  -7.7945  -7.6635  -7.2410  -6.8474  -6.8225  -6.6155  -6.4884
    -6.3098  -6.0846  -5.9500  -5.7696  -5.7291  -5.6865  -5.4677  -5.3517
    -5.3109  -5.2525  -5.1999  -5.1805  -5.1683  -5.1191  -5.0022  -4.9264
    -4.8319  -4.7321  -4.4823  -3.7671  -2.4343  -2.2065  -0.5377  -0.1730
     0.4600   0.8030

     the Fermi energy is    -3.7327 ev

!    total energy              =    -329.49333739 Ry
     Harris-Foulkes estimate   =    -329.49333739 Ry
     estimated scf accuracy    <          9.5E-12 Ry

     The total energy is the sum of the following terms:

     one-electron contribution =    -607.43849623 Ry
     hartree contribution      =     325.14829976 Ry
     xc contribution           =     -51.40070334 Ry
     ewald contribution        =       4.20233439 Ry
     smearing contrib. (-TS)   =      -0.00477196 Ry

     convergence has been achieved in  10 iterations

     Forces acting on atoms (Ry/au):

     atom    1 type  1   force =    -0.00052202    0.00007167    0.00016232
     atom    2 type  1   force =    -0.00003725    0.00067414   -0.00005501
     atom    3 type  1   force =    -0.00120328   -0.00065762   -0.00122218
     atom    4 type  1   force =     0.00001363    0.00089907    0.00121047
     atom    5 type  1   force =     0.00174892   -0.00098725   -0.00009560

     Total force =     0.003233     Total SCF correction =     0.000012

     number of scf cycles    =  24
     number of bfgs steps    =  23

     energy   old            =    -329.4933179457 Ry
     energy   new            =    -329.4933373930 Ry

     CASE: energy  _new < energy  _old

     new trust radius        =       0.0169009550 bohr
     new conv_thr            =            1.0E-10 Ry


ATOMIC_POSITIONS (bohr)
Au      -1.614232039   2.226286298  -1.170569906
Au      -0.820300942   4.114593255   3.579363971
Au       3.013523510   1.590036735   0.769369800
Au       3.838177694   3.549093576   5.781746725
Au       7.453757778   1.041886136   3.089524410



     Writing output data file pwscf.save
     Check: negative starting charge=   -0.006376
     NEW-OLD atomic charge density approx. for the potential
     Check: negative starting charge=   -0.006375

     negative rho (up, down):  3.368E-05 0.000E+00

     total cpu time spent up to now is       94.0 secs

     per-process dynamical memory:    50.7 Mb

     Self-consistent Calculation

     iteration #  1     ecut=    30.00 Ry     beta=0.70
     Davidson diagonalization with overlap
     ethr =  1.00E-06,  avg # of iterations =  4.0

     Threshold (ethr) on eigenvalues was too large:
     Diagonalizing with lowered threshold

     Davidson diagonalization with overlap
     ethr =  9.02E-08,  avg # of iterations =  1.0

     negative rho (up, down):  7.823E-08 0.000E+00

     total cpu time spent up to now is       94.6 secs

     total energy              =    -329.49334541 Ry
     Harris-Foulkes estimate   =    -329.49336445 Ry
     estimated scf accuracy    <       0.00004983 Ry

     iteration #  2     ecut=    30.00 Ry     beta=0.70
     Davidson diagonalization with overlap
     ethr =  9.06E-08,  avg # of iterations =  2.0

     total cpu time spent up to now is       94.9 secs

     total energy              =    -329.49335298 Ry
     Harris-Foulkes estimate   =    -329.49337479 Ry
     estimated scf accuracy    <       0.00004561 Ry

     iteration #  3     ecut=    30.00 Ry     beta=0.70
     Davidson diagonalization with overlap
     ethr =  8.29E-08,  avg # of iterations =  2.0

     total cpu time spent up to now is       95.1 secs

     total energy              =    -329.49336196 Ry
     Harris-Foulkes estimate   =    -329.49336332 Ry
     estimated scf accuracy    <       0.00000191 Ry

     iteration #  4     ecut=    30.00 Ry     beta=0.70
     Davidson diagonalization with overlap
     ethr =  3.47E-09,  avg # of iterations =  3.0

     total cpu time spent up to now is       95.4 secs

     total energy              =    -329.49336190 Ry
     Harris-Foulkes estimate   =    -329.49336329 Ry
     estimated scf accuracy    <       0.00000320 Ry

     iteration #  5     ecut=    30.00 Ry     beta=0.70
     Davidson diagonalization with overlap
     ethr =  3.47E-09,  avg # of iterations =  2.0

     total cpu time spent up to now is       95.7 secs

     total energy              =    -329.49336230 Ry
     Harris-Foulkes estimate   =    -329.49336251 Ry
     estimated scf accuracy    <       0.00000012 Ry

     iteration #  6     ecut=    30.00 Ry     beta=0.70
     Davidson diagonalization with overlap
     ethr =  2.12E-10,  avg # of iterations =  2.0

     total cpu time spent up to now is       96.0 secs

     total energy              =    -329.49336228 Ry
     Harris-Foulkes estimate   =    -329.49336233 Ry
     estimated scf accuracy    <       0.00000002 Ry

     iteration #  7     ecut=    30.00 Ry     beta=0.70
     Davidson diagonalization with overlap
     ethr =  4.17E-11,  avg # of iterations =  2.0

     total cpu time spent up to now is       96.2 secs

     total energy              =    -329.49336235 Ry
     Harris-Foulkes estimate   =    -329.49336229 Ry
     estimated scf accuracy    <          5.1E-09 Ry

     iteration #  8     ecut=    30.00 Ry     beta=0.70
     Davidson diagonalization with overlap
     ethr =  9.31E-12,  avg # of iterations =  2.0

     total cpu time spent up to now is       96.5 secs

     total energy              =    -329.49336237 Ry
     Harris-Foulkes estimate   =    -329.49336235 Ry
     estimated scf accuracy    <          1.1E-09 Ry

     iteration #  9     ecut=    30.00 Ry     beta=0.70
     Davidson diagonalization with overlap
     ethr =  2.07E-12,  avg # of iterations =  2.0

     total cpu time spent up to now is       96.8 secs

     total energy              =    -329.49336238 Ry
     Harris-Foulkes estimate   =    -329.49336237 Ry
     estimated scf accuracy    <          1.6E-10 Ry

     iteration # 10     ecut=    30.00 Ry     beta=0.70
     Davidson diagonalization with overlap
     ethr =  2.85E-13,  avg # of iterations =  2.0

     total cpu time spent up to now is       97.1 secs

     End of self-consistent calculation

          k = 0.0000 0.0000 0.0000 ( 22119 PWs)   bands (ev):

    -8.5221  -7.7914  -7.6632  -7.2376  -6.8467  -6.8220  -6.6105  -6.4870
    -6.3087  -6.0848  -5.9473  -5.7697  -5.7289  -5.6860  -5.4664  -5.3517
    -5.3111  -5.2524  -5.2008  -5.1796  -5.1682  -5.1193  -5.0013  -4.9272
    -4.8322  -4.7322  -4.4830  -3.7689  -2.4331  -2.2077  -0.5369  -0.1735
     0.4606   0.8031

     the Fermi energy is    -3.7346 ev

!    total energy              =    -329.49336237 Ry
     Harris-Foulkes estimate   =    -329.49336238 Ry
     estimated scf accuracy    <          1.9E-11 Ry

     The total energy is the sum of the following terms:

     one-electron contribution =    -607.28396743 Ry
     hartree contribution      =     325.07206825 Ry
     xc contribution           =     -51.40021939 Ry
     ewald contribution        =       4.12349494 Ry
     smearing contrib. (-TS)   =      -0.00473874 Ry

     convergence has been achieved in  10 iterations

     Forces acting on atoms (Ry/au):

     atom    1 type  1   force =    -0.00060348    0.00029012    0.00006854
     atom    2 type  1   force =    -0.00019764    0.00034366   -0.00035572
     atom    3 type  1   force =    -0.00065434   -0.00065152   -0.00062750
     atom    4 type  1   force =     0.00008757    0.00049178    0.00088941
     atom    5 type  1   force =     0.00136790   -0.00047403    0.00002527

     Total force =     0.002263     Total SCF correction =     0.000017

     number of scf cycles    =  25
     number of bfgs steps    =  24

     energy   old            =    -329.4933373930 Ry
     energy   new            =    -329.4933623677 Ry

     CASE: energy  _new < energy  _old

     new trust radius        =       0.0191098231 bohr
     new conv_thr            =            1.0E-10 Ry


ATOMIC_POSITIONS (bohr)
Au      -1.619993000   2.223807495  -1.163163212
Au      -0.814437321   4.132697880   3.577624481
Au       3.008351076   1.583714620   0.769707963
Au       3.842064628   3.551234890   5.780257220
Au       7.454940617   1.030441115   3.085008547



     Writing output data file pwscf.save
     Check: negative starting charge=   -0.006375
     NEW-OLD atomic charge density approx. for the potential
     Check: negative starting charge=   -0.006373

     negative rho (up, down):  4.544E-05 0.000E+00

     total cpu time spent up to now is       97.3 secs

     per-process dynamical memory:    50.7 Mb

     Self-consistent Calculation

     iteration #  1     ecut=    30.00 Ry     beta=0.70
     Davidson diagonalization with overlap
     ethr =  1.00E-06,  avg # of iterations =  4.0

     negative rho (up, down):  1.404E-07 0.000E+00

     total cpu time spent up to now is       97.8 secs

     total energy              =    -329.49335777 Ry
     Harris-Foulkes estimate   =    -329.49337955 Ry
     estimated scf accuracy    <       0.00005909 Ry

     iteration #  2     ecut=    30.00 Ry     beta=0.70
     Davidson diagonalization with overlap
     ethr =  1.07E-07,  avg # of iterations =  2.0

     total cpu time spent up to now is       98.1 secs

     total energy              =    -329.49336661 Ry
     Harris-Foulkes estimate   =    -329.49339334 Ry
     estimated scf accuracy    <       0.00005597 Ry

     iteration #  3     ecut=    30.00 Ry     beta=0.70
     Davidson diagonalization with overlap
     ethr =  1.02E-07,  avg # of iterations =  2.0

     total cpu time spent up to now is       98.3 secs

     total energy              =    -329.49337723 Ry
     Harris-Foulkes estimate   =    -329.49338009 Ry
     estimated scf accuracy    <       0.00000493 Ry

     iteration #  4     ecut=    30.00 Ry     beta=0.70
     Davidson diagonalization with overlap
     ethr =  8.96E-09,  avg # of iterations =  2.0

     total cpu time spent up to now is       98.6 secs

     total energy              =    -329.49337800 Ry
     Harris-Foulkes estimate   =    -329.49338034 Ry
     estimated scf accuracy    <       0.00000660 Ry

     iteration #  5     ecut=    30.00 Ry     beta=0.70
     Davidson diagonalization with overlap
     ethr =  8.96E-09,  avg # of iterations =  2.0

     total cpu time spent up to now is       98.9 secs

     total energy              =    -329.49337884 Ry
     Harris-Foulkes estimate   =    -329.49337909 Ry
     estimated scf accuracy    <       0.00000011 Ry

     iteration #  6     ecut=    30.00 Ry     beta=0.70
     Davidson diagonalization with overlap
     ethr =  1.95E-10,  avg # of iterations =  3.0

     total cpu time spent up to now is       99.2 secs

     total energy              =    -329.49337883 Ry
     Harris-Foulkes estimate   =    -329.49337890 Ry
     estimated scf accuracy    <       0.00000004 Ry

     iteration #  7     ecut=    30.00 Ry     beta=0.70
     Davidson diagonalization with overlap
     ethr =  7.14E-11,  avg # of iterations =  2.0

     total cpu time spent up to now is       99.4 secs

     total energy              =    -329.49337882 Ry
     Harris-Foulkes estimate   =    -329.49337884 Ry
     estimated scf accuracy    <          7.5E-09 Ry

     iteration #  8     ecut=    30.00 Ry     beta=0.70
     Davidson diagonalization with overlap
     ethr =  1.36E-11,  avg # of iterations =  2.0

     total cpu time spent up to now is       99.7 secs

     total energy              =    -329.49337878 Ry
     Harris-Foulkes estimate   =    -329.49337883 Ry
     estimated scf accuracy    <          1.1E-09 Ry

     iteration #  9     ecut=    30.00 Ry     beta=0.70
     Davidson diagonalization with overlap
     ethr =  1.95E-12,  avg # of iterations =  2.0

     total cpu time spent up to now is      100.1 secs

     total energy              =    -329.49337878 Ry
     Harris-Foulkes estimate   =    -329.49337878 Ry
     estimated scf accuracy    <          1.9E-10 Ry

     iteration # 10     ecut=    30.00 Ry     beta=0.70
     Davidson diagonalization with overlap
     ethr =  3.50E-13,  avg # of iterations =  2.0

     total cpu time spent up to now is      100.3 secs

     End of self-consistent calculation

          k = 0.0000 0.0000 0.0000 ( 22119 PWs)   bands (ev):

    -8.5176  -7.7857  -7.6600  -7.2329  -6.8444  -6.8192  -6.6059  -6.4838
    -6.3068  -6.0835  -5.9445  -5.7691  -5.7279  -5.6849  -5.4649  -5.3517
    -5.3113  -5.2521  -5.2016  -5.1782  -5.1686  -5.1199  -5.0012  -4.9281
    -4.8327  -4.7333  -4.4837  -3.7708  -2.4338  -2.2090  -0.5356  -0.1740
     0.4616   0.8030

     the Fermi energy is    -3.7366 ev

!    total energy              =    -329.49337879 Ry
     Harris-Foulkes estimate   =    -329.49337878 Ry
     estimated scf accuracy    <          3.8E-11 Ry

     The total energy is the sum of the following terms:

     one-electron contribution =    -606.99371191 Ry
     hartree contribution      =     324.92884866 Ry
     xc contribution           =     -51.39917543 Ry
     ewald contribution        =       3.97536459 Ry
     smearing contrib. (-TS)   =      -0.00470471 Ry

     convergence has been achieved in  10 iterations

     Forces acting on atoms (Ry/au):

     atom    1 type  1   force =    -0.00052538    0.00038669   -0.00015447
     atom    2 type  1   force =    -0.00010856    0.00017549   -0.00061123
     atom    3 type  1   force =    -0.00007371   -0.00059415    0.00017184
     atom    4 type  1   force =     0.00019819    0.00005304    0.00042949
     atom    5 type  1   force =     0.00050946   -0.00002108    0.00016437

     Total force =     0.001329     Total SCF correction =     0.000023

     bfgs converged in  26 scf cycles and  25 bfgs steps
     (criteria: energy <  1.0E-04, force <  1.0E-03)

     End of BFGS Geometry Optimization

     Final energy   =    -329.4933787926 Ry
Begin final coordinates

ATOMIC_POSITIONS (bohr)
Au      -1.619993000   2.223807495  -1.163163212
Au      -0.814437321   4.132697880   3.577624481
Au       3.008351076   1.583714620   0.769707963
Au       3.842064628   3.551234890   5.780257220
Au       7.454940617   1.030441115   3.085008547
End final coordinates



     Writing output data file pwscf.save
 
     init_run     :      0.34s CPU      0.37s WALL (       1 calls)
     electrons    :     87.68s CPU     92.63s WALL (      26 calls)
     update_pot   :      2.62s CPU      3.37s WALL (      25 calls)
     forces       :      1.34s CPU      1.36s WALL (      26 calls)

     Called by init_run:
     wfcinit      :      0.13s CPU      0.15s WALL (       1 calls)
     potinit      :      0.07s CPU      0.07s WALL (       1 calls)

     Called by electrons:
     c_bands      :     65.31s CPU     66.64s WALL (     269 calls)
     sum_band     :      8.55s CPU      8.75s WALL (     269 calls)
     v_of_rho     :      7.56s CPU      7.71s WALL (     278 calls)
     mix_rho      :      3.81s CPU      5.52s WALL (     269 calls)

     Called by c_bands:
     init_us_2    :      0.85s CPU      0.87s WALL (     539 calls)
     cegterg      :     59.84s CPU     60.99s WALL (     269 calls)

     Called by sum_band:

     Called by *egterg:
     h_psi        :     43.97s CPU     44.78s WALL (     891 calls)
     g_psi        :      0.30s CPU      0.30s WALL (     621 calls)
     cdiaghg      :      4.17s CPU      4.26s WALL (     848 calls)

     Called by h_psi:
     h_psi:pot    :     43.54s CPU     44.35s WALL (     891 calls)
     h_psi:calbec :      4.07s CPU      4.18s WALL (     891 calls)
     vloc_psi     :     37.67s CPU     38.35s WALL (     891 calls)
     add_vuspsi   :      1.81s CPU      1.81s WALL (     891 calls)

     General routines
     calbec       :      4.46s CPU      4.59s WALL (     995 calls)
     fft          :      5.10s CPU      5.23s WALL (    3143 calls)
     fftw         :     41.09s CPU     42.06s WALL (   59196 calls)
     davcio       :      0.38s CPU      1.78s WALL (    2633 calls)
 
     Parallel routines
     fft_scatter  :     22.51s CPU     22.93s WALL (   62339 calls)
 
     PWSCF        :  1m33.66s CPU     1m40.61s WALL

 
   This run was terminated on:   1: 3:40  29Jul2017            

=------------------------------------------------------------------------------=
   JOB DONE.
=------------------------------------------------------------------------------=
