
     Program PWSCF v.6.0 (svn rev. 13079) starts on 29Jul2017 at  1:10:36 

     This program is part of the open-source Quantum ESPRESSO suite
     for quantum simulation of materials; please cite
         "P. Giannozzi et al., J. Phys.:Condens. Matter 21 395502 (2009);
          URL http://www.quantum-espresso.org", 
     in publications or presentations arising from this work. More details at
     http://www.quantum-espresso.org/quote

     Parallel version (MPI), running on    10 processors
     R & G space division:  proc/nbgrp/npool/nimage =      10
     Reading input from input/dftmin-Gold5-multi-12.in

     Current dimensions of program PWSCF are:
     Max number of different atomic species (ntypx) = 10
     Max number of k-points (npk) =  40000
     Max angular momentum in pseudopotentials (lmaxx) =  3
     Message from routine iosys:
     pot_extrapolation='second-order' not available, using 'atomic'
     Message from routine iosys:
     wfc_extrapolation='second-order' not available, using 'atomic'

     Subspace diagonalization in iterative solution of the eigenvalue problem:
     a serial algorithm will be used

 
     Parallelization info
     --------------------
     sticks:   dense  smooth     PW     G-vecs:    dense   smooth      PW
     Min         380     380     94                17748    17748    2208
     Max         381     381     95                17753    17753    2213
     Sum        3809    3809    949               177509   177509   22119
 


     bravais-lattice index     =            1
     lattice parameter (alat)  =      20.0000  a.u.
     unit-cell volume          =    8000.0000 (a.u.)^3
     number of atoms/cell      =            5
     number of atomic types    =            1
     number of electrons       =        55.00
     number of Kohn-Sham states=           34
     kinetic-energy cutoff     =      30.0000  Ry
     charge density cutoff     =     120.0000  Ry
     convergence threshold     =      1.0E-08
     mixing beta               =       0.7000
     number of iterations used =            8  plain     mixing
     Exchange-correlation      = BLYP ( 1  3  1  3 0 0)
     nstep                     =           50


     celldm(1)=  20.000000  celldm(2)=   0.000000  celldm(3)=   0.000000
     celldm(4)=   0.000000  celldm(5)=   0.000000  celldm(6)=   0.000000

     crystal axes: (cart. coord. in units of alat)
               a(1) = (   1.000000   0.000000   0.000000 )  
               a(2) = (   0.000000   1.000000   0.000000 )  
               a(3) = (   0.000000   0.000000   1.000000 )  

     reciprocal axes: (cart. coord. in units 2 pi/alat)
               b(1) = (  1.000000  0.000000  0.000000 )  
               b(2) = (  0.000000  1.000000  0.000000 )  
               b(3) = (  0.000000  0.000000  1.000000 )  


     PseudoPot. # 1 for Au read from file:
     ./Au.blyp-d-hgh.UPF
     MD5 check sum: c10d8bae01f806c36a1643a1c69a8479
     Pseudo is Norm-conserving, Zval = 11.0
     Generated in analytical, separable form
     Using radial grid of 1279 points,  6 beta functions with: 
                l(1) =   0
                l(2) =   0
                l(3) =   1
                l(4) =   1
                l(5) =   2
                l(6) =   2

     atomic species   valence    mass     pseudopotential
        Au            11.00    28.08600     Au( 1.00)

     No symmetry found



   Cartesian axes

     site n.     atom                  positions (alat units)
         1           Au  tau(   1) = (  -0.0517084   0.0103292   0.0162024  )
         2           Au  tau(   2) = (   0.0314350   0.1776823   0.2000880  )
         3           Au  tau(   3) = (   0.1576436   0.1746624   0.0294718  )
         4           Au  tau(   4) = (   0.2415009   0.2300835   0.2872635  )
         5           Au  tau(   5) = (   0.2536233  -0.0053522   0.2173100  )

     number of k points=     1  Marzari-Vanderbilt smearing, width (Ry)=  0.0250
                       cart. coord. in units 2pi/alat
        k(    1) = (   0.0000000   0.0000000   0.0000000), wk =   2.0000000

     Dense  grid:   177509 G-vectors     FFT dimensions: (  72,  72,  72)

     Estimated max dynamical RAM per process >      15.04Mb

     Estimated total allocated dynamical RAM >     150.39Mb

     Initial potential from superposition of free atoms
     Check: negative starting charge=   -0.006243

     starting charge   54.99940, renormalised to   55.00000

     negative rho (up, down):  6.243E-03 0.000E+00
     Starting wfc are   45 randomized atomic wfcs

     total cpu time spent up to now is        0.5 secs

     per-process dynamical memory:    41.0 Mb

     Self-consistent Calculation

     iteration #  1     ecut=    30.00 Ry     beta=0.70
     Davidson diagonalization with overlap
     ethr =  1.00E-02,  avg # of iterations =  3.0

     Threshold (ethr) on eigenvalues was too large:
     Diagonalizing with lowered threshold

     Davidson diagonalization with overlap
     ethr =  6.13E-04,  avg # of iterations =  2.0

     negative rho (up, down):  7.339E-04 0.000E+00

     total cpu time spent up to now is        1.1 secs

     total energy              =    -329.11936901 Ry
     Harris-Foulkes estimate   =    -329.36341867 Ry
     estimated scf accuracy    <       0.38190289 Ry

     iteration #  2     ecut=    30.00 Ry     beta=0.70
     Davidson diagonalization with overlap
     ethr =  6.94E-04,  avg # of iterations =  5.0

     negative rho (up, down):  3.740E-04 0.000E+00

     total cpu time spent up to now is        1.4 secs

     total energy              =    -329.14219906 Ry
     Harris-Foulkes estimate   =    -329.42946223 Ry
     estimated scf accuracy    <       0.65866568 Ry

     iteration #  3     ecut=    30.00 Ry     beta=0.70
     Davidson diagonalization with overlap
     ethr =  6.94E-04,  avg # of iterations =  2.0

     negative rho (up, down):  1.453E-04 0.000E+00

     total cpu time spent up to now is        1.7 secs

     total energy              =    -329.26271603 Ry
     Harris-Foulkes estimate   =    -329.30896264 Ry
     estimated scf accuracy    <       0.12525359 Ry

     iteration #  4     ecut=    30.00 Ry     beta=0.70
     Davidson diagonalization with overlap
     ethr =  2.28E-04,  avg # of iterations =  2.0

     negative rho (up, down):  2.625E-05 0.000E+00

     total cpu time spent up to now is        2.0 secs

     total energy              =    -329.28226351 Ry
     Harris-Foulkes estimate   =    -329.28423689 Ry
     estimated scf accuracy    <       0.00478304 Ry

     iteration #  5     ecut=    30.00 Ry     beta=0.70
     Davidson diagonalization with overlap
     ethr =  8.70E-06,  avg # of iterations =  5.0

     negative rho (up, down):  8.186E-07 0.000E+00

     total cpu time spent up to now is        2.3 secs

     total energy              =    -329.28327058 Ry
     Harris-Foulkes estimate   =    -329.28448994 Ry
     estimated scf accuracy    <       0.00313170 Ry

     iteration #  6     ecut=    30.00 Ry     beta=0.70
     Davidson diagonalization with overlap
     ethr =  5.69E-06,  avg # of iterations =  2.0

     total cpu time spent up to now is        2.6 secs

     total energy              =    -329.28376606 Ry
     Harris-Foulkes estimate   =    -329.28430572 Ry
     estimated scf accuracy    <       0.00150166 Ry

     iteration #  7     ecut=    30.00 Ry     beta=0.70
     Davidson diagonalization with overlap
     ethr =  2.73E-06,  avg # of iterations =  2.0

     total cpu time spent up to now is        2.8 secs

     total energy              =    -329.28404534 Ry
     Harris-Foulkes estimate   =    -329.28413060 Ry
     estimated scf accuracy    <       0.00024155 Ry

     iteration #  8     ecut=    30.00 Ry     beta=0.70
     Davidson diagonalization with overlap
     ethr =  4.39E-07,  avg # of iterations =  2.0

     total cpu time spent up to now is        3.1 secs

     total energy              =    -329.28408571 Ry
     Harris-Foulkes estimate   =    -329.28409151 Ry
     estimated scf accuracy    <       0.00001091 Ry

     iteration #  9     ecut=    30.00 Ry     beta=0.70
     Davidson diagonalization with overlap
     ethr =  1.98E-08,  avg # of iterations =  3.0

     total cpu time spent up to now is        3.4 secs

     total energy              =    -329.28408839 Ry
     Harris-Foulkes estimate   =    -329.28409026 Ry
     estimated scf accuracy    <       0.00000364 Ry

     iteration # 10     ecut=    30.00 Ry     beta=0.70
     Davidson diagonalization with overlap
     ethr =  6.61E-09,  avg # of iterations =  2.0

     total cpu time spent up to now is        3.7 secs

     total energy              =    -329.28408927 Ry
     Harris-Foulkes estimate   =    -329.28408956 Ry
     estimated scf accuracy    <       0.00000092 Ry

     iteration # 11     ecut=    30.00 Ry     beta=0.70
     Davidson diagonalization with overlap
     ethr =  1.68E-09,  avg # of iterations =  2.0

     total cpu time spent up to now is        4.0 secs

     total energy              =    -329.28408940 Ry
     Harris-Foulkes estimate   =    -329.28408946 Ry
     estimated scf accuracy    <       0.00000005 Ry

     iteration # 12     ecut=    30.00 Ry     beta=0.70
     Davidson diagonalization with overlap
     ethr =  8.95E-11,  avg # of iterations =  3.0

     total cpu time spent up to now is        4.3 secs

     total energy              =    -329.28408941 Ry
     Harris-Foulkes estimate   =    -329.28408942 Ry
     estimated scf accuracy    <       0.00000001 Ry

     iteration # 13     ecut=    30.00 Ry     beta=0.70
     Davidson diagonalization with overlap
     ethr =  1.94E-11,  avg # of iterations =  2.0

     total cpu time spent up to now is        4.5 secs

     End of self-consistent calculation

          k = 0.0000 0.0000 0.0000 ( 22119 PWs)   bands (ev):

    -9.7377  -9.0810  -8.5436  -8.2177  -7.6584  -7.3009  -6.9573  -6.8108
    -6.7103  -6.1051  -5.9939  -5.9706  -5.7928  -5.4392  -5.3195  -5.2161
    -5.2049  -5.1846  -5.1208  -5.0419  -5.0193  -4.9861  -4.9099  -4.8252
    -4.7127  -4.2996  -4.1835  -3.2619  -2.9323  -2.1780  -0.1993   0.1566
     0.3008   0.5759

     the Fermi energy is    -3.2365 ev

!    total energy              =    -329.28408939 Ry
     Harris-Foulkes estimate   =    -329.28408941 Ry
     estimated scf accuracy    <          2.4E-09 Ry

     The total energy is the sum of the following terms:

     one-electron contribution =    -659.02461918 Ry
     hartree contribution      =     350.74196627 Ry
     xc contribution           =     -51.58783782 Ry
     ewald contribution        =      30.59662353 Ry
     smearing contrib. (-TS)   =      -0.01022218 Ry

     convergence has been achieved in  13 iterations

     Forces acting on atoms (Ry/au):

     atom    1 type  1   force =    -0.00134692    0.00696256   -0.00264416
     atom    2 type  1   force =    -0.30403208   -0.01675476    0.22760678
     atom    3 type  1   force =     0.19276257   -0.01361109   -0.28379115
     atom    4 type  1   force =     0.09904266    0.06242229    0.06529904
     atom    5 type  1   force =     0.01357377   -0.03901900   -0.00647051

     Total force =     0.531203     Total SCF correction =     0.000202

     BFGS Geometry Optimization

     number of scf cycles    =   1
     number of bfgs steps    =   0

     energy   new            =    -329.2840893873 Ry

     new trust radius        =       0.3801592774 bohr
     new conv_thr            =       0.0000000100 Ry


ATOMIC_POSITIONS (bohr)
Au      -1.035514917   0.213547556   0.321403842
Au       0.324668917   3.536892244   4.229366782
Au       3.345633574   3.479637911   0.305644848
Au       4.929060659   4.664091285   5.810570038
Au       5.086038768  -0.146062997   4.339730490



     Writing output data file pwscf.save
     Check: negative starting charge=   -0.006243
     NEW-OLD atomic charge density approx. for the potential
     Check: negative starting charge=   -0.005975

     negative rho (up, down):  8.238E-03 0.000E+00

     total cpu time spent up to now is        4.8 secs

     per-process dynamical memory:    42.9 Mb

     Self-consistent Calculation

     iteration #  1     ecut=    30.00 Ry     beta=0.70
     Davidson diagonalization with overlap
     ethr =  1.00E-06,  avg # of iterations = 13.0

     negative rho (up, down):  8.834E-04 0.000E+00

     total cpu time spent up to now is        5.6 secs

     total energy              =    -328.12529454 Ry
     Harris-Foulkes estimate   =    -329.98656826 Ry
     estimated scf accuracy    <       0.14083787 Ry

     iteration #  2     ecut=    30.00 Ry     beta=0.70
     Davidson diagonalization with overlap
     ethr =  2.56E-04,  avg # of iterations =  4.0

     negative rho (up, down):  6.052E-04 0.000E+00

     total cpu time spent up to now is        5.9 secs

     total energy              =    -329.26362388 Ry
     Harris-Foulkes estimate   =    -329.58994174 Ry
     estimated scf accuracy    <       1.29016869 Ry

     iteration #  3     ecut=    30.00 Ry     beta=0.70
     Davidson diagonalization with overlap
     ethr =  2.56E-04,  avg # of iterations =  3.0

     negative rho (up, down):  3.279E-04 0.000E+00

     total cpu time spent up to now is        6.3 secs

     total energy              =    -329.39344545 Ry
     Harris-Foulkes estimate   =    -329.45773890 Ry
     estimated scf accuracy    <       0.06102992 Ry

     iteration #  4     ecut=    30.00 Ry     beta=0.70
     Davidson diagonalization with overlap
     ethr =  1.11E-04,  avg # of iterations =  3.0

     negative rho (up, down):  2.154E-04 0.000E+00

     total cpu time spent up to now is        6.5 secs

     total energy              =    -329.40823830 Ry
     Harris-Foulkes estimate   =    -329.41095628 Ry
     estimated scf accuracy    <       0.01656350 Ry

     iteration #  5     ecut=    30.00 Ry     beta=0.70
     Davidson diagonalization with overlap
     ethr =  3.01E-05,  avg # of iterations =  1.0

     negative rho (up, down):  1.119E-04 0.000E+00

     total cpu time spent up to now is        6.8 secs

     total energy              =    -329.40869010 Ry
     Harris-Foulkes estimate   =    -329.40949692 Ry
     estimated scf accuracy    <       0.00887240 Ry

     iteration #  6     ecut=    30.00 Ry     beta=0.70
     Davidson diagonalization with overlap
     ethr =  1.61E-05,  avg # of iterations =  3.0

     negative rho (up, down):  1.299E-05 0.000E+00

     total cpu time spent up to now is        7.0 secs

     total energy              =    -329.40850180 Ry
     Harris-Foulkes estimate   =    -329.40916405 Ry
     estimated scf accuracy    <       0.00540455 Ry

     iteration #  7     ecut=    30.00 Ry     beta=0.70
     Davidson diagonalization with overlap
     ethr =  9.83E-06,  avg # of iterations =  4.0

     total cpu time spent up to now is        7.2 secs

     total energy              =    -329.40806131 Ry
     Harris-Foulkes estimate   =    -329.40887514 Ry
     estimated scf accuracy    <       0.00120925 Ry

     iteration #  8     ecut=    30.00 Ry     beta=0.70
     Davidson diagonalization with overlap
     ethr =  2.20E-06,  avg # of iterations =  4.0

     total cpu time spent up to now is        7.6 secs

     total energy              =    -329.40799236 Ry
     Harris-Foulkes estimate   =    -329.40824715 Ry
     estimated scf accuracy    <       0.00035005 Ry

     iteration #  9     ecut=    30.00 Ry     beta=0.70
     Davidson diagonalization with overlap
     ethr =  6.36E-07,  avg # of iterations =  2.0

     total cpu time spent up to now is        7.8 secs

     total energy              =    -329.40797096 Ry
     Harris-Foulkes estimate   =    -329.40805091 Ry
     estimated scf accuracy    <       0.00003732 Ry

     iteration # 10     ecut=    30.00 Ry     beta=0.70
     Davidson diagonalization with overlap
     ethr =  6.79E-08,  avg # of iterations =  2.0

     total cpu time spent up to now is        8.1 secs

     total energy              =    -329.40797186 Ry
     Harris-Foulkes estimate   =    -329.40797835 Ry
     estimated scf accuracy    <       0.00000403 Ry

     iteration # 11     ecut=    30.00 Ry     beta=0.70
     Davidson diagonalization with overlap
     ethr =  7.33E-09,  avg # of iterations =  2.0

     total cpu time spent up to now is        8.3 secs

     total energy              =    -329.40797229 Ry
     Harris-Foulkes estimate   =    -329.40797293 Ry
     estimated scf accuracy    <       0.00000088 Ry

     iteration # 12     ecut=    30.00 Ry     beta=0.70
     Davidson diagonalization with overlap
     ethr =  1.59E-09,  avg # of iterations =  2.0

     total cpu time spent up to now is        8.6 secs

     total energy              =    -329.40797237 Ry
     Harris-Foulkes estimate   =    -329.40797253 Ry
     estimated scf accuracy    <       0.00000016 Ry

     iteration # 13     ecut=    30.00 Ry     beta=0.70
     Davidson diagonalization with overlap
     ethr =  2.99E-10,  avg # of iterations =  2.0

     total cpu time spent up to now is        8.9 secs

     total energy              =    -329.40797237 Ry
     Harris-Foulkes estimate   =    -329.40797244 Ry
     estimated scf accuracy    <       0.00000011 Ry

     iteration # 14     ecut=    30.00 Ry     beta=0.70
     Davidson diagonalization with overlap
     ethr =  1.92E-10,  avg # of iterations =  2.0

     total cpu time spent up to now is        9.2 secs

     total energy              =    -329.40797238 Ry
     Harris-Foulkes estimate   =    -329.40797240 Ry
     estimated scf accuracy    <       0.00000002 Ry

     iteration # 15     ecut=    30.00 Ry     beta=0.70
     Davidson diagonalization with overlap
     ethr =  3.15E-11,  avg # of iterations =  2.0

     total cpu time spent up to now is        9.4 secs

     End of self-consistent calculation

          k = 0.0000 0.0000 0.0000 ( 22119 PWs)   bands (ev):

    -8.5304  -7.7996  -7.4479  -7.3671  -6.9564  -6.8364  -6.6040  -6.4922
    -6.2697  -6.0832  -5.8682  -5.8313  -5.7700  -5.4996  -5.3935  -5.2993
    -5.2815  -5.2375  -5.1501  -5.1196  -5.0822  -5.0073  -4.9647  -4.9529
    -4.7773  -4.5811  -4.2418  -3.3385  -3.1422  -2.3208  -0.2152   0.0420
     0.2941   0.4029

     the Fermi energy is    -3.3449 ev

!    total energy              =    -329.40797237 Ry
     Harris-Foulkes estimate   =    -329.40797238 Ry
     estimated scf accuracy    <          4.4E-09 Ry

     The total energy is the sum of the following terms:

     one-electron contribution =    -623.21252082 Ry
     hartree contribution      =     333.11888187 Ry
     xc contribution           =     -51.37717960 Ry
     ewald contribution        =      12.07521103 Ry
     smearing contrib. (-TS)   =      -0.01236485 Ry

     convergence has been achieved in  15 iterations

     Forces acting on atoms (Ry/au):

     atom    1 type  1   force =     0.01068577    0.02071588    0.00477776
     atom    2 type  1   force =    -0.03967928   -0.01330961    0.00637336
     atom    3 type  1   force =     0.00878457   -0.02332564   -0.01302949
     atom    4 type  1   force =     0.01954539    0.01758353    0.01220235
     atom    5 type  1   force =     0.00066355   -0.00166414   -0.01032398

     Total force =     0.064026     Total SCF correction =     0.000178

     number of scf cycles    =   2
     number of bfgs steps    =   1

     energy   old            =    -329.2840893873 Ry
     energy   new            =    -329.4079723655 Ry

     CASE: energy  _new < energy  _old

     new trust radius        =       0.0491433509 bohr
     new conv_thr            =       0.0000000040 Ry


ATOMIC_POSITIONS (bohr)
Au      -1.023868985   0.236211126   0.326592502
Au       0.278639245   3.522220588   4.238371264
Au       3.356954646   3.454067192   0.288872254
Au       4.951277073   4.683837298   5.824471162
Au       5.086885021  -0.148230204   4.328408817



     Writing output data file pwscf.save
     Check: negative starting charge=   -0.005975
     NEW-OLD atomic charge density approx. for the potential
     Check: negative starting charge=   -0.005960

     negative rho (up, down):  4.194E-04 0.000E+00

     total cpu time spent up to now is        9.7 secs

     per-process dynamical memory:    50.7 Mb

     Self-consistent Calculation

     iteration #  1     ecut=    30.00 Ry     beta=0.70
     Davidson diagonalization with overlap
     ethr =  1.00E-06,  avg # of iterations =  5.0

     negative rho (up, down):  1.627E-05 0.000E+00

     total cpu time spent up to now is       10.2 secs

     total energy              =    -329.41157056 Ry
     Harris-Foulkes estimate   =    -329.41166606 Ry
     estimated scf accuracy    <       0.00063146 Ry

     iteration #  2     ecut=    30.00 Ry     beta=0.70
     Davidson diagonalization with overlap
     ethr =  1.15E-06,  avg # of iterations =  4.0

     negative rho (up, down):  7.135E-06 0.000E+00

     total cpu time spent up to now is       10.5 secs

     total energy              =    -329.41131258 Ry
     Harris-Foulkes estimate   =    -329.41250034 Ry
     estimated scf accuracy    <       0.00364989 Ry

     iteration #  3     ecut=    30.00 Ry     beta=0.70
     Davidson diagonalization with overlap
     ethr =  1.15E-06,  avg # of iterations =  3.0

     negative rho (up, down):  5.041E-08 0.000E+00

     total cpu time spent up to now is       10.9 secs

     total energy              =    -329.41189190 Ry
     Harris-Foulkes estimate   =    -329.41190697 Ry
     estimated scf accuracy    <       0.00005811 Ry

     iteration #  4     ecut=    30.00 Ry     beta=0.70
     Davidson diagonalization with overlap
     ethr =  1.06E-07,  avg # of iterations =  2.0

     total cpu time spent up to now is       11.1 secs

     total energy              =    -329.41189330 Ry
     Harris-Foulkes estimate   =    -329.41191372 Ry
     estimated scf accuracy    <       0.00005895 Ry

     iteration #  5     ecut=    30.00 Ry     beta=0.70
     Davidson diagonalization with overlap
     ethr =  1.06E-07,  avg # of iterations =  2.0

     total cpu time spent up to now is       11.3 secs

     total energy              =    -329.41190237 Ry
     Harris-Foulkes estimate   =    -329.41190780 Ry
     estimated scf accuracy    <       0.00001812 Ry

     iteration #  6     ecut=    30.00 Ry     beta=0.70
     Davidson diagonalization with overlap
     ethr =  3.29E-08,  avg # of iterations =  1.0

     total cpu time spent up to now is       11.6 secs

     total energy              =    -329.41190457 Ry
     Harris-Foulkes estimate   =    -329.41190524 Ry
     estimated scf accuracy    <       0.00000085 Ry

     iteration #  7     ecut=    30.00 Ry     beta=0.70
     Davidson diagonalization with overlap
     ethr =  1.54E-09,  avg # of iterations =  3.0

     total cpu time spent up to now is       11.9 secs

     total energy              =    -329.41190465 Ry
     Harris-Foulkes estimate   =    -329.41190493 Ry
     estimated scf accuracy    <       0.00000024 Ry

     iteration #  8     ecut=    30.00 Ry     beta=0.70
     Davidson diagonalization with overlap
     ethr =  4.35E-10,  avg # of iterations =  2.0

     total cpu time spent up to now is       12.1 secs

     total energy              =    -329.41190457 Ry
     Harris-Foulkes estimate   =    -329.41190472 Ry
     estimated scf accuracy    <       0.00000004 Ry

     iteration #  9     ecut=    30.00 Ry     beta=0.70
     Davidson diagonalization with overlap
     ethr =  7.60E-11,  avg # of iterations =  2.0

     total cpu time spent up to now is       12.4 secs

     End of self-consistent calculation

          k = 0.0000 0.0000 0.0000 ( 22119 PWs)   bands (ev):

    -8.4396  -7.7551  -7.3542  -7.2789  -6.9119  -6.7747  -6.5932  -6.4914
    -6.2477  -6.0800  -5.8509  -5.7978  -5.7709  -5.5117  -5.4005  -5.3043
    -5.2998  -5.2391  -5.1513  -5.1217  -5.0944  -5.0079  -4.9717  -4.9564
    -4.7767  -4.5916  -4.2442  -3.3433  -3.1432  -2.3351  -0.2144   0.0367
     0.2972   0.3932

     the Fermi energy is    -3.3486 ev

!    total energy              =    -329.41190463 Ry
     Harris-Foulkes estimate   =    -329.41190458 Ry
     estimated scf accuracy    <          2.8E-09 Ry

     The total energy is the sum of the following terms:

     one-electron contribution =    -620.92165229 Ry
     hartree contribution      =     331.99630731 Ry
     xc contribution           =     -51.36550973 Ry
     ewald contribution        =      10.89123878 Ry
     smearing contrib. (-TS)   =      -0.01228869 Ry

     convergence has been achieved in   9 iterations

     Forces acting on atoms (Ry/au):

     atom    1 type  1   force =     0.00956473    0.01926163    0.00347977
     atom    2 type  1   force =    -0.02424842   -0.00976319    0.00466339
     atom    3 type  1   force =     0.00530025   -0.02340716   -0.00457040
     atom    4 type  1   force =     0.00913147    0.01051816    0.00645410
     atom    5 type  1   force =     0.00025197    0.00339057   -0.01002686

     Total force =     0.046090     Total SCF correction =     0.000255

     number of scf cycles    =   3
     number of bfgs steps    =   2

     energy   old            =    -329.4079723655 Ry
     energy   new            =    -329.4119046336 Ry

     CASE: energy  _new < energy  _old

     new trust radius        =       0.0540576860 bohr
     new conv_thr            =       0.0000000024 Ry


ATOMIC_POSITIONS (bohr)
Au      -1.006995244   0.270101744   0.332933835
Au       0.228946797   3.504163352   4.249633157
Au       3.369359299   3.413294927   0.275367360
Au       4.970985482   4.704654938   5.837931150
Au       5.087590666  -0.144108961   4.310850498



     Writing output data file pwscf.save
     Check: negative starting charge=   -0.005960
     NEW-OLD atomic charge density approx. for the potential
     Check: negative starting charge=   -0.005958

     negative rho (up, down):  6.006E-04 0.000E+00

     total cpu time spent up to now is       12.8 secs

     per-process dynamical memory:    50.7 Mb

     Self-consistent Calculation

     iteration #  1     ecut=    30.00 Ry     beta=0.70
     Davidson diagonalization with overlap
     ethr =  1.00E-06,  avg # of iterations =  5.0

     negative rho (up, down):  2.964E-05 0.000E+00

     total cpu time spent up to now is       13.3 secs

     total energy              =    -329.41477494 Ry
     Harris-Foulkes estimate   =    -329.41483184 Ry
     estimated scf accuracy    <       0.00091704 Ry

     iteration #  2     ecut=    30.00 Ry     beta=0.70
     Davidson diagonalization with overlap
     ethr =  1.67E-06,  avg # of iterations =  4.0

     negative rho (up, down):  1.395E-05 0.000E+00

     total cpu time spent up to now is       13.6 secs

     total energy              =    -329.41441649 Ry
     Harris-Foulkes estimate   =    -329.41609910 Ry
     estimated scf accuracy    <       0.00512069 Ry

     iteration #  3     ecut=    30.00 Ry     beta=0.70
     Davidson diagonalization with overlap
     ethr =  1.67E-06,  avg # of iterations =  3.0

     negative rho (up, down):  1.737E-07 0.000E+00

     total cpu time spent up to now is       14.0 secs

     total energy              =    -329.41523698 Ry
     Harris-Foulkes estimate   =    -329.41526175 Ry
     estimated scf accuracy    <       0.00008722 Ry

     iteration #  4     ecut=    30.00 Ry     beta=0.70
     Davidson diagonalization with overlap
     ethr =  1.59E-07,  avg # of iterations =  2.0

     total cpu time spent up to now is       14.2 secs

     total energy              =    -329.41524224 Ry
     Harris-Foulkes estimate   =    -329.41526730 Ry
     estimated scf accuracy    <       0.00007051 Ry

     iteration #  5     ecut=    30.00 Ry     beta=0.70
     Davidson diagonalization with overlap
     ethr =  1.28E-07,  avg # of iterations =  2.0

     total cpu time spent up to now is       14.4 secs

     total energy              =    -329.41525232 Ry
     Harris-Foulkes estimate   =    -329.41526255 Ry
     estimated scf accuracy    <       0.00003326 Ry

     iteration #  6     ecut=    30.00 Ry     beta=0.70
     Davidson diagonalization with overlap
     ethr =  6.05E-08,  avg # of iterations =  1.0

     total cpu time spent up to now is       14.7 secs

     total energy              =    -329.41525610 Ry
     Harris-Foulkes estimate   =    -329.41525712 Ry
     estimated scf accuracy    <       0.00000120 Ry

     iteration #  7     ecut=    30.00 Ry     beta=0.70
     Davidson diagonalization with overlap
     ethr =  2.18E-09,  avg # of iterations =  3.0

     total cpu time spent up to now is       15.0 secs

     total energy              =    -329.41525660 Ry
     Harris-Foulkes estimate   =    -329.41525665 Ry
     estimated scf accuracy    <       0.00000045 Ry

     iteration #  8     ecut=    30.00 Ry     beta=0.70
     Davidson diagonalization with overlap
     ethr =  8.17E-10,  avg # of iterations =  2.0

     total cpu time spent up to now is       15.2 secs

     total energy              =    -329.41525658 Ry
     Harris-Foulkes estimate   =    -329.41525671 Ry
     estimated scf accuracy    <       0.00000006 Ry

     iteration #  9     ecut=    30.00 Ry     beta=0.70
     Davidson diagonalization with overlap
     ethr =  1.11E-10,  avg # of iterations =  2.0

     total cpu time spent up to now is       15.5 secs

     total energy              =    -329.41525655 Ry
     Harris-Foulkes estimate   =    -329.41525659 Ry
     estimated scf accuracy    <          3.8E-09 Ry

     iteration # 10     ecut=    30.00 Ry     beta=0.70
     Davidson diagonalization with overlap
     ethr =  6.85E-12,  avg # of iterations =  2.0

     total cpu time spent up to now is       15.8 secs

     End of self-consistent calculation

          k = 0.0000 0.0000 0.0000 ( 22119 PWs)   bands (ev):

    -8.3653  -7.7275  -7.2659  -7.1914  -6.8813  -6.7217  -6.6116  -6.4982
    -6.2413  -6.0694  -5.8384  -5.7832  -5.7571  -5.5231  -5.4136  -5.3284
    -5.3030  -5.2380  -5.1508  -5.1227  -5.1061  -5.0044  -4.9830  -4.9534
    -4.7706  -4.5974  -4.2439  -3.3484  -3.1354  -2.3430  -0.2127   0.0297
     0.2993   0.3893

     the Fermi energy is    -3.3500 ev

!    total energy              =    -329.41525648 Ry
     Harris-Foulkes estimate   =    -329.41525655 Ry
     estimated scf accuracy    <          9.4E-10 Ry

     The total energy is the sum of the following terms:

     one-electron contribution =    -619.56910248 Ry
     hartree contribution      =     331.33867800 Ry
     xc contribution           =     -51.35798131 Ry
     ewald contribution        =      10.18519225 Ry
     smearing contrib. (-TS)   =      -0.01204294 Ry

     convergence has been achieved in  10 iterations

     Forces acting on atoms (Ry/au):

     atom    1 type  1   force =     0.00722332    0.01602677    0.00118005
     atom    2 type  1   force =    -0.01168598   -0.00618611    0.00452399
     atom    3 type  1   force =     0.00335618   -0.02233142    0.00188766
     atom    4 type  1   force =     0.00108066    0.00518753    0.00241675
     atom    5 type  1   force =     0.00002582    0.00730323   -0.01000845

     Total force =     0.034737     Total SCF correction =     0.000135

     number of scf cycles    =   4
     number of bfgs steps    =   3

     energy   old            =    -329.4119046336 Ry
     energy   new            =    -329.4152564806 Ry

     CASE: energy  _new < energy  _old

     new trust radius        =       0.0810865290 bohr
     new conv_thr            =       0.0000000022 Ry


ATOMIC_POSITIONS (bohr)
Au      -0.978708212   0.329857807   0.340703227
Au       0.157390826   3.475972576   4.270770227
Au       3.389263931   3.335741769   0.262547904
Au       4.993447516   4.734764350   5.856191308
Au       5.088492939  -0.128230502   4.276503334



     Writing output data file pwscf.save
     Check: negative starting charge=   -0.005958
     NEW-OLD atomic charge density approx. for the potential
     Check: negative starting charge=   -0.005969

     negative rho (up, down):  1.436E-03 0.000E+00

     total cpu time spent up to now is       16.1 secs

     per-process dynamical memory:    50.7 Mb

     Self-consistent Calculation

     iteration #  1     ecut=    30.00 Ry     beta=0.70
     Davidson diagonalization with overlap
     ethr =  1.00E-06,  avg # of iterations =  8.0

     negative rho (up, down):  1.179E-04 0.000E+00

     total cpu time spent up to now is       16.7 secs

     total energy              =    -329.41774539 Ry
     Harris-Foulkes estimate   =    -329.41747669 Ry
     estimated scf accuracy    <       0.00225583 Ry

     iteration #  2     ecut=    30.00 Ry     beta=0.70
     Davidson diagonalization with overlap
     ethr =  4.10E-06,  avg # of iterations =  4.0

     negative rho (up, down):  6.471E-05 0.000E+00

     total cpu time spent up to now is       17.0 secs

     total energy              =    -329.41694867 Ry
     Harris-Foulkes estimate   =    -329.42079297 Ry
     estimated scf accuracy    <       0.01142321 Ry

     iteration #  3     ecut=    30.00 Ry     beta=0.70
     Davidson diagonalization with overlap
     ethr =  4.10E-06,  avg # of iterations =  3.0

     negative rho (up, down):  2.443E-06 0.000E+00

     total cpu time spent up to now is       17.3 secs

     total energy              =    -329.41886017 Ry
     Harris-Foulkes estimate   =    -329.41891583 Ry
     estimated scf accuracy    <       0.00024251 Ry

     iteration #  4     ecut=    30.00 Ry     beta=0.70
     Davidson diagonalization with overlap
     ethr =  4.41E-07,  avg # of iterations =  2.0

     negative rho (up, down):  1.391E-08 0.000E+00

     total cpu time spent up to now is       17.6 secs

     total energy              =    -329.41888322 Ry
     Harris-Foulkes estimate   =    -329.41892952 Ry
     estimated scf accuracy    <       0.00011095 Ry

     iteration #  5     ecut=    30.00 Ry     beta=0.70
     Davidson diagonalization with overlap
     ethr =  2.02E-07,  avg # of iterations =  2.0

     total cpu time spent up to now is       17.8 secs

     total energy              =    -329.41889952 Ry
     Harris-Foulkes estimate   =    -329.41892583 Ry
     estimated scf accuracy    <       0.00009784 Ry

     iteration #  6     ecut=    30.00 Ry     beta=0.70
     Davidson diagonalization with overlap
     ethr =  1.78E-07,  avg # of iterations =  1.0

     total cpu time spent up to now is       18.0 secs

     total energy              =    -329.41891150 Ry
     Harris-Foulkes estimate   =    -329.41891316 Ry
     estimated scf accuracy    <       0.00000314 Ry

     iteration #  7     ecut=    30.00 Ry     beta=0.70
     Davidson diagonalization with overlap
     ethr =  5.71E-09,  avg # of iterations =  3.0

     total cpu time spent up to now is       18.3 secs

     total energy              =    -329.41891181 Ry
     Harris-Foulkes estimate   =    -329.41891293 Ry
     estimated scf accuracy    <       0.00000130 Ry

     iteration #  8     ecut=    30.00 Ry     beta=0.70
     Davidson diagonalization with overlap
     ethr =  2.37E-09,  avg # of iterations =  2.0

     total cpu time spent up to now is       18.6 secs

     total energy              =    -329.41891177 Ry
     Harris-Foulkes estimate   =    -329.41891211 Ry
     estimated scf accuracy    <       0.00000015 Ry

     iteration #  9     ecut=    30.00 Ry     beta=0.70
     Davidson diagonalization with overlap
     ethr =  2.75E-10,  avg # of iterations =  3.0

     total cpu time spent up to now is       18.9 secs

     total energy              =    -329.41891168 Ry
     Harris-Foulkes estimate   =    -329.41891180 Ry
     estimated scf accuracy    <          8.2E-09 Ry

     iteration # 10     ecut=    30.00 Ry     beta=0.70
     Davidson diagonalization with overlap
     ethr =  1.49E-11,  avg # of iterations =  3.0

     total cpu time spent up to now is       19.2 secs

     total energy              =    -329.41891168 Ry
     Harris-Foulkes estimate   =    -329.41891168 Ry
     estimated scf accuracy    <          2.3E-09 Ry

     iteration # 11     ecut=    30.00 Ry     beta=0.70
     Davidson diagonalization with overlap
     ethr =  4.24E-12,  avg # of iterations =  2.0

     total cpu time spent up to now is       19.4 secs

     End of self-consistent calculation

          k = 0.0000 0.0000 0.0000 ( 22119 PWs)   bands (ev):

    -8.2954  -7.7056  -7.1622  -7.0750  -6.8676  -6.6981  -6.6556  -6.5044
    -6.2610  -6.0390  -5.8478  -5.7758  -5.7165  -5.5304  -5.4443  -5.3522
    -5.3115  -5.2320  -5.1475  -5.1218  -5.1149  -4.9986  -4.9927  -4.9436
    -4.7539  -4.6002  -4.2367  -3.3591  -3.1097  -2.3455  -0.2095   0.0172
     0.2951   0.3976

     the Fermi energy is    -3.3512 ev

!    total energy              =    -329.41891165 Ry
     Harris-Foulkes estimate   =    -329.41891168 Ry
     estimated scf accuracy    <          4.0E-10 Ry

     The total energy is the sum of the following terms:

     one-electron contribution =    -618.95962255 Ry
     hartree contribution      =     331.05318771 Ry
     xc contribution           =     -51.35422990 Ry
     ewald contribution        =       9.85304606 Ry
     smearing contrib. (-TS)   =      -0.01129297 Ry

     convergence has been achieved in  11 iterations

     Forces acting on atoms (Ry/au):

     atom    1 type  1   force =     0.00295766    0.00975891   -0.00280466
     atom    2 type  1   force =    -0.00018064   -0.00147634    0.00667064
     atom    3 type  1   force =     0.00377148   -0.01975065    0.00727905
     atom    4 type  1   force =    -0.00682482   -0.00001657   -0.00114147
     atom    5 type  1   force =     0.00027631    0.01148466   -0.01000356

     Total force =     0.029930     Total SCF correction =     0.000082

     number of scf cycles    =   5
     number of bfgs steps    =   4

     energy   old            =    -329.4152564806 Ry
     energy   new            =    -329.4189116535 Ry

     CASE: energy  _new < energy  _old

     new trust radius        =       0.1216297935 bohr
     new conv_thr            =       0.0000000020 Ry


ATOMIC_POSITIONS (bohr)
Au      -0.942894148   0.411264051   0.344623170
Au       0.070155588   3.441369342   4.307534352
Au       3.420542660   3.218432716   0.255197135
Au       5.011732850   4.771084007   5.877214144
Au       5.090350049  -0.094044116   4.222147200



     Writing output data file pwscf.save
     Check: negative starting charge=   -0.005969
     NEW-OLD atomic charge density approx. for the potential
     Check: negative starting charge=   -0.006026

     negative rho (up, down):  2.436E-03 0.000E+00

     total cpu time spent up to now is       19.7 secs

     per-process dynamical memory:    50.7 Mb

     Self-consistent Calculation

     iteration #  1     ecut=    30.00 Ry     beta=0.70
     Davidson diagonalization with overlap
     ethr =  1.00E-06,  avg # of iterations =  9.0

     negative rho (up, down):  2.491E-04 0.000E+00

     total cpu time spent up to now is       20.4 secs

     total energy              =    -329.42008728 Ry
     Harris-Foulkes estimate   =    -329.42031774 Ry
     estimated scf accuracy    <       0.00367418 Ry

     iteration #  2     ecut=    30.00 Ry     beta=0.70
     Davidson diagonalization with overlap
     ethr =  6.68E-06,  avg # of iterations =  5.0

     negative rho (up, down):  1.421E-04 0.000E+00

     total cpu time spent up to now is       20.8 secs

     total energy              =    -329.41907947 Ry
     Harris-Foulkes estimate   =    -329.42449803 Ry
     estimated scf accuracy    <       0.01542749 Ry

     iteration #  3     ecut=    30.00 Ry     beta=0.70
     Davidson diagonalization with overlap
     ethr =  6.68E-06,  avg # of iterations =  3.0

     negative rho (up, down):  8.902E-06 0.000E+00

     total cpu time spent up to now is       21.1 secs

     total energy              =    -329.42185145 Ry
     Harris-Foulkes estimate   =    -329.42195982 Ry
     estimated scf accuracy    <       0.00050582 Ry

     iteration #  4     ecut=    30.00 Ry     beta=0.70
     Davidson diagonalization with overlap
     ethr =  9.20E-07,  avg # of iterations =  2.0

     total cpu time spent up to now is       21.3 secs

     total energy              =    -329.42193543 Ry
     Harris-Foulkes estimate   =    -329.42197145 Ry
     estimated scf accuracy    <       0.00008240 Ry

     iteration #  5     ecut=    30.00 Ry     beta=0.70
     Davidson diagonalization with overlap
     ethr =  1.50E-07,  avg # of iterations =  2.0

     total cpu time spent up to now is       21.6 secs

     total energy              =    -329.42194869 Ry
     Harris-Foulkes estimate   =    -329.42196168 Ry
     estimated scf accuracy    <       0.00003043 Ry

     iteration #  6     ecut=    30.00 Ry     beta=0.70
     Davidson diagonalization with overlap
     ethr =  5.53E-08,  avg # of iterations =  2.0

     total cpu time spent up to now is       21.8 secs

     total energy              =    -329.42195330 Ry
     Harris-Foulkes estimate   =    -329.42195683 Ry
     estimated scf accuracy    <       0.00000810 Ry

     iteration #  7     ecut=    30.00 Ry     beta=0.70
     Davidson diagonalization with overlap
     ethr =  1.47E-08,  avg # of iterations =  2.0

     total cpu time spent up to now is       22.1 secs

     total energy              =    -329.42195392 Ry
     Harris-Foulkes estimate   =    -329.42195552 Ry
     estimated scf accuracy    <       0.00000313 Ry

     iteration #  8     ecut=    30.00 Ry     beta=0.70
     Davidson diagonalization with overlap
     ethr =  5.68E-09,  avg # of iterations =  2.0

     total cpu time spent up to now is       22.3 secs

     total energy              =    -329.42195418 Ry
     Harris-Foulkes estimate   =    -329.42195448 Ry
     estimated scf accuracy    <       0.00000018 Ry

     iteration #  9     ecut=    30.00 Ry     beta=0.70
     Davidson diagonalization with overlap
     ethr =  3.31E-10,  avg # of iterations =  3.0

     total cpu time spent up to now is       22.6 secs

     total energy              =    -329.42195416 Ry
     Harris-Foulkes estimate   =    -329.42195423 Ry
     estimated scf accuracy    <       0.00000002 Ry

     iteration # 10     ecut=    30.00 Ry     beta=0.70
     Davidson diagonalization with overlap
     ethr =  3.84E-11,  avg # of iterations =  2.0

     total cpu time spent up to now is       22.9 secs

     total energy              =    -329.42195413 Ry
     Harris-Foulkes estimate   =    -329.42195417 Ry
     estimated scf accuracy    <          3.4E-09 Ry

     iteration # 11     ecut=    30.00 Ry     beta=0.70
     Davidson diagonalization with overlap
     ethr =  6.18E-12,  avg # of iterations =  2.0

     total cpu time spent up to now is       23.2 secs

     End of self-consistent calculation

          k = 0.0000 0.0000 0.0000 ( 22119 PWs)   bands (ev):

    -8.2576  -7.6851  -7.0950  -6.9602  -6.8955  -6.7709  -6.6817  -6.4852
    -6.3079  -5.9993  -5.8948  -5.7549  -5.6765  -5.5217  -5.4835  -5.3592
    -5.3236  -5.2208  -5.1380  -5.1184  -5.1066  -5.0139  -4.9711  -4.9295
    -4.7217  -4.6011  -4.2155  -3.3814  -3.0596  -2.3390  -0.2057  -0.0023
     0.2809   0.4218

     the Fermi energy is    -3.3594 ev

!    total energy              =    -329.42195410 Ry
     Harris-Foulkes estimate   =    -329.42195413 Ry
     estimated scf accuracy    <          3.3E-10 Ry

     The total energy is the sum of the following terms:

     one-electron contribution =    -619.50188805 Ry
     hartree contribution      =     331.34022585 Ry
     xc contribution           =     -51.35855412 Ry
     ewald contribution        =      10.10790839 Ry
     smearing contrib. (-TS)   =      -0.00964616 Ry

     convergence has been achieved in  11 iterations

     Forces acting on atoms (Ry/au):

     atom    1 type  1   force =    -0.00329008    0.00259253   -0.00801863
     atom    2 type  1   force =     0.00918913    0.00343904    0.01018711
     atom    3 type  1   force =     0.00431771   -0.01488567    0.01061110
     atom    4 type  1   force =    -0.01236628   -0.00528969   -0.00395421
     atom    5 type  1   force =     0.00214952    0.01414379   -0.00882538

     Total force =     0.033374     Total SCF correction =     0.000084

     number of scf cycles    =   6
     number of bfgs steps    =   5

     energy   old            =    -329.4189116535 Ry
     energy   new            =    -329.4219541007 Ry

     CASE: energy  _new < energy  _old

     new trust radius        =       0.1155036288 bohr
     new conv_thr            =       0.0000000015 Ry


ATOMIC_POSITIONS (bohr)
Au      -0.919306263   0.478974582   0.337258866
Au       0.006752278   3.417382987   4.351060702
Au       3.452312202   3.107458020   0.259247016
Au       5.014697068   4.795322474   5.890978079
Au       5.095431716  -0.051032062   4.168171337



     Writing output data file pwscf.save
     Check: negative starting charge=   -0.006026
     NEW-OLD atomic charge density approx. for the potential
     Check: negative starting charge=   -0.006057

     negative rho (up, down):  1.976E-03 0.000E+00

     total cpu time spent up to now is       23.5 secs

     per-process dynamical memory:    50.7 Mb

     Self-consistent Calculation

     iteration #  1     ecut=    30.00 Ry     beta=0.70
     Davidson diagonalization with overlap
     ethr =  1.00E-06,  avg # of iterations =  8.0

     negative rho (up, down):  1.858E-04 0.000E+00

     total cpu time spent up to now is       24.0 secs

     total energy              =    -329.42290124 Ry
     Harris-Foulkes estimate   =    -329.42200597 Ry
     estimated scf accuracy    <       0.00239585 Ry

     iteration #  2     ecut=    30.00 Ry     beta=0.70
     Davidson diagonalization with overlap
     ethr =  4.36E-06,  avg # of iterations =  5.0

     negative rho (up, down):  9.506E-05 0.000E+00

     total cpu time spent up to now is       24.4 secs

     total energy              =    -329.42245049 Ry
     Harris-Foulkes estimate   =    -329.42524614 Ry
     estimated scf accuracy    <       0.00736545 Ry

     iteration #  3     ecut=    30.00 Ry     beta=0.70
     Davidson diagonalization with overlap
     ethr =  4.36E-06,  avg # of iterations =  3.0

     negative rho (up, down):  7.519E-06 0.000E+00

     total cpu time spent up to now is       24.7 secs

     total energy              =    -329.42388257 Ry
     Harris-Foulkes estimate   =    -329.42403929 Ry
     estimated scf accuracy    <       0.00053798 Ry

     iteration #  4     ecut=    30.00 Ry     beta=0.70
     Davidson diagonalization with overlap
     ethr =  9.78E-07,  avg # of iterations =  2.0

     negative rho (up, down):  1.871E-08 0.000E+00

     total cpu time spent up to now is       24.9 secs

     total energy              =    -329.42395999 Ry
     Harris-Foulkes estimate   =    -329.42401614 Ry
     estimated scf accuracy    <       0.00013416 Ry

     iteration #  5     ecut=    30.00 Ry     beta=0.70
     Davidson diagonalization with overlap
     ethr =  2.44E-07,  avg # of iterations =  2.0

     total cpu time spent up to now is       25.2 secs

     total energy              =    -329.42397844 Ry
     Harris-Foulkes estimate   =    -329.42401342 Ry
     estimated scf accuracy    <       0.00011250 Ry

     iteration #  6     ecut=    30.00 Ry     beta=0.70
     Davidson diagonalization with overlap
     ethr =  2.05E-07,  avg # of iterations =  1.0

     total cpu time spent up to now is       25.4 secs

     total energy              =    -329.42399366 Ry
     Harris-Foulkes estimate   =    -329.42399675 Ry
     estimated scf accuracy    <       0.00000568 Ry

     iteration #  7     ecut=    30.00 Ry     beta=0.70
     Davidson diagonalization with overlap
     ethr =  1.03E-08,  avg # of iterations =  3.0

     total cpu time spent up to now is       25.7 secs

     total energy              =    -329.42399449 Ry
     Harris-Foulkes estimate   =    -329.42399558 Ry
     estimated scf accuracy    <       0.00000157 Ry

     iteration #  8     ecut=    30.00 Ry     beta=0.70
     Davidson diagonalization with overlap
     ethr =  2.85E-09,  avg # of iterations =  2.0

     total cpu time spent up to now is       26.0 secs

     total energy              =    -329.42399448 Ry
     Harris-Foulkes estimate   =    -329.42399481 Ry
     estimated scf accuracy    <       0.00000008 Ry

     iteration #  9     ecut=    30.00 Ry     beta=0.70
     Davidson diagonalization with overlap
     ethr =  1.43E-10,  avg # of iterations =  4.0

     total cpu time spent up to now is       26.3 secs

     total energy              =    -329.42399444 Ry
     Harris-Foulkes estimate   =    -329.42399451 Ry
     estimated scf accuracy    <       0.00000002 Ry

     iteration # 10     ecut=    30.00 Ry     beta=0.70
     Davidson diagonalization with overlap
     ethr =  3.25E-11,  avg # of iterations =  3.0

     total cpu time spent up to now is       26.6 secs

     total energy              =    -329.42399438 Ry
     Harris-Foulkes estimate   =    -329.42399444 Ry
     estimated scf accuracy    <          3.6E-09 Ry

     iteration # 11     ecut=    30.00 Ry     beta=0.70
     Davidson diagonalization with overlap
     ethr =  6.62E-12,  avg # of iterations =  3.0

     total cpu time spent up to now is       26.8 secs

     End of self-consistent calculation

          k = 0.0000 0.0000 0.0000 ( 22119 PWs)   bands (ev):

    -8.2527  -7.6840  -7.1056  -7.0084  -6.8742  -6.7922  -6.7501  -6.4636
    -6.3471  -5.9927  -5.9283  -5.7520  -5.6625  -5.5252  -5.4714  -5.3524
    -5.3325  -5.2120  -5.1264  -5.1081  -5.0879  -5.0231  -4.9503  -4.9189
    -4.6885  -4.6018  -4.1892  -3.4084  -3.0020  -2.3277  -0.2037  -0.0225
     0.2693   0.4440

     the Fermi energy is    -3.3775 ev

!    total energy              =    -329.42399438 Ry
     Harris-Foulkes estimate   =    -329.42399438 Ry
     estimated scf accuracy    <          8.1E-10 Ry

     The total energy is the sum of the following terms:

     one-electron contribution =    -620.94443320 Ry
     hartree contribution      =     332.06615244 Ry
     xc contribution           =     -51.36909596 Ry
     ewald contribution        =      10.83113680 Ry
     smearing contrib. (-TS)   =      -0.00775446 Ry

     convergence has been achieved in  11 iterations

     Forces acting on atoms (Ry/au):

     atom    1 type  1   force =    -0.01065618   -0.00123527   -0.01121717
     atom    2 type  1   force =     0.01406612    0.00643568    0.01226285
     atom    3 type  1   force =     0.00762081   -0.01054715    0.00899101
     atom    4 type  1   force =    -0.01551820   -0.00756736   -0.00531769
     atom    5 type  1   force =     0.00448745    0.01291410   -0.00471900

     Total force =     0.037633     Total SCF correction =     0.000107

     number of scf cycles    =   7
     number of bfgs steps    =   6

     energy   old            =    -329.4219541007 Ry
     energy   new            =    -329.4239943778 Ry

     CASE: energy  _new < energy  _old

     new trust radius        =       0.1445532159 bohr
     new conv_thr            =       0.0000000016 Ry


ATOMIC_POSITIONS (bohr)
Au      -0.910264303   0.551762490   0.313190371
Au      -0.046398611   3.399525879   4.416389589
Au       3.499785354   2.971658445   0.273403549
Au       4.998503446   4.813060116   5.899990500
Au       5.108261114   0.012099070   4.103741990



     Writing output data file pwscf.save
     Check: negative starting charge=   -0.006057
     NEW-OLD atomic charge density approx. for the potential
     Check: negative starting charge=   -0.005900

     negative rho (up, down):  2.645E-03 0.000E+00

     total cpu time spent up to now is       27.1 secs

     per-process dynamical memory:    50.7 Mb

     Self-consistent Calculation

     iteration #  1     ecut=    30.00 Ry     beta=0.70
     Davidson diagonalization with overlap
     ethr =  1.00E-06,  avg # of iterations =  9.0

     negative rho (up, down):  2.752E-04 0.000E+00

     total cpu time spent up to now is       27.8 secs

     total energy              =    -329.41083484 Ry
     Harris-Foulkes estimate   =    -329.45491029 Ry
     estimated scf accuracy    <       0.00275031 Ry

     iteration #  2     ecut=    30.00 Ry     beta=0.70
     Davidson diagonalization with overlap
     ethr =  5.00E-06,  avg # of iterations =  5.0

     negative rho (up, down):  1.436E-04 0.000E+00

     total cpu time spent up to now is       28.1 secs

     total energy              =    -329.42386035 Ry
     Harris-Foulkes estimate   =    -329.42662700 Ry
     estimated scf accuracy    <       0.00743354 Ry

     iteration #  3     ecut=    30.00 Ry     beta=0.70
     Davidson diagonalization with overlap
     ethr =  5.00E-06,  avg # of iterations =  3.0

     negative rho (up, down):  2.674E-05 0.000E+00

     total cpu time spent up to now is       28.4 secs

     total energy              =    -329.42521873 Ry
     Harris-Foulkes estimate   =    -329.42551769 Ry
     estimated scf accuracy    <       0.00098784 Ry

     iteration #  4     ecut=    30.00 Ry     beta=0.70
     Davidson diagonalization with overlap
     ethr =  1.80E-06,  avg # of iterations =  3.0

     negative rho (up, down):  4.024E-07 0.000E+00

     total cpu time spent up to now is       28.7 secs

     total energy              =    -329.42535702 Ry
     Harris-Foulkes estimate   =    -329.42548363 Ry
     estimated scf accuracy    <       0.00035208 Ry

     iteration #  5     ecut=    30.00 Ry     beta=0.70
     Davidson diagonalization with overlap
     ethr =  6.40E-07,  avg # of iterations =  2.0

     total cpu time spent up to now is       29.0 secs

     total energy              =    -329.42541273 Ry
     Harris-Foulkes estimate   =    -329.42546439 Ry
     estimated scf accuracy    <       0.00013994 Ry

     iteration #  6     ecut=    30.00 Ry     beta=0.70
     Davidson diagonalization with overlap
     ethr =  2.54E-07,  avg # of iterations =  2.0

     total cpu time spent up to now is       29.3 secs

     total energy              =    -329.42543589 Ry
     Harris-Foulkes estimate   =    -329.42544361 Ry
     estimated scf accuracy    <       0.00001468 Ry

     iteration #  7     ecut=    30.00 Ry     beta=0.70
     Davidson diagonalization with overlap
     ethr =  2.67E-08,  avg # of iterations =  2.0

     total cpu time spent up to now is       29.7 secs

     total energy              =    -329.42543887 Ry
     Harris-Foulkes estimate   =    -329.42544045 Ry
     estimated scf accuracy    <       0.00000304 Ry

     iteration #  8     ecut=    30.00 Ry     beta=0.70
     Davidson diagonalization with overlap
     ethr =  5.52E-09,  avg # of iterations =  2.0

     total cpu time spent up to now is       30.1 secs

     total energy              =    -329.42543925 Ry
     Harris-Foulkes estimate   =    -329.42543964 Ry
     estimated scf accuracy    <       0.00000039 Ry

     iteration #  9     ecut=    30.00 Ry     beta=0.70
     Davidson diagonalization with overlap
     ethr =  7.16E-10,  avg # of iterations =  2.0

     total cpu time spent up to now is       30.4 secs

     total energy              =    -329.42543915 Ry
     Harris-Foulkes estimate   =    -329.42543937 Ry
     estimated scf accuracy    <       0.00000008 Ry

     iteration # 10     ecut=    30.00 Ry     beta=0.70
     Davidson diagonalization with overlap
     ethr =  1.44E-10,  avg # of iterations =  2.0

     total cpu time spent up to now is       30.8 secs

     total energy              =    -329.42543912 Ry
     Harris-Foulkes estimate   =    -329.42543917 Ry
     estimated scf accuracy    <          8.4E-09 Ry

     iteration # 11     ecut=    30.00 Ry     beta=0.70
     Davidson diagonalization with overlap
     ethr =  1.53E-11,  avg # of iterations =  2.0

     total cpu time spent up to now is       31.3 secs

     total energy              =    -329.42543911 Ry
     Harris-Foulkes estimate   =    -329.42543912 Ry
     estimated scf accuracy    <          2.3E-09 Ry

     iteration # 12     ecut=    30.00 Ry     beta=0.70
     Davidson diagonalization with overlap
     ethr =  4.11E-12,  avg # of iterations =  2.0

     total cpu time spent up to now is       31.5 secs

     End of self-consistent calculation

          k = 0.0000 0.0000 0.0000 ( 22119 PWs)   bands (ev):

    -8.2549  -7.7057  -7.1666  -7.1375  -6.9190  -6.7935  -6.7630  -6.5001
    -6.3524  -6.0091  -5.9557  -5.7686  -5.6755  -5.5165  -5.4242  -5.3444
    -5.3437  -5.2076  -5.1247  -5.0817  -5.0588  -5.0244  -4.9306  -4.9129
    -4.6553  -4.6015  -4.1538  -3.4501  -2.9219  -2.3119  -0.2052  -0.0508
     0.2637   0.4639

     the Fermi energy is    -3.4181 ev

!    total energy              =    -329.42543911 Ry
     Harris-Foulkes estimate   =    -329.42543911 Ry
     estimated scf accuracy    <          5.5E-10 Ry

     The total energy is the sum of the following terms:

     one-electron contribution =    -623.13534128 Ry
     hartree contribution      =     333.15694668 Ry
     xc contribution           =     -51.38500431 Ry
     ewald contribution        =      11.94322790 Ry
     smearing contrib. (-TS)   =      -0.00526810 Ry

     convergence has been achieved in  12 iterations

     Forces acting on atoms (Ry/au):

     atom    1 type  1   force =    -0.01891973   -0.00475646   -0.00989803
     atom    2 type  1   force =     0.01662160    0.00660364    0.00785725
     atom    3 type  1   force =     0.00918250    0.00196021    0.00085869
     atom    4 type  1   force =    -0.01576029   -0.00708155   -0.00438478
     atom    5 type  1   force =     0.00887592    0.00327417    0.00556686

     Total force =     0.037247     Total SCF correction =     0.000094

     number of scf cycles    =   8
     number of bfgs steps    =   7

     energy   old            =    -329.4239943778 Ry
     energy   new            =    -329.4254391104 Ry

     CASE: energy  _new < energy  _old

     new trust radius        =       0.0396878716 bohr
     new conv_thr            =       0.0000000014 Ry


ATOMIC_POSITIONS (bohr)
Au      -0.936084179   0.533518801   0.298631653
Au      -0.009884959   3.413940547   4.422228914
Au       3.504687305   2.986569492   0.282232537
Au       4.974085703   4.797170971   5.890041862
Au       5.117083130   0.016906189   4.113581034



     Writing output data file pwscf.save
     Check: negative starting charge=   -0.005900
     NEW-OLD atomic charge density approx. for the potential
     Check: negative starting charge=   -0.005941

     negative rho (up, down):  3.480E-04 0.000E+00

     total cpu time spent up to now is       31.8 secs

     per-process dynamical memory:    50.7 Mb

     Self-consistent Calculation

     iteration #  1     ecut=    30.00 Ry     beta=0.70
     Davidson diagonalization with overlap
     ethr =  1.00E-06,  avg # of iterations =  5.0

     negative rho (up, down):  1.165E-05 0.000E+00

     total cpu time spent up to now is       32.5 secs

     total energy              =    -329.42702038 Ry
     Harris-Foulkes estimate   =    -329.42713176 Ry
     estimated scf accuracy    <       0.00049434 Ry

     iteration #  2     ecut=    30.00 Ry     beta=0.70
     Davidson diagonalization with overlap
     ethr =  8.99E-07,  avg # of iterations =  4.0

     negative rho (up, down):  5.004E-06 0.000E+00

     total cpu time spent up to now is       32.8 secs

     total energy              =    -329.42677978 Ry
     Harris-Foulkes estimate   =    -329.42779139 Ry
     estimated scf accuracy    <       0.00323824 Ry

     iteration #  3     ecut=    30.00 Ry     beta=0.70
     Davidson diagonalization with overlap
     ethr =  8.99E-07,  avg # of iterations =  3.0

     negative rho (up, down):  1.222E-07 0.000E+00

     total cpu time spent up to now is       33.1 secs

     total energy              =    -329.42726971 Ry
     Harris-Foulkes estimate   =    -329.42729414 Ry
     estimated scf accuracy    <       0.00007690 Ry

     iteration #  4     ecut=    30.00 Ry     beta=0.70
     Davidson diagonalization with overlap
     ethr =  1.40E-07,  avg # of iterations =  2.0

     total cpu time spent up to now is       33.4 secs

     total energy              =    -329.42728078 Ry
     Harris-Foulkes estimate   =    -329.42729687 Ry
     estimated scf accuracy    <       0.00004744 Ry

     iteration #  5     ecut=    30.00 Ry     beta=0.70
     Davidson diagonalization with overlap
     ethr =  8.63E-08,  avg # of iterations =  2.0

     total cpu time spent up to now is       33.6 secs

     total energy              =    -329.42728944 Ry
     Harris-Foulkes estimate   =    -329.42729135 Ry
     estimated scf accuracy    <       0.00000581 Ry

     iteration #  6     ecut=    30.00 Ry     beta=0.70
     Davidson diagonalization with overlap
     ethr =  1.06E-08,  avg # of iterations =  2.0

     total cpu time spent up to now is       33.9 secs

     total energy              =    -329.42729050 Ry
     Harris-Foulkes estimate   =    -329.42729076 Ry
     estimated scf accuracy    <       0.00000034 Ry

     iteration #  7     ecut=    30.00 Ry     beta=0.70
     Davidson diagonalization with overlap
     ethr =  6.21E-10,  avg # of iterations =  2.0

     total cpu time spent up to now is       34.2 secs

     total energy              =    -329.42729059 Ry
     Harris-Foulkes estimate   =    -329.42729063 Ry
     estimated scf accuracy    <       0.00000009 Ry

     iteration #  8     ecut=    30.00 Ry     beta=0.70
     Davidson diagonalization with overlap
     ethr =  1.55E-10,  avg # of iterations =  2.0

     total cpu time spent up to now is       34.5 secs

     total energy              =    -329.42729057 Ry
     Harris-Foulkes estimate   =    -329.42729062 Ry
     estimated scf accuracy    <       0.00000002 Ry

     iteration #  9     ecut=    30.00 Ry     beta=0.70
     Davidson diagonalization with overlap
     ethr =  3.17E-11,  avg # of iterations =  2.0

     total cpu time spent up to now is       34.7 secs

     total energy              =    -329.42729058 Ry
     Harris-Foulkes estimate   =    -329.42729058 Ry
     estimated scf accuracy    <          2.0E-09 Ry

     iteration # 10     ecut=    30.00 Ry     beta=0.70
     Davidson diagonalization with overlap
     ethr =  3.59E-12,  avg # of iterations =  2.0

     total cpu time spent up to now is       35.0 secs

     End of self-consistent calculation

          k = 0.0000 0.0000 0.0000 ( 22119 PWs)   bands (ev):

    -8.2601  -7.6972  -7.1686  -7.1101  -6.9048  -6.8277  -6.7568  -6.5060
    -6.3892  -5.9949  -5.9605  -5.7759  -5.6754  -5.5268  -5.4281  -5.3553
    -5.3451  -5.2142  -5.1316  -5.0829  -5.0585  -5.0151  -4.9324  -4.9132
    -4.6516  -4.6056  -4.1579  -3.4486  -2.9265  -2.3106  -0.2016  -0.0517
     0.2726   0.4576

     the Fermi energy is    -3.4163 ev

!    total energy              =    -329.42729059 Ry
     Harris-Foulkes estimate   =    -329.42729058 Ry
     estimated scf accuracy    <          3.7E-10 Ry

     The total energy is the sum of the following terms:

     one-electron contribution =    -623.50415503 Ry
     hartree contribution      =     333.33589499 Ry
     xc contribution           =     -51.38363552 Ry
     ewald contribution        =      12.13003674 Ry
     smearing contrib. (-TS)   =      -0.00543177 Ry

     convergence has been achieved in  10 iterations

     Forces acting on atoms (Ry/au):

     atom    1 type  1   force =    -0.01302202    0.00079052   -0.00616005
     atom    2 type  1   force =     0.01278475    0.00341714    0.00347766
     atom    3 type  1   force =     0.00448179   -0.00121140    0.00056718
     atom    4 type  1   force =    -0.01315708   -0.00311642   -0.00178749
     atom    5 type  1   force =     0.00891256    0.00012016    0.00390270

     Total force =     0.026418     Total SCF correction =     0.000083

     number of scf cycles    =   9
     number of bfgs steps    =   8

     energy   old            =    -329.4254391104 Ry
     energy   new            =    -329.4272905911 Ry

     CASE: energy  _new < energy  _old

     new trust radius        =       0.0436566587 bohr
     new conv_thr            =       0.0000000013 Ry


ATOMIC_POSITIONS (bohr)
Au      -0.968205452   0.528676657   0.277714769
Au       0.029100598   3.427181205   4.436744947
Au       3.516206606   2.980680138   0.293940222
Au       4.937371459   4.783243467   5.881313850
Au       5.135413790   0.028324534   4.117002212



     Writing output data file pwscf.save
     Check: negative starting charge=   -0.005941
     NEW-OLD atomic charge density approx. for the potential
     Check: negative starting charge=   -0.005971

     negative rho (up, down):  4.503E-04 0.000E+00

     total cpu time spent up to now is       35.2 secs

     per-process dynamical memory:    50.7 Mb

     Self-consistent Calculation

     iteration #  1     ecut=    30.00 Ry     beta=0.70
     Davidson diagonalization with overlap
     ethr =  1.00E-06,  avg # of iterations =  5.0

     negative rho (up, down):  1.855E-05 0.000E+00

     total cpu time spent up to now is       35.7 secs

     total energy              =    -329.42839449 Ry
     Harris-Foulkes estimate   =    -329.42850865 Ry
     estimated scf accuracy    <       0.00069225 Ry

     iteration #  2     ecut=    30.00 Ry     beta=0.70
     Davidson diagonalization with overlap
     ethr =  1.26E-06,  avg # of iterations =  4.0

     negative rho (up, down):  8.385E-06 0.000E+00

     total cpu time spent up to now is       36.0 secs

     total energy              =    -329.42809045 Ry
     Harris-Foulkes estimate   =    -329.42940934 Ry
     estimated scf accuracy    <       0.00412606 Ry

     iteration #  3     ecut=    30.00 Ry     beta=0.70
     Davidson diagonalization with overlap
     ethr =  1.26E-06,  avg # of iterations =  3.0

     negative rho (up, down):  4.044E-07 0.000E+00

     total cpu time spent up to now is       36.3 secs

     total energy              =    -329.42873132 Ry
     Harris-Foulkes estimate   =    -329.42877735 Ry
     estimated scf accuracy    <       0.00014030 Ry

     iteration #  4     ecut=    30.00 Ry     beta=0.70
     Davidson diagonalization with overlap
     ethr =  2.55E-07,  avg # of iterations =  2.0

     total cpu time spent up to now is       36.6 secs

     total energy              =    -329.42875400 Ry
     Harris-Foulkes estimate   =    -329.42876855 Ry
     estimated scf accuracy    <       0.00004033 Ry

     iteration #  5     ecut=    30.00 Ry     beta=0.70
     Davidson diagonalization with overlap
     ethr =  7.33E-08,  avg # of iterations =  2.0

     total cpu time spent up to now is       36.8 secs

     total energy              =    -329.42876203 Ry
     Harris-Foulkes estimate   =    -329.42876657 Ry
     estimated scf accuracy    <       0.00001401 Ry

     iteration #  6     ecut=    30.00 Ry     beta=0.70
     Davidson diagonalization with overlap
     ethr =  2.55E-08,  avg # of iterations =  2.0

     total cpu time spent up to now is       37.1 secs

     total energy              =    -329.42876448 Ry
     Harris-Foulkes estimate   =    -329.42876463 Ry
     estimated scf accuracy    <       0.00000043 Ry

     iteration #  7     ecut=    30.00 Ry     beta=0.70
     Davidson diagonalization with overlap
     ethr =  7.73E-10,  avg # of iterations =  3.0

     total cpu time spent up to now is       37.4 secs

     total energy              =    -329.42876444 Ry
     Harris-Foulkes estimate   =    -329.42876467 Ry
     estimated scf accuracy    <       0.00000012 Ry

     iteration #  8     ecut=    30.00 Ry     beta=0.70
     Davidson diagonalization with overlap
     ethr =  2.23E-10,  avg # of iterations =  2.0

     total cpu time spent up to now is       37.6 secs

     total energy              =    -329.42876442 Ry
     Harris-Foulkes estimate   =    -329.42876448 Ry
     estimated scf accuracy    <       0.00000003 Ry

     iteration #  9     ecut=    30.00 Ry     beta=0.70
     Davidson diagonalization with overlap
     ethr =  4.72E-11,  avg # of iterations =  2.0

     total cpu time spent up to now is       37.9 secs

     total energy              =    -329.42876440 Ry
     Harris-Foulkes estimate   =    -329.42876443 Ry
     estimated scf accuracy    <          5.2E-09 Ry

     iteration # 10     ecut=    30.00 Ry     beta=0.70
     Davidson diagonalization with overlap
     ethr =  9.54E-12,  avg # of iterations =  2.0

     total cpu time spent up to now is       38.1 secs

     End of self-consistent calculation

          k = 0.0000 0.0000 0.0000 ( 22119 PWs)   bands (ev):

    -8.2846  -7.6813  -7.1985  -7.1233  -6.9042  -6.8522  -6.7534  -6.5223
    -6.4291  -6.0113  -5.9410  -5.7876  -5.6795  -5.5345  -5.4251  -5.3682
    -5.3424  -5.2235  -5.1382  -5.0810  -5.0526  -5.0016  -4.9306  -4.9133
    -4.6467  -4.6059  -4.1576  -3.4553  -2.9197  -2.3031  -0.1987  -0.0575
     0.2819   0.4520

     the Fermi energy is    -3.4232 ev

!    total energy              =    -329.42876442 Ry
     Harris-Foulkes estimate   =    -329.42876440 Ry
     estimated scf accuracy    <          2.6E-10 Ry

     The total energy is the sum of the following terms:

     one-electron contribution =    -624.30095052 Ry
     hartree contribution      =     333.72500545 Ry
     xc contribution           =     -51.38578869 Ry
     ewald contribution        =      12.53817248 Ry
     smearing contrib. (-TS)   =      -0.00520314 Ry

     convergence has been achieved in  10 iterations

     Forces acting on atoms (Ry/au):

     atom    1 type  1   force =    -0.00877017    0.00597052   -0.00195864
     atom    2 type  1   force =     0.00760016   -0.00045244   -0.00147835
     atom    3 type  1   force =     0.00002198   -0.00260866   -0.00149691
     atom    4 type  1   force =    -0.00925832    0.00152735    0.00123216
     atom    5 type  1   force =     0.01040635   -0.00443678    0.00370174

     Total force =     0.020417     Total SCF correction =     0.000075

     number of scf cycles    =  10
     number of bfgs steps    =   9

     energy   old            =    -329.4272905911 Ry
     energy   new            =    -329.4287644191 Ry

     CASE: energy  _new < energy  _old

     new trust radius        =       0.0575631767 bohr
     new conv_thr            =       0.0000000010 Ry


ATOMIC_POSITIONS (bohr)
Au      -1.016604905   0.537783097   0.250066574
Au       0.080490824   3.439562795   4.454372632
Au       3.531113016   2.960687974   0.306049518
Au       4.881370384   4.771825139   5.874456689
Au       5.173517681   0.038246995   4.121770587



     Writing output data file pwscf.save
     Check: negative starting charge=   -0.005971
     NEW-OLD atomic charge density approx. for the potential
     Check: negative starting charge=   -0.005996

     negative rho (up, down):  8.704E-04 0.000E+00

     total cpu time spent up to now is       38.5 secs

     per-process dynamical memory:    50.7 Mb

     Self-consistent Calculation

     iteration #  1     ecut=    30.00 Ry     beta=0.70
     Davidson diagonalization with overlap
     ethr =  1.00E-06,  avg # of iterations =  6.0

     negative rho (up, down):  5.511E-05 0.000E+00

     total cpu time spent up to now is       39.0 secs

     total energy              =    -329.42930342 Ry
     Harris-Foulkes estimate   =    -329.42918280 Ry
     estimated scf accuracy    <       0.00125280 Ry

     iteration #  2     ecut=    30.00 Ry     beta=0.70
     Davidson diagonalization with overlap
     ethr =  2.28E-06,  avg # of iterations =  4.0

     negative rho (up, down):  2.653E-05 0.000E+00

     total cpu time spent up to now is       39.4 secs

     total energy              =    -329.42890326 Ry
     Harris-Foulkes estimate   =    -329.43081196 Ry
     estimated scf accuracy    <       0.00552002 Ry

     iteration #  3     ecut=    30.00 Ry     beta=0.70
     Davidson diagonalization with overlap
     ethr =  2.28E-06,  avg # of iterations =  3.0

     negative rho (up, down):  2.790E-06 0.000E+00

     total cpu time spent up to now is       39.7 secs

     total energy              =    -329.42983780 Ry
     Harris-Foulkes estimate   =    -329.42996630 Ry
     estimated scf accuracy    <       0.00040517 Ry

     iteration #  4     ecut=    30.00 Ry     beta=0.70
     Davidson diagonalization with overlap
     ethr =  7.37E-07,  avg # of iterations =  2.0

     total cpu time spent up to now is       39.9 secs

     total energy              =    -329.42990348 Ry
     Harris-Foulkes estimate   =    -329.42992757 Ry
     estimated scf accuracy    <       0.00006570 Ry

     iteration #  5     ecut=    30.00 Ry     beta=0.70
     Davidson diagonalization with overlap
     ethr =  1.19E-07,  avg # of iterations =  2.0

     total cpu time spent up to now is       40.2 secs

     total energy              =    -329.42991526 Ry
     Harris-Foulkes estimate   =    -329.42992763 Ry
     estimated scf accuracy    <       0.00003460 Ry

     iteration #  6     ecut=    30.00 Ry     beta=0.70
     Davidson diagonalization with overlap
     ethr =  6.29E-08,  avg # of iterations =  2.0

     total cpu time spent up to now is       40.4 secs

     total energy              =    -329.42992113 Ry
     Harris-Foulkes estimate   =    -329.42992165 Ry
     estimated scf accuracy    <       0.00000137 Ry

     iteration #  7     ecut=    30.00 Ry     beta=0.70
     Davidson diagonalization with overlap
     ethr =  2.49E-09,  avg # of iterations =  3.0

     total cpu time spent up to now is       40.7 secs

     total energy              =    -329.42992128 Ry
     Harris-Foulkes estimate   =    -329.42992159 Ry
     estimated scf accuracy    <       0.00000021 Ry

     iteration #  8     ecut=    30.00 Ry     beta=0.70
     Davidson diagonalization with overlap
     ethr =  3.79E-10,  avg # of iterations =  2.0

     total cpu time spent up to now is       41.0 secs

     total energy              =    -329.42992116 Ry
     Harris-Foulkes estimate   =    -329.42992135 Ry
     estimated scf accuracy    <       0.00000004 Ry

     iteration #  9     ecut=    30.00 Ry     beta=0.70
     Davidson diagonalization with overlap
     ethr =  7.95E-11,  avg # of iterations =  2.0

     total cpu time spent up to now is       41.3 secs

     total energy              =    -329.42992116 Ry
     Harris-Foulkes estimate   =    -329.42992117 Ry
     estimated scf accuracy    <       0.00000001 Ry

     iteration # 10     ecut=    30.00 Ry     beta=0.70
     Davidson diagonalization with overlap
     ethr =  2.38E-11,  avg # of iterations =  2.0

     total cpu time spent up to now is       41.6 secs

     total energy              =    -329.42992116 Ry
     Harris-Foulkes estimate   =    -329.42992116 Ry
     estimated scf accuracy    <          1.2E-09 Ry

     iteration # 11     ecut=    30.00 Ry     beta=0.70
     Davidson diagonalization with overlap
     ethr =  2.11E-12,  avg # of iterations =  2.0

     total cpu time spent up to now is       41.8 secs

     End of self-consistent calculation

          k = 0.0000 0.0000 0.0000 ( 22119 PWs)   bands (ev):

    -8.3266  -7.6503  -7.2352  -7.1865  -6.9305  -6.8656  -6.7336  -6.5510
    -6.4688  -6.0266  -5.9246  -5.7970  -5.6851  -5.5409  -5.4194  -5.3844
    -5.3316  -5.2378  -5.1449  -5.0788  -5.0430  -4.9828  -4.9261  -4.9128
    -4.6472  -4.5989  -4.1572  -3.4702  -2.9080  -2.2881  -0.1963  -0.0668
     0.2922   0.4433

     the Fermi energy is    -3.4393 ev

!    total energy              =    -329.42992116 Ry
     Harris-Foulkes estimate   =    -329.42992116 Ry
     estimated scf accuracy    <          1.3E-10 Ry

     The total energy is the sum of the following terms:

     one-electron contribution =    -625.08691987 Ry
     hartree contribution      =     334.10578365 Ry
     xc contribution           =     -51.39007580 Ry
     ewald contribution        =      12.94600156 Ry
     smearing contrib. (-TS)   =      -0.00471070 Ry

     convergence has been achieved in  11 iterations

     Forces acting on atoms (Ry/au):

     atom    1 type  1   force =    -0.00445774    0.01054259    0.00217320
     atom    2 type  1   force =    -0.00052336   -0.00468373   -0.00735178
     atom    3 type  1   force =    -0.00467281   -0.00405296   -0.00381489
     atom    4 type  1   force =    -0.00327535    0.00665500    0.00519144
     atom    5 type  1   force =     0.01292926   -0.00846091    0.00380203

     Total force =     0.024495     Total SCF correction =     0.000058

     number of scf cycles    =  11
     number of bfgs steps    =  10

     energy   old            =    -329.4287644191 Ry
     energy   new            =    -329.4299211612 Ry

     CASE: energy  _new < energy  _old

     new trust radius        =       0.0465539208 bohr
     new conv_thr            =       0.0000000012 Ry


ATOMIC_POSITIONS (bohr)
Au      -1.052271325   0.562285774   0.232897044
Au       0.105425507   3.440030344   4.463561861
Au       3.540903826   2.931178103   0.309005957
Au       4.841747617   4.774218585   5.877301482
Au       5.214081375   0.040393194   4.123949657



     Writing output data file pwscf.save
     Check: negative starting charge=   -0.005996
     NEW-OLD atomic charge density approx. for the potential
     Check: negative starting charge=   -0.006003

     negative rho (up, down):  5.706E-04 0.000E+00

     total cpu time spent up to now is       42.1 secs

     per-process dynamical memory:    50.7 Mb

     Self-consistent Calculation

     iteration #  1     ecut=    30.00 Ry     beta=0.70
     Davidson diagonalization with overlap
     ethr =  1.00E-06,  avg # of iterations =  5.0

     negative rho (up, down):  2.693E-05 0.000E+00

     total cpu time spent up to now is       42.6 secs

     total energy              =    -329.43055024 Ry
     Harris-Foulkes estimate   =    -329.43042453 Ry
     estimated scf accuracy    <       0.00062705 Ry

     iteration #  2     ecut=    30.00 Ry     beta=0.70
     Davidson diagonalization with overlap
     ethr =  1.14E-06,  avg # of iterations =  4.0

     negative rho (up, down):  8.010E-06 0.000E+00

     total cpu time spent up to now is       43.0 secs

     total energy              =    -329.43052289 Ry
     Harris-Foulkes estimate   =    -329.43104377 Ry
     estimated scf accuracy    <       0.00123603 Ry

     iteration #  3     ecut=    30.00 Ry     beta=0.70
     Davidson diagonalization with overlap
     ethr =  1.14E-06,  avg # of iterations =  2.0

     negative rho (up, down):  9.055E-07 0.000E+00

     total cpu time spent up to now is       43.2 secs

     total energy              =    -329.43074921 Ry
     Harris-Foulkes estimate   =    -329.43085682 Ry
     estimated scf accuracy    <       0.00031909 Ry

     iteration #  4     ecut=    30.00 Ry     beta=0.70
     Davidson diagonalization with overlap
     ethr =  5.80E-07,  avg # of iterations =  2.0

     total cpu time spent up to now is       43.4 secs

     total energy              =    -329.43080395 Ry
     Harris-Foulkes estimate   =    -329.43081730 Ry
     estimated scf accuracy    <       0.00003635 Ry

     iteration #  5     ecut=    30.00 Ry     beta=0.70
     Davidson diagonalization with overlap
     ethr =  6.61E-08,  avg # of iterations =  2.0

     total cpu time spent up to now is       43.7 secs

     total energy              =    -329.43080941 Ry
     Harris-Foulkes estimate   =    -329.43081597 Ry
     estimated scf accuracy    <       0.00001636 Ry

     iteration #  6     ecut=    30.00 Ry     beta=0.70
     Davidson diagonalization with overlap
     ethr =  2.97E-08,  avg # of iterations =  2.0

     total cpu time spent up to now is       43.9 secs

     total energy              =    -329.43081212 Ry
     Harris-Foulkes estimate   =    -329.43081266 Ry
[...]
     ethr =  9.11E-08,  avg # of iterations =  1.0

     total cpu time spent up to now is      175.1 secs

     total energy              =    -329.48610960 Ry
     Harris-Foulkes estimate   =    -329.48611071 Ry
     estimated scf accuracy    <       0.00000309 Ry

     iteration #  6     ecut=    30.00 Ry     beta=0.70
     Davidson diagonalization with overlap
     ethr =  5.62E-09,  avg # of iterations =  2.0

     total cpu time spent up to now is      175.4 secs

     total energy              =    -329.48611024 Ry
     Harris-Foulkes estimate   =    -329.48611036 Ry
     estimated scf accuracy    <       0.00000018 Ry

     iteration #  7     ecut=    30.00 Ry     beta=0.70
     Davidson diagonalization with overlap
     ethr =  3.21E-10,  avg # of iterations =  3.0

     total cpu time spent up to now is      175.7 secs

     total energy              =    -329.48611032 Ry
     Harris-Foulkes estimate   =    -329.48611030 Ry
     estimated scf accuracy    <       0.00000004 Ry

     iteration #  8     ecut=    30.00 Ry     beta=0.70
     Davidson diagonalization with overlap
     ethr =  8.17E-11,  avg # of iterations =  2.0

     total cpu time spent up to now is      176.0 secs

     total energy              =    -329.48611022 Ry
     Harris-Foulkes estimate   =    -329.48611033 Ry
     estimated scf accuracy    <       0.00000001 Ry

     iteration #  9     ecut=    30.00 Ry     beta=0.70
     Davidson diagonalization with overlap
     ethr =  1.91E-11,  avg # of iterations =  2.0

     total cpu time spent up to now is      176.3 secs

     total energy              =    -329.48611023 Ry
     Harris-Foulkes estimate   =    -329.48611022 Ry
     estimated scf accuracy    <          1.2E-09 Ry

     iteration # 10     ecut=    30.00 Ry     beta=0.70
     Davidson diagonalization with overlap
     ethr =  2.13E-12,  avg # of iterations =  2.0

     total cpu time spent up to now is      176.6 secs

     total energy              =    -329.48611024 Ry
     Harris-Foulkes estimate   =    -329.48611023 Ry
     estimated scf accuracy    <          2.9E-10 Ry

     iteration # 11     ecut=    30.00 Ry     beta=0.70
     Davidson diagonalization with overlap
     ethr =  5.32E-13,  avg # of iterations =  2.0

     total cpu time spent up to now is      176.8 secs

     End of self-consistent calculation

          k = 0.0000 0.0000 0.0000 ( 22119 PWs)   bands (ev):

    -8.2282  -7.5282  -7.4965  -7.3430  -7.0339  -6.6424  -6.3571  -6.2468
    -6.1994  -6.1434  -6.1276  -5.7178  -5.6222  -5.6118  -5.5228  -5.4871
    -5.2673  -5.2203  -5.2164  -5.0672  -5.0464  -5.0115  -4.9167  -4.8825
    -4.8546  -4.7037  -4.3059  -3.7820  -2.5398  -2.0535  -0.4686  -0.2679
     0.3400   0.7706

     the Fermi energy is    -3.7748 ev

!    total energy              =    -329.48611024 Ry
     Harris-Foulkes estimate   =    -329.48611024 Ry
     estimated scf accuracy    <          2.4E-11 Ry

     The total energy is the sum of the following terms:

     one-electron contribution =    -597.23561981 Ry
     hartree contribution      =     320.17584368 Ry
     xc contribution           =     -51.40797312 Ry
     ewald contribution        =      -1.01895805 Ry
     smearing contrib. (-TS)   =       0.00059706 Ry

     convergence has been achieved in  11 iterations

     Forces acting on atoms (Ry/au):

     atom    1 type  1   force =     0.00061007    0.00063839   -0.00020576
     atom    2 type  1   force =    -0.00090073    0.00154494    0.00116965
     atom    3 type  1   force =     0.00113289   -0.00078786   -0.00068282
     atom    4 type  1   force =    -0.00054624   -0.00106267   -0.00068109
     atom    5 type  1   force =    -0.00029600   -0.00033281    0.00040001

     Total force =     0.003164     Total SCF correction =     0.000019

     number of scf cycles    =  48
     number of bfgs steps    =  47

     energy   old            =    -329.4860412945 Ry
     energy   new            =    -329.4861102433 Ry

     CASE: energy  _new < energy  _old

     new trust radius        =       0.0589936944 bohr
     new conv_thr            =            1.0E-10 Ry


ATOMIC_POSITIONS (bohr)
Au      -1.826156706   1.793725412  -0.429661839
Au       0.242977321   3.803117484   3.812014475
Au       3.045691083   0.741607656   0.728206802
Au       4.209065934   4.225627564   6.975878952
Au       6.978309367   1.184027884   3.920277610



     Writing output data file pwscf.save
     Check: negative starting charge=   -0.006120
     NEW-OLD atomic charge density approx. for the potential
     Check: negative starting charge=   -0.006124

     negative rho (up, down):  5.754E-04 0.000E+00

     total cpu time spent up to now is      177.1 secs

     per-process dynamical memory:    50.7 Mb

     Self-consistent Calculation

     iteration #  1     ecut=    30.00 Ry     beta=0.70
     Davidson diagonalization with overlap
     ethr =  1.00E-06,  avg # of iterations =  5.0

     negative rho (up, down):  2.434E-05 0.000E+00

     total cpu time spent up to now is      177.6 secs

     total energy              =    -329.48590258 Ry
     Harris-Foulkes estimate   =    -329.48590309 Ry
     estimated scf accuracy    <       0.00063933 Ry

     iteration #  2     ecut=    30.00 Ry     beta=0.70
     Davidson diagonalization with overlap
     ethr =  1.16E-06,  avg # of iterations =  5.0

     negative rho (up, down):  4.799E-06 0.000E+00

     total cpu time spent up to now is      177.9 secs

     total energy              =    -329.48596063 Ry
     Harris-Foulkes estimate   =    -329.48630633 Ry
     estimated scf accuracy    <       0.00076396 Ry

     iteration #  3     ecut=    30.00 Ry     beta=0.70
     Davidson diagonalization with overlap
     ethr =  1.16E-06,  avg # of iterations =  2.0

     negative rho (up, down):  1.141E-06 0.000E+00

     total cpu time spent up to now is      178.2 secs

     total energy              =    -329.48605108 Ry
     Harris-Foulkes estimate   =    -329.48623629 Ry
     estimated scf accuracy    <       0.00072304 Ry

     iteration #  4     ecut=    30.00 Ry     beta=0.70
     Davidson diagonalization with overlap
     ethr =  1.16E-06,  avg # of iterations =  1.0

     total cpu time spent up to now is      178.5 secs

     total energy              =    -329.48614876 Ry
     Harris-Foulkes estimate   =    -329.48615365 Ry
     estimated scf accuracy    <       0.00002608 Ry

     iteration #  5     ecut=    30.00 Ry     beta=0.70
     Davidson diagonalization with overlap
     ethr =  4.74E-08,  avg # of iterations =  2.0

     total cpu time spent up to now is      178.7 secs

     total energy              =    -329.48615318 Ry
     Harris-Foulkes estimate   =    -329.48615490 Ry
     estimated scf accuracy    <       0.00000492 Ry

     iteration #  6     ecut=    30.00 Ry     beta=0.70
     Davidson diagonalization with overlap
     ethr =  8.94E-09,  avg # of iterations =  2.0

     total cpu time spent up to now is      179.0 secs

     total energy              =    -329.48615406 Ry
     Harris-Foulkes estimate   =    -329.48615408 Ry
     estimated scf accuracy    <       0.00000040 Ry

     iteration #  7     ecut=    30.00 Ry     beta=0.70
     Davidson diagonalization with overlap
     ethr =  7.24E-10,  avg # of iterations =  2.0

     total cpu time spent up to now is      179.2 secs

     total energy              =    -329.48615419 Ry
     Harris-Foulkes estimate   =    -329.48615415 Ry
     estimated scf accuracy    <       0.00000006 Ry

     iteration #  8     ecut=    30.00 Ry     beta=0.70
     Davidson diagonalization with overlap
     ethr =  1.08E-10,  avg # of iterations =  2.0

     total cpu time spent up to now is      179.5 secs

     total energy              =    -329.48615405 Ry
     Harris-Foulkes estimate   =    -329.48615421 Ry
     estimated scf accuracy    <       0.00000002 Ry

     iteration #  9     ecut=    30.00 Ry     beta=0.70
     Davidson diagonalization with overlap
     ethr =  3.67E-11,  avg # of iterations =  2.0

     total cpu time spent up to now is      179.8 secs

     total energy              =    -329.48615408 Ry
     Harris-Foulkes estimate   =    -329.48615406 Ry
     estimated scf accuracy    <          3.4E-09 Ry

     iteration # 10     ecut=    30.00 Ry     beta=0.70
     Davidson diagonalization with overlap
     ethr =  6.16E-12,  avg # of iterations =  2.0

     total cpu time spent up to now is      180.1 secs

     total energy              =    -329.48615408 Ry
     Harris-Foulkes estimate   =    -329.48615408 Ry
     estimated scf accuracy    <          3.6E-10 Ry

     iteration # 11     ecut=    30.00 Ry     beta=0.70
     Davidson diagonalization with overlap
     ethr =  6.56E-13,  avg # of iterations =  2.0

     total cpu time spent up to now is      180.4 secs

     End of self-consistent calculation

          k = 0.0000 0.0000 0.0000 ( 22119 PWs)   bands (ev):

    -8.2258  -7.5315  -7.4933  -7.3402  -7.0358  -6.6417  -6.3539  -6.2483
    -6.1987  -6.1448  -6.1374  -5.7157  -5.6259  -5.6124  -5.5196  -5.4925
    -5.2668  -5.2200  -5.2160  -5.0678  -5.0477  -5.0104  -4.9158  -4.8812
    -4.8516  -4.6981  -4.3073  -3.7840  -2.5369  -2.0554  -0.4680  -0.2692
     0.3444   0.7739

     the Fermi energy is    -3.7771 ev

!    total energy              =    -329.48615407 Ry
     Harris-Foulkes estimate   =    -329.48615408 Ry
     estimated scf accuracy    <          6.8E-11 Ry

     The total energy is the sum of the following terms:

     one-electron contribution =    -597.30494704 Ry
     hartree contribution      =     320.21087283 Ry
     xc contribution           =     -51.40853998 Ry
     ewald contribution        =      -0.98421823 Ry
     smearing contrib. (-TS)   =       0.00067834 Ry

     convergence has been achieved in  11 iterations

     Forces acting on atoms (Ry/au):

     atom    1 type  1   force =    -0.00003119    0.00001066   -0.00093565
     atom    2 type  1   force =    -0.00061459    0.00167870    0.00159512
     atom    3 type  1   force =     0.00057832   -0.00075549   -0.00009770
     atom    4 type  1   force =     0.00018721   -0.00012053   -0.00069588
     atom    5 type  1   force =    -0.00011976   -0.00081334    0.00013411

     Total force =     0.002960     Total SCF correction =     0.000042

     number of scf cycles    =  49
     number of bfgs steps    =  48

     energy   old            =    -329.4861102433 Ry
     energy   new            =    -329.4861540676 Ry

     CASE: energy  _new < energy  _old

     new trust radius        =       0.0170678037 bohr
     new conv_thr            =            1.0E-10 Ry


ATOMIC_POSITIONS (bohr)
Au      -1.823509800   1.786876707  -0.426048630
Au       0.241931810   3.819185355   3.806354055
Au       3.049238249   0.741616082   0.726898751
Au       4.205942131   4.217703720   6.979318394
Au       6.976284609   1.182724136   3.920193429



     Writing output data file pwscf.save
     Check: negative starting charge=   -0.006124
     NEW-OLD atomic charge density approx. for the potential
     Check: negative starting charge=   -0.006126

     negative rho (up, down):  2.331E-05 0.000E+00

     total cpu time spent up to now is      180.7 secs

     per-process dynamical memory:    50.7 Mb

     Self-consistent Calculation

     iteration #  1     ecut=    30.00 Ry     beta=0.70
     Davidson diagonalization with overlap
     ethr =  1.00E-06,  avg # of iterations =  4.0

     Threshold (ethr) on eigenvalues was too large:
     Diagonalizing with lowered threshold

     Davidson diagonalization with overlap
     ethr =  9.99E-08,  avg # of iterations =  1.0

     negative rho (up, down):  3.193E-08 0.000E+00

     total cpu time spent up to now is      181.3 secs

     total energy              =    -329.48614135 Ry
     Harris-Foulkes estimate   =    -329.48616791 Ry
     estimated scf accuracy    <       0.00005536 Ry

     iteration #  2     ecut=    30.00 Ry     beta=0.70
     Davidson diagonalization with overlap
     ethr =  1.01E-07,  avg # of iterations =  3.0

     total cpu time spent up to now is      181.6 secs

     total energy              =    -329.48612218 Ry
     Harris-Foulkes estimate   =    -329.48619236 Ry
     estimated scf accuracy    <       0.00020247 Ry

     iteration #  3     ecut=    30.00 Ry     beta=0.70
     Davidson diagonalization with overlap
     ethr =  1.01E-07,  avg # of iterations =  3.0

     total cpu time spent up to now is      181.8 secs

     total energy              =    -329.48615293 Ry
     Harris-Foulkes estimate   =    -329.48617441 Ry
     estimated scf accuracy    <       0.00008939 Ry

     iteration #  4     ecut=    30.00 Ry     beta=0.70
     Davidson diagonalization with overlap
     ethr =  1.01E-07,  avg # of iterations =  1.0

     total cpu time spent up to now is      182.0 secs

     total energy              =    -329.48616351 Ry
     Harris-Foulkes estimate   =    -329.48616342 Ry
     estimated scf accuracy    <       0.00000072 Ry

     iteration #  5     ecut=    30.00 Ry     beta=0.70
     Davidson diagonalization with overlap
     ethr =  1.31E-09,  avg # of iterations =  4.0

     total cpu time spent up to now is      182.3 secs

     total energy              =    -329.48616395 Ry
     Harris-Foulkes estimate   =    -329.48616408 Ry
     estimated scf accuracy    <       0.00000061 Ry

     iteration #  6     ecut=    30.00 Ry     beta=0.70
     Davidson diagonalization with overlap
     ethr =  1.12E-09,  avg # of iterations =  2.0

     total cpu time spent up to now is      182.6 secs

     total energy              =    -329.48616394 Ry
     Harris-Foulkes estimate   =    -329.48616404 Ry
     estimated scf accuracy    <       0.00000007 Ry

     iteration #  7     ecut=    30.00 Ry     beta=0.70
     Davidson diagonalization with overlap
     ethr =  1.29E-10,  avg # of iterations =  2.0

     total cpu time spent up to now is      182.9 secs

     total energy              =    -329.48616410 Ry
     Harris-Foulkes estimate   =    -329.48616395 Ry
     estimated scf accuracy    <       0.00000002 Ry

     iteration #  8     ecut=    30.00 Ry     beta=0.70
     Davidson diagonalization with overlap
     ethr =  2.94E-11,  avg # of iterations =  3.0

     total cpu time spent up to now is      183.2 secs

     total energy              =    -329.48616402 Ry
     Harris-Foulkes estimate   =    -329.48616410 Ry
     estimated scf accuracy    <          1.9E-09 Ry

     iteration #  9     ecut=    30.00 Ry     beta=0.70
     Davidson diagonalization with overlap
     ethr =  3.42E-12,  avg # of iterations =  2.0

     total cpu time spent up to now is      183.5 secs

     total energy              =    -329.48616405 Ry
     Harris-Foulkes estimate   =    -329.48616402 Ry
     estimated scf accuracy    <          5.0E-10 Ry

     iteration # 10     ecut=    30.00 Ry     beta=0.70
     Davidson diagonalization with overlap
     ethr =  9.14E-13,  avg # of iterations =  2.0

     total cpu time spent up to now is      183.8 secs

     total energy              =    -329.48616405 Ry
     Harris-Foulkes estimate   =    -329.48616405 Ry
     estimated scf accuracy    <          1.5E-10 Ry

     iteration # 11     ecut=    30.00 Ry     beta=0.70
     Davidson diagonalization with overlap
     ethr =  2.73E-13,  avg # of iterations =  2.0

     total cpu time spent up to now is      184.0 secs

     End of self-consistent calculation

          k = 0.0000 0.0000 0.0000 ( 22119 PWs)   bands (ev):

    -8.2202  -7.5326  -7.4899  -7.3375  -7.0356  -6.6385  -6.3517  -6.2503
    -6.1959  -6.1487  -6.1389  -5.7147  -5.6264  -5.6119  -5.5164  -5.4941
    -5.2673  -5.2207  -5.2152  -5.0684  -5.0489  -5.0088  -4.9148  -4.8806
    -4.8498  -4.6937  -4.3091  -3.7867  -2.5354  -2.0571  -0.4674  -0.2703
     0.3464   0.7749

     the Fermi energy is    -3.7803 ev

!    total energy              =    -329.48616405 Ry
     Harris-Foulkes estimate   =    -329.48616405 Ry
     estimated scf accuracy    <          1.4E-11 Ry

     The total energy is the sum of the following terms:

     one-electron contribution =    -597.21924590 Ry
     hartree contribution      =     320.16923323 Ry
     xc contribution           =     -51.40843999 Ry
     ewald contribution        =      -1.02848204 Ry
     smearing contrib. (-TS)   =       0.00077064 Ry

     convergence has been achieved in  11 iterations

     Forces acting on atoms (Ry/au):

     atom    1 type  1   force =    -0.00011855   -0.00002813   -0.00095604
     atom    2 type  1   force =    -0.00023013    0.00110570    0.00115523
     atom    3 type  1   force =    -0.00019628   -0.00042804    0.00012355
     atom    4 type  1   force =     0.00024721    0.00008360   -0.00072207
     atom    5 type  1   force =     0.00029774   -0.00073313    0.00039933

     Total force =     0.002270     Total SCF correction =     0.000014

     number of scf cycles    =  50
     number of bfgs steps    =  49

     energy   old            =    -329.4861540676 Ry
     energy   new            =    -329.4861640480 Ry

     CASE: energy  _new < energy  _old

     new trust radius        =       0.0088721348 bohr
     new conv_thr            =            1.0E-10 Ry


ATOMIC_POSITIONS (bohr)
Au      -1.821248456   1.789543169  -0.428338068
Au       0.237886209   3.815622714   3.813400720
Au       3.049036058   0.739009510   0.726790080
Au       4.208954242   4.221918087   6.976455771
Au       6.975258947   1.182012520   3.918407498



     Writing output data file pwscf.save
     Check: negative starting charge=   -0.006126
     NEW-OLD atomic charge density approx. for the potential
     Check: negative starting charge=   -0.006125

     negative rho (up, down):  1.502E-06 0.000E+00

     Writing output data file pwscf.save
 
     init_run     :      0.24s CPU      0.30s WALL (       1 calls)
     electrons    :    162.36s CPU    171.35s WALL (      50 calls)
     update_pot   :      4.21s CPU      5.29s WALL (      50 calls)
     forces       :      2.43s CPU      2.49s WALL (      50 calls)

     Called by init_run:
     wfcinit      :      0.14s CPU      0.19s WALL (       1 calls)
     potinit      :      0.04s CPU      0.04s WALL (       1 calls)

     Called by electrons:
     c_bands      :    121.79s CPU    123.65s WALL (     548 calls)
     sum_band     :     14.25s CPU     14.55s WALL (     548 calls)
     v_of_rho     :     13.67s CPU     13.90s WALL (     597 calls)
     mix_rho      :      7.90s CPU     11.92s WALL (     548 calls)

     Called by c_bands:
     init_us_2    :      1.73s CPU      1.78s WALL (    1097 calls)
     cegterg      :    111.39s CPU    112.94s WALL (     548 calls)

     Called by sum_band:

     Called by *egterg:
     h_psi        :     79.52s CPU     80.46s WALL (    2099 calls)
     g_psi        :      0.69s CPU      0.69s WALL (    1550 calls)
     cdiaghg      :     11.21s CPU     11.45s WALL (    2047 calls)

     Called by h_psi:
     h_psi:pot    :     78.55s CPU     79.48s WALL (    2099 calls)
     h_psi:calbec :      5.39s CPU      5.48s WALL (    2099 calls)
     vloc_psi     :     69.03s CPU     69.86s WALL (    2099 calls)
     add_vuspsi   :      4.12s CPU      4.13s WALL (    2099 calls)

     General routines
     calbec       :      6.19s CPU      6.29s WALL (    2299 calls)
     fft          :      7.83s CPU      7.98s WALL (    6671 calls)
     fftw         :     72.76s CPU     74.12s WALL (  127494 calls)
     davcio       :      0.77s CPU      4.04s WALL (    6272 calls)
 
     Parallel routines
     fft_scatter  :     29.60s CPU     29.60s WALL (  134165 calls)
 
     PWSCF        :  2m51.70s CPU     3m 4.35s WALL

 
   This run was terminated on:   1:13:40  29Jul2017            

=------------------------------------------------------------------------------=
   JOB DONE.
=------------------------------------------------------------------------------=
