
     Program PWSCF v.6.0 (svn rev. 13079) starts on 29Jul2017 at  1:20:57 

     This program is part of the open-source Quantum ESPRESSO suite
     for quantum simulation of materials; please cite
         "P. Giannozzi et al., J. Phys.:Condens. Matter 21 395502 (2009);
          URL http://www.quantum-espresso.org", 
     in publications or presentations arising from this work. More details at
     http://www.quantum-espresso.org/quote

     Parallel version (MPI), running on    10 processors
     R & G space division:  proc/nbgrp/npool/nimage =      10
     Reading input from input/dftmin-Gold5-multi-17.in

     Current dimensions of program PWSCF are:
     Max number of different atomic species (ntypx) = 10
     Max number of k-points (npk) =  40000
     Max angular momentum in pseudopotentials (lmaxx) =  3
     Message from routine iosys:
     pot_extrapolation='second-order' not available, using 'atomic'
     Message from routine iosys:
     wfc_extrapolation='second-order' not available, using 'atomic'

     Subspace diagonalization in iterative solution of the eigenvalue problem:
     a serial algorithm will be used

 
     Parallelization info
     --------------------
     sticks:   dense  smooth     PW     G-vecs:    dense   smooth      PW
     Min         380     380     94                17748    17748    2208
     Max         381     381     95                17753    17753    2213
     Sum        3809    3809    949               177509   177509   22119
 


     bravais-lattice index     =            1
     lattice parameter (alat)  =      20.0000  a.u.
     unit-cell volume          =    8000.0000 (a.u.)^3
     number of atoms/cell      =            5
     number of atomic types    =            1
     number of electrons       =        55.00
     number of Kohn-Sham states=           34
     kinetic-energy cutoff     =      30.0000  Ry
     charge density cutoff     =     120.0000  Ry
     convergence threshold     =      1.0E-08
     mixing beta               =       0.7000
     number of iterations used =            8  plain     mixing
     Exchange-correlation      = BLYP ( 1  3  1  3 0 0)
     nstep                     =           50


     celldm(1)=  20.000000  celldm(2)=   0.000000  celldm(3)=   0.000000
     celldm(4)=   0.000000  celldm(5)=   0.000000  celldm(6)=   0.000000

     crystal axes: (cart. coord. in units of alat)
               a(1) = (   1.000000   0.000000   0.000000 )  
               a(2) = (   0.000000   1.000000   0.000000 )  
               a(3) = (   0.000000   0.000000   1.000000 )  

     reciprocal axes: (cart. coord. in units 2 pi/alat)
               b(1) = (  1.000000  0.000000  0.000000 )  
               b(2) = (  0.000000  1.000000  0.000000 )  
               b(3) = (  0.000000  0.000000  1.000000 )  


     PseudoPot. # 1 for Au read from file:
     ./Au.blyp-d-hgh.UPF
     MD5 check sum: c10d8bae01f806c36a1643a1c69a8479
     Pseudo is Norm-conserving, Zval = 11.0
     Generated in analytical, separable form
     Using radial grid of 1279 points,  6 beta functions with: 
                l(1) =   0
                l(2) =   0
                l(3) =   1
                l(4) =   1
                l(5) =   2
                l(6) =   2

     atomic species   valence    mass     pseudopotential
        Au            11.00    28.08600     Au( 1.00)

     No symmetry found



   Cartesian axes

     site n.     atom                  positions (alat units)
         1           Au  tau(   1) = (  -0.0846715   0.1070312  -0.0553387  )
         2           Au  tau(   2) = (  -0.0457638   0.1630807   0.1873228  )
         3           Au  tau(   3) = (   0.1638572   0.0774227   0.0161952  )
         4           Au  tau(   4) = (   0.1898218   0.1740068   0.2884258  )
         5           Au  tau(   5) = (   0.3964264   0.0941027   0.1614476  )

     number of k points=     1  Marzari-Vanderbilt smearing, width (Ry)=  0.0250
                       cart. coord. in units 2pi/alat
        k(    1) = (   0.0000000   0.0000000   0.0000000), wk =   2.0000000

     Dense  grid:   177509 G-vectors     FFT dimensions: (  72,  72,  72)

     Estimated max dynamical RAM per process >      15.04Mb

     Estimated total allocated dynamical RAM >     150.39Mb

     Initial potential from superposition of free atoms
     Check: negative starting charge=   -0.006409

     starting charge   54.99940, renormalised to   55.00000

     negative rho (up, down):  6.409E-03 0.000E+00
     Starting wfc are   45 randomized atomic wfcs

     total cpu time spent up to now is        0.4 secs

     per-process dynamical memory:    41.0 Mb

     Self-consistent Calculation

     iteration #  1     ecut=    30.00 Ry     beta=0.70
     Davidson diagonalization with overlap
     ethr =  1.00E-02,  avg # of iterations =  3.0

     Threshold (ethr) on eigenvalues was too large:
     Diagonalizing with lowered threshold

     Davidson diagonalization with overlap
     ethr =  3.85E-04,  avg # of iterations =  5.0

     negative rho (up, down):  8.818E-04 0.000E+00

     total cpu time spent up to now is        0.9 secs

     total energy              =    -329.37134387 Ry
     Harris-Foulkes estimate   =    -329.52912203 Ry
     estimated scf accuracy    <       0.26450802 Ry

     iteration #  2     ecut=    30.00 Ry     beta=0.70
     Davidson diagonalization with overlap
     ethr =  4.81E-04,  avg # of iterations =  5.0

     negative rho (up, down):  3.947E-04 0.000E+00

     total cpu time spent up to now is        1.2 secs

     total energy              =    -329.40427560 Ry
     Harris-Foulkes estimate   =    -329.54482366 Ry
     estimated scf accuracy    <       0.28956811 Ry

     iteration #  3     ecut=    30.00 Ry     beta=0.70
     Davidson diagonalization with overlap
     ethr =  4.81E-04,  avg # of iterations =  2.0

     negative rho (up, down):  1.490E-04 0.000E+00

     total cpu time spent up to now is        1.5 secs

     total energy              =    -329.46395800 Ry
     Harris-Foulkes estimate   =    -329.48828106 Ry
     estimated scf accuracy    <       0.06342412 Ry

     iteration #  4     ecut=    30.00 Ry     beta=0.70
     Davidson diagonalization with overlap
     ethr =  1.15E-04,  avg # of iterations =  2.0

     negative rho (up, down):  4.941E-06 0.000E+00

     total cpu time spent up to now is        1.7 secs

     total energy              =    -329.47527593 Ry
     Harris-Foulkes estimate   =    -329.47631445 Ry
     estimated scf accuracy    <       0.00255069 Ry

     iteration #  5     ecut=    30.00 Ry     beta=0.70
     Davidson diagonalization with overlap
     ethr =  4.64E-06,  avg # of iterations =  8.0

     total cpu time spent up to now is        2.2 secs

     total energy              =    -329.47592779 Ry
     Harris-Foulkes estimate   =    -329.47679650 Ry
     estimated scf accuracy    <       0.00228759 Ry

     iteration #  6     ecut=    30.00 Ry     beta=0.70
     Davidson diagonalization with overlap
     ethr =  4.16E-06,  avg # of iterations =  2.0

     total cpu time spent up to now is        2.4 secs

     total energy              =    -329.47628869 Ry
     Harris-Foulkes estimate   =    -329.47642034 Ry
     estimated scf accuracy    <       0.00033999 Ry

     iteration #  7     ecut=    30.00 Ry     beta=0.70
     Davidson diagonalization with overlap
     ethr =  6.18E-07,  avg # of iterations =  2.0

     total cpu time spent up to now is        2.7 secs

     total energy              =    -329.47634846 Ry
     Harris-Foulkes estimate   =    -329.47636440 Ry
     estimated scf accuracy    <       0.00004016 Ry

     iteration #  8     ecut=    30.00 Ry     beta=0.70
     Davidson diagonalization with overlap
     ethr =  7.30E-08,  avg # of iterations =  2.0

     total cpu time spent up to now is        3.0 secs

     total energy              =    -329.47635699 Ry
     Harris-Foulkes estimate   =    -329.47636210 Ry
     estimated scf accuracy    <       0.00001144 Ry

     iteration #  9     ecut=    30.00 Ry     beta=0.70
     Davidson diagonalization with overlap
     ethr =  2.08E-08,  avg # of iterations =  2.0

     total cpu time spent up to now is        3.2 secs

     total energy              =    -329.47635906 Ry
     Harris-Foulkes estimate   =    -329.47635985 Ry
     estimated scf accuracy    <       0.00000119 Ry

     iteration # 10     ecut=    30.00 Ry     beta=0.70
     Davidson diagonalization with overlap
     ethr =  2.16E-09,  avg # of iterations =  2.0

     total cpu time spent up to now is        3.6 secs

     total energy              =    -329.47635929 Ry
     Harris-Foulkes estimate   =    -329.47635943 Ry
     estimated scf accuracy    <       0.00000027 Ry

     iteration # 11     ecut=    30.00 Ry     beta=0.70
     Davidson diagonalization with overlap
     ethr =  4.83E-10,  avg # of iterations =  2.0

     total cpu time spent up to now is        3.9 secs

     total energy              =    -329.47635931 Ry
     Harris-Foulkes estimate   =    -329.47635935 Ry
     estimated scf accuracy    <       0.00000001 Ry

     iteration # 12     ecut=    30.00 Ry     beta=0.70
     Davidson diagonalization with overlap
     ethr =  2.47E-11,  avg # of iterations =  3.0

     total cpu time spent up to now is        4.2 secs

     End of self-consistent calculation

          k = 0.0000 0.0000 0.0000 ( 22119 PWs)   bands (ev):

    -8.0549  -7.5205  -7.4902  -7.1126  -6.8060  -6.6778  -6.5461  -6.3809
    -6.2235  -6.0124  -5.8172  -5.6621  -5.6241  -5.5844  -5.4571  -5.4109
    -5.3427  -5.2135  -5.1942  -5.1798  -5.1509  -5.1342  -5.0922  -4.8858
    -4.8241  -4.8098  -4.4205  -3.7888  -2.7700  -2.1500  -0.5186  -0.2065
     0.3484   0.8101

     the Fermi energy is    -3.7649 ev

!    total energy              =    -329.47635930 Ry
     Harris-Foulkes estimate   =    -329.47635932 Ry
     estimated scf accuracy    <          4.6E-09 Ry

     The total energy is the sum of the following terms:

     one-electron contribution =    -593.80784878 Ry
     hartree contribution      =     318.44182785 Ry
     xc contribution           =     -51.36018172 Ry
     ewald contribution        =      -2.74756925 Ry
     smearing contrib. (-TS)   =      -0.00258739 Ry

     convergence has been achieved in  12 iterations

     Forces acting on atoms (Ry/au):

     atom    1 type  1   force =     0.01313885   -0.00580392   -0.00701689
     atom    2 type  1   force =     0.00747061    0.00065206    0.00169609
     atom    3 type  1   force =     0.00353869    0.01212912    0.02823774
     atom    4 type  1   force =     0.00380580   -0.00466399   -0.00780577
     atom    5 type  1   force =    -0.02795394   -0.00231326   -0.01511116

     Total force =     0.048826     Total SCF correction =     0.000308

     BFGS Geometry Optimization

     number of scf cycles    =   1
     number of bfgs steps    =   0

     energy   new            =    -329.4763593002 Ry

     new trust radius        =       0.0318609654 bohr
     new conv_thr            =       0.0000000100 Ry


ATOMIC_POSITIONS (bohr)
Au      -1.680290154   2.134819076  -1.113790893
Au      -0.907805393   3.262267055   3.748151090
Au       3.280682689   1.560584122   0.352141737
Au       3.800241796   3.475472009   5.760710230
Au       7.900574062   1.879740738   3.213841836



     Writing output data file pwscf.save
     Check: negative starting charge=   -0.006409
     NEW-OLD atomic charge density approx. for the potential
     Check: negative starting charge=   -0.006406

     negative rho (up, down):  1.923E-04 0.000E+00

     total cpu time spent up to now is        4.4 secs

     per-process dynamical memory:    42.9 Mb

     Self-consistent Calculation

     iteration #  1     ecut=    30.00 Ry     beta=0.70
     Davidson diagonalization with overlap
     ethr =  1.00E-06,  avg # of iterations =  4.0

     negative rho (up, down):  3.120E-06 0.000E+00

     total cpu time spent up to now is        4.9 secs

     total energy              =    -329.47856095 Ry
     Harris-Foulkes estimate   =    -329.47854417 Ry
     estimated scf accuracy    <       0.00014594 Ry

     iteration #  2     ecut=    30.00 Ry     beta=0.70
     Davidson diagonalization with overlap
     ethr =  2.65E-07,  avg # of iterations =  3.0

     negative rho (up, down):  7.221E-07 0.000E+00

     total cpu time spent up to now is        5.2 secs

     total energy              =    -329.47853242 Ry
     Harris-Foulkes estimate   =    -329.47869904 Ry
     estimated scf accuracy    <       0.00044277 Ry

     iteration #  3     ecut=    30.00 Ry     beta=0.70
     Davidson diagonalization with overlap
     ethr =  2.65E-07,  avg # of iterations =  2.0

     total cpu time spent up to now is        5.5 secs

     total energy              =    -329.47861778 Ry
     Harris-Foulkes estimate   =    -329.47862843 Ry
     estimated scf accuracy    <       0.00003717 Ry

     iteration #  4     ecut=    30.00 Ry     beta=0.70
     Davidson diagonalization with overlap
     ethr =  6.76E-08,  avg # of iterations =  2.0

     total cpu time spent up to now is        5.8 secs

     total energy              =    -329.47862529 Ry
     Harris-Foulkes estimate   =    -329.47862692 Ry
     estimated scf accuracy    <       0.00000605 Ry

     iteration #  5     ecut=    30.00 Ry     beta=0.70
     Davidson diagonalization with overlap
     ethr =  1.10E-08,  avg # of iterations =  2.0

     total cpu time spent up to now is        6.0 secs

     total energy              =    -329.47862625 Ry
     Harris-Foulkes estimate   =    -329.47862690 Ry
     estimated scf accuracy    <       0.00000088 Ry

     iteration #  6     ecut=    30.00 Ry     beta=0.70
     Davidson diagonalization with overlap
     ethr =  1.59E-09,  avg # of iterations =  2.0

     total cpu time spent up to now is        6.3 secs

     total energy              =    -329.47862639 Ry
     Harris-Foulkes estimate   =    -329.47862647 Ry
     estimated scf accuracy    <       0.00000009 Ry

     iteration #  7     ecut=    30.00 Ry     beta=0.70
     Davidson diagonalization with overlap
     ethr =  1.60E-10,  avg # of iterations =  2.0

     total cpu time spent up to now is        6.6 secs

     total energy              =    -329.47862643 Ry
     Harris-Foulkes estimate   =    -329.47862643 Ry
     estimated scf accuracy    <       0.00000004 Ry

     iteration #  8     ecut=    30.00 Ry     beta=0.70
     Davidson diagonalization with overlap
     ethr =  7.01E-11,  avg # of iterations =  2.0

     total cpu time spent up to now is        6.9 secs

     End of self-consistent calculation

          k = 0.0000 0.0000 0.0000 ( 22119 PWs)   bands (ev):

    -8.0848  -7.5487  -7.5183  -7.1414  -6.8239  -6.6937  -6.5543  -6.4026
    -6.2456  -6.0175  -5.8328  -5.6758  -5.6369  -5.5946  -5.4592  -5.4104
    -5.3417  -5.2171  -5.1914  -5.1795  -5.1551  -5.1301  -5.0985  -4.8790
    -4.8236  -4.8054  -4.4197  -3.7830  -2.7465  -2.1447  -0.5243  -0.2039
     0.3532   0.8161

     the Fermi energy is    -3.7583 ev

!    total energy              =    -329.47862649 Ry
     Harris-Foulkes estimate   =    -329.47862643 Ry
     estimated scf accuracy    <          2.5E-09 Ry

     The total energy is the sum of the following terms:

     one-electron contribution =    -595.85781095 Ry
     hartree contribution      =     319.45280248 Ry
     xc contribution           =     -51.36575719 Ry
     ewald contribution        =      -1.70511135 Ry
     smearing contrib. (-TS)   =      -0.00274948 Ry

     convergence has been achieved in   8 iterations

     Forces acting on atoms (Ry/au):

     atom    1 type  1   force =     0.01309090   -0.00554996   -0.00590243
     atom    2 type  1   force =     0.00607393    0.00069376    0.00111146
     atom    3 type  1   force =     0.00273696    0.01157320    0.02549574
     atom    4 type  1   force =     0.00248407   -0.00358051   -0.00496183
     atom    5 type  1   force =    -0.02438585   -0.00313648   -0.01574294

     Total force =     0.044306     Total SCF correction =     0.000189

     number of scf cycles    =   2
     number of bfgs steps    =   1

     energy   old            =    -329.4763593002 Ry
     energy   new            =    -329.4786264937 Ry

     CASE: energy  _new < energy  _old


     WARNING: bfgs curvature condition failed, Theta= 0.885
     new trust radius        =       0.0350470619 bohr
     new conv_thr            =       0.0000000023 Ry


ATOMIC_POSITIONS (bohr)
Au      -1.664857629   2.128216813  -1.121027693
Au      -0.900294639   3.263073632   3.749609351
Au       3.284111030   1.574358374   0.382873162
Au       3.803504797   3.470978190   5.754140552
Au       7.870939441   1.876255991   3.195458628



     Writing output data file pwscf.save
     Check: negative starting charge=   -0.006406
     NEW-OLD atomic charge density approx. for the potential
     Check: negative starting charge=   -0.006402

     negative rho (up, down):  2.379E-04 0.000E+00

     total cpu time spent up to now is        7.2 secs

     per-process dynamical memory:    50.7 Mb

     Self-consistent Calculation

     iteration #  1     ecut=    30.00 Ry     beta=0.70
     Davidson diagonalization with overlap
     ethr =  1.00E-06,  avg # of iterations =  4.0

     negative rho (up, down):  4.837E-06 0.000E+00

     total cpu time spent up to now is        7.7 secs

     total energy              =    -329.48077864 Ry
     Harris-Foulkes estimate   =    -329.48074537 Ry
     estimated scf accuracy    <       0.00016852 Ry

     iteration #  2     ecut=    30.00 Ry     beta=0.70
     Davidson diagonalization with overlap
     ethr =  3.06E-07,  avg # of iterations =  3.0

     negative rho (up, down):  1.153E-06 0.000E+00

     total cpu time spent up to now is        8.0 secs

     total energy              =    -329.48075062 Ry
     Harris-Foulkes estimate   =    -329.48092780 Ry
     estimated scf accuracy    <       0.00045973 Ry

     iteration #  3     ecut=    30.00 Ry     beta=0.70
     Davidson diagonalization with overlap
     ethr =  3.06E-07,  avg # of iterations =  2.0

     total cpu time spent up to now is        8.3 secs

     total energy              =    -329.48084241 Ry
     Harris-Foulkes estimate   =    -329.48085595 Ry
     estimated scf accuracy    <       0.00004844 Ry

     iteration #  4     ecut=    30.00 Ry     beta=0.70
     Davidson diagonalization with overlap
     ethr =  8.81E-08,  avg # of iterations =  2.0

     total cpu time spent up to now is        8.5 secs

     total energy              =    -329.48085249 Ry
     Harris-Foulkes estimate   =    -329.48085386 Ry
     estimated scf accuracy    <       0.00000681 Ry

     iteration #  5     ecut=    30.00 Ry     beta=0.70
     Davidson diagonalization with overlap
     ethr =  1.24E-08,  avg # of iterations =  2.0

     total cpu time spent up to now is        8.8 secs

     total energy              =    -329.48085365 Ry
     Harris-Foulkes estimate   =    -329.48085436 Ry
     estimated scf accuracy    <       0.00000107 Ry

     iteration #  6     ecut=    30.00 Ry     beta=0.70
     Davidson diagonalization with overlap
     ethr =  1.95E-09,  avg # of iterations =  2.0

     total cpu time spent up to now is        9.1 secs

     total energy              =    -329.48085398 Ry
     Harris-Foulkes estimate   =    -329.48085393 Ry
     estimated scf accuracy    <       0.00000009 Ry

     iteration #  7     ecut=    30.00 Ry     beta=0.70
     Davidson diagonalization with overlap
     ethr =  1.68E-10,  avg # of iterations =  2.0

     total cpu time spent up to now is        9.4 secs

     total energy              =    -329.48085398 Ry
     Harris-Foulkes estimate   =    -329.48085402 Ry
     estimated scf accuracy    <       0.00000004 Ry

     iteration #  8     ecut=    30.00 Ry     beta=0.70
     Davidson diagonalization with overlap
     ethr =  7.32E-11,  avg # of iterations =  2.0

     total cpu time spent up to now is        9.6 secs

     total energy              =    -329.48085400 Ry
     Harris-Foulkes estimate   =    -329.48085399 Ry
     estimated scf accuracy    <          3.7E-09 Ry

     iteration #  9     ecut=    30.00 Ry     beta=0.70
     Davidson diagonalization with overlap
     ethr =  6.69E-12,  avg # of iterations =  3.0

     total cpu time spent up to now is        9.9 secs

     End of self-consistent calculation

          k = 0.0000 0.0000 0.0000 ( 22119 PWs)   bands (ev):

    -8.1222  -7.5829  -7.5455  -7.1718  -6.8437  -6.7080  -6.5688  -6.4242
    -6.2683  -6.0219  -5.8513  -5.6889  -5.6502  -5.6059  -5.4603  -5.4096
    -5.3404  -5.2202  -5.1888  -5.1791  -5.1604  -5.1239  -5.1037  -4.8727
    -4.8235  -4.7992  -4.4189  -3.7774  -2.7200  -2.1399  -0.5306  -0.2015
     0.3595   0.8227

     the Fermi energy is    -3.7519 ev

!    total energy              =    -329.48085399 Ry
     Harris-Foulkes estimate   =    -329.48085400 Ry
     estimated scf accuracy    <          1.3E-09 Ry

     The total energy is the sum of the following terms:

     one-electron contribution =    -598.06471462 Ry
     hartree contribution      =     320.54122725 Ry
     xc contribution           =     -51.37194747 Ry
     ewald contribution        =      -0.58251745 Ry
     smearing contrib. (-TS)   =      -0.00290171 Ry

     convergence has been achieved in   9 iterations

     Forces acting on atoms (Ry/au):

     atom    1 type  1   force =     0.01272881   -0.00515517   -0.00492471
     atom    2 type  1   force =     0.00459438    0.00074004    0.00055152
     atom    3 type  1   force =     0.00174448    0.01073996    0.02276033
     atom    4 type  1   force =     0.00116266   -0.00244929   -0.00202531
     atom    5 type  1   force =    -0.02023032   -0.00387555   -0.01636183

     Total force =     0.039682     Total SCF correction =     0.000164

     number of scf cycles    =   3
     number of bfgs steps    =   2

     energy   old            =    -329.4786264937 Ry
     energy   new            =    -329.4808539869 Ry

     CASE: energy  _new < energy  _old

     new trust radius        =       0.0525705929 bohr
     new conv_thr            =       0.0000000022 Ry


ATOMIC_POSITIONS (bohr)
Au      -1.640261272   2.118058671  -1.131345927
Au      -0.890300528   3.264459010   3.751137282
Au       3.288185303   1.595537307   0.428818673
Au       3.806817512   3.465372028   5.747893599
Au       7.828961984   1.869455984   3.164550372



     Writing output data file pwscf.save
     Check: negative starting charge=   -0.006402
     NEW-OLD atomic charge density approx. for the potential
     Check: negative starting charge=   -0.006394

     negative rho (up, down):  5.537E-04 0.000E+00

     total cpu time spent up to now is       10.3 secs

     per-process dynamical memory:    50.7 Mb

     Self-consistent Calculation

     iteration #  1     ecut=    30.00 Ry     beta=0.70
     Davidson diagonalization with overlap
     ethr =  1.00E-06,  avg # of iterations =  5.0

     negative rho (up, down):  2.379E-05 0.000E+00

     total cpu time spent up to now is       10.7 secs

     total energy              =    -329.48356799 Ry
     Harris-Foulkes estimate   =    -329.48334321 Ry
     estimated scf accuracy    <       0.00036451 Ry

     iteration #  2     ecut=    30.00 Ry     beta=0.70
     Davidson diagonalization with overlap
     ethr =  6.63E-07,  avg # of iterations =  5.0

     negative rho (up, down):  7.533E-06 0.000E+00

     total cpu time spent up to now is       11.1 secs

     total energy              =    -329.48352183 Ry
     Harris-Foulkes estimate   =    -329.48386655 Ry
     estimated scf accuracy    <       0.00086458 Ry

     iteration #  3     ecut=    30.00 Ry     beta=0.70
     Davidson diagonalization with overlap
     ethr =  6.63E-07,  avg # of iterations =  3.0

     negative rho (up, down):  1.170E-07 0.000E+00

     total cpu time spent up to now is       11.4 secs

     total energy              =    -329.48369985 Ry
     Harris-Foulkes estimate   =    -329.48373448 Ry
     estimated scf accuracy    <       0.00011914 Ry

     iteration #  4     ecut=    30.00 Ry     beta=0.70
     Davidson diagonalization with overlap
     ethr =  2.17E-07,  avg # of iterations =  2.0

     total cpu time spent up to now is       11.6 secs

     total energy              =    -329.48372363 Ry
     Harris-Foulkes estimate   =    -329.48372697 Ry
     estimated scf accuracy    <       0.00001407 Ry

     iteration #  5     ecut=    30.00 Ry     beta=0.70
     Davidson diagonalization with overlap
     ethr =  2.56E-08,  avg # of iterations =  2.0

     total cpu time spent up to now is       11.9 secs

     total energy              =    -329.48372639 Ry
     Harris-Foulkes estimate   =    -329.48372762 Ry
     estimated scf accuracy    <       0.00000253 Ry

     iteration #  6     ecut=    30.00 Ry     beta=0.70
     Davidson diagonalization with overlap
     ethr =  4.60E-09,  avg # of iterations =  2.0

     total cpu time spent up to now is       12.2 secs

     total energy              =    -329.48372696 Ry
     Harris-Foulkes estimate   =    -329.48372701 Ry
     estimated scf accuracy    <       0.00000021 Ry

     iteration #  7     ecut=    30.00 Ry     beta=0.70
     Davidson diagonalization with overlap
     ethr =  3.80E-10,  avg # of iterations =  2.0

     total cpu time spent up to now is       12.5 secs

     total energy              =    -329.48372708 Ry
     Harris-Foulkes estimate   =    -329.48372704 Ry
     estimated scf accuracy    <       0.00000009 Ry

     iteration #  8     ecut=    30.00 Ry     beta=0.70
     Davidson diagonalization with overlap
     ethr =  1.67E-10,  avg # of iterations =  2.0

     total cpu time spent up to now is       12.8 secs

     total energy              =    -329.48372707 Ry
     Harris-Foulkes estimate   =    -329.48372710 Ry
     estimated scf accuracy    <          8.5E-09 Ry

     iteration #  9     ecut=    30.00 Ry     beta=0.70
     Davidson diagonalization with overlap
     ethr =  1.54E-11,  avg # of iterations =  3.0

     total cpu time spent up to now is       13.1 secs

     total energy              =    -329.48372706 Ry
     Harris-Foulkes estimate   =    -329.48372708 Ry
     estimated scf accuracy    <          2.3E-09 Ry

     iteration # 10     ecut=    30.00 Ry     beta=0.70
     Davidson diagonalization with overlap
     ethr =  4.26E-12,  avg # of iterations =  2.0

     total cpu time spent up to now is       13.3 secs

     End of self-consistent calculation

          k = 0.0000 0.0000 0.0000 ( 22119 PWs)   bands (ev):

    -8.1857  -7.6345  -7.5834  -7.2150  -6.8720  -6.7236  -6.6016  -6.4499
    -6.2996  -6.0270  -5.8815  -5.7062  -5.6685  -5.6232  -5.4606  -5.4079
    -5.3380  -5.2226  -5.1876  -5.1786  -5.1678  -5.1184  -5.1029  -4.8663
    -4.8235  -4.7880  -4.4180  -3.7700  -2.6796  -2.1345  -0.5398  -0.1984
     0.3710   0.8325

     the Fermi energy is    -3.7436 ev

!    total energy              =    -329.48372704 Ry
     Harris-Foulkes estimate   =    -329.48372706 Ry
     estimated scf accuracy    <          2.0E-10 Ry

     The total energy is the sum of the following terms:

     one-electron contribution =    -601.26139900 Ry
     hartree contribution      =     322.11749379 Ry
     xc contribution           =     -51.38139654 Ry
     ewald contribution        =       1.04466864 Ry
     smearing contrib. (-TS)   =      -0.00309393 Ry

     convergence has been achieved in  10 iterations

     Forces acting on atoms (Ry/au):

     atom    1 type  1   force =     0.01166776   -0.00450649   -0.00374971
     atom    2 type  1   force =     0.00235152    0.00085463   -0.00020245
     atom    3 type  1   force =    -0.00004538    0.00920623    0.01902074
     atom    4 type  1   force =    -0.00043224   -0.00087035    0.00202680
     atom    5 type  1   force =    -0.01354166   -0.00468403   -0.01709538

     Total force =     0.033556     Total SCF correction =     0.000055

     number of scf cycles    =   4
     number of bfgs steps    =   3

     energy   old            =    -329.4808539869 Ry
     energy   new            =    -329.4837270354 Ry

     CASE: energy  _new < energy  _old

     new trust radius        =       0.0788558893 bohr
     new conv_thr            =       0.0000000019 Ry


ATOMIC_POSITIONS (bohr)
Au      -1.601692396   2.102447649  -1.146435023
Au      -0.877471797   3.266915309   3.752459504
Au       3.291995306   1.627783020   0.498246154
Au       3.809764352   3.458669967   5.744028993
Au       7.770807535   1.857067054   3.112754372



     Writing output data file pwscf.save
     Check: negative starting charge=   -0.006394
     NEW-OLD atomic charge density approx. for the potential
     Check: negative starting charge=   -0.006381

     negative rho (up, down):  1.163E-03 0.000E+00

     total cpu time spent up to now is       13.7 secs

     per-process dynamical memory:    50.7 Mb

     Self-consistent Calculation

     iteration #  1     ecut=    30.00 Ry     beta=0.70
     Davidson diagonalization with overlap
     ethr =  1.00E-06,  avg # of iterations =  9.0

     negative rho (up, down):  8.292E-05 0.000E+00

     total cpu time spent up to now is       14.3 secs

     total energy              =    -329.48660971 Ry
     Harris-Foulkes estimate   =    -329.48583323 Ry
     estimated scf accuracy    <       0.00077588 Ry

     iteration #  2     ecut=    30.00 Ry     beta=0.70
     Davidson diagonalization with overlap
     ethr =  1.41E-06,  avg # of iterations =  6.0

     negative rho (up, down):  3.109E-05 0.000E+00

     total cpu time spent up to now is       14.7 secs

     total energy              =    -329.48653638 Ry
     Harris-Foulkes estimate   =    -329.48716374 Ry
     estimated scf accuracy    <       0.00150575 Ry

     iteration #  3     ecut=    30.00 Ry     beta=0.70
     Davidson diagonalization with overlap
     ethr =  1.41E-06,  avg # of iterations =  3.0

     negative rho (up, down):  1.288E-06 0.000E+00

     total cpu time spent up to now is       15.0 secs

     total energy              =    -329.48685883 Ry
     Harris-Foulkes estimate   =    -329.48694882 Ry
     estimated scf accuracy    <       0.00029167 Ry

     iteration #  4     ecut=    30.00 Ry     beta=0.70
     Davidson diagonalization with overlap
     ethr =  5.30E-07,  avg # of iterations =  2.0

     total cpu time spent up to now is       15.2 secs

     total energy              =    -329.48691621 Ry
     Harris-Foulkes estimate   =    -329.48692194 Ry
     estimated scf accuracy    <       0.00002761 Ry

     iteration #  5     ecut=    30.00 Ry     beta=0.70
     Davidson diagonalization with overlap
     ethr =  5.02E-08,  avg # of iterations =  2.0

     total cpu time spent up to now is       15.5 secs

     total energy              =    -329.48692179 Ry
     Harris-Foulkes estimate   =    -329.48692436 Ry
     estimated scf accuracy    <       0.00000547 Ry

     iteration #  6     ecut=    30.00 Ry     beta=0.70
     Davidson diagonalization with overlap
     ethr =  9.94E-09,  avg # of iterations =  2.0

     total cpu time spent up to now is       15.8 secs

     total energy              =    -329.48692272 Ry
     Harris-Foulkes estimate   =    -329.48692312 Ry
     estimated scf accuracy    <       0.00000049 Ry

     iteration #  7     ecut=    30.00 Ry     beta=0.70
     Davidson diagonalization with overlap
     ethr =  8.83E-10,  avg # of iterations =  2.0

     total cpu time spent up to now is       16.1 secs

     total energy              =    -329.48692281 Ry
     Harris-Foulkes estimate   =    -329.48692289 Ry
     estimated scf accuracy    <       0.00000020 Ry

     iteration #  8     ecut=    30.00 Ry     beta=0.70
     Davidson diagonalization with overlap
     ethr =  3.58E-10,  avg # of iterations =  2.0

     total cpu time spent up to now is       16.4 secs

     total energy              =    -329.48692289 Ry
     Harris-Foulkes estimate   =    -329.48692286 Ry
     estimated scf accuracy    <       0.00000002 Ry

     iteration #  9     ecut=    30.00 Ry     beta=0.70
     Davidson diagonalization with overlap
     ethr =  3.62E-11,  avg # of iterations =  3.0

     total cpu time spent up to now is       16.7 secs

     total energy              =    -329.48692287 Ry
     Harris-Foulkes estimate   =    -329.48692289 Ry
     estimated scf accuracy    <          5.4E-09 Ry

     iteration # 10     ecut=    30.00 Ry     beta=0.70
     Davidson diagonalization with overlap
     ethr =  9.84E-12,  avg # of iterations =  3.0

     total cpu time spent up to now is       16.9 secs

     End of self-consistent calculation

          k = 0.0000 0.0000 0.0000 ( 22119 PWs)   bands (ev):

    -8.2944  -7.7108  -7.6375  -7.2761  -6.9101  -6.7369  -6.6702  -6.4776
    -6.3416  -6.0332  -5.9298  -5.7292  -5.6918  -5.6496  -5.4609  -5.4041
    -5.3337  -5.2229  -5.1947  -5.1776  -5.1746  -5.1206  -5.0815  -4.8629
    -4.8229  -4.7686  -4.4179  -3.7609  -2.6180  -2.1298  -0.5531  -0.1946
     0.3912   0.8476

     the Fermi energy is    -3.7333 ev

!    total energy              =    -329.48692285 Ry
     Harris-Foulkes estimate   =    -329.48692287 Ry
     estimated scf accuracy    <          5.4E-10 Ry

     The total energy is the sum of the following terms:

     one-electron contribution =    -605.84879375 Ry
     hartree contribution      =     324.37968672 Ry
     xc contribution           =     -51.39591839 Ry
     ewald contribution        =       3.38144946 Ry
     smearing contrib. (-TS)   =      -0.00334688 Ry

     convergence has been achieved in  10 iterations

     Forces acting on atoms (Ry/au):

     atom    1 type  1   force =     0.00998469   -0.00362321   -0.00216406
     atom    2 type  1   force =    -0.00100867    0.00158455   -0.00079976
     atom    3 type  1   force =    -0.00489227    0.00593591    0.01047182
     atom    4 type  1   force =    -0.00204567    0.00170321    0.00782911
     atom    5 type  1   force =    -0.00203808   -0.00560046   -0.01533711

     Total force =     0.025092     Total SCF correction =     0.000095

     number of scf cycles    =   5
     number of bfgs steps    =   4

     energy   old            =    -329.4837270354 Ry
     energy   new            =    -329.4869228467 Ry

     CASE: energy  _new < energy  _old

     new trust radius        =       0.1182838339 bohr
     new conv_thr            =       0.0000000015 Ry


ATOMIC_POSITIONS (bohr)
Au      -1.537510126   2.076936404  -1.169409819
Au      -0.862717711   3.272953808   3.753366050
Au       3.287385984   1.677117817   0.601096938
Au       3.811165891   3.452864927   5.750867853
Au       7.695078960   1.833010045   3.025132977



     Writing output data file pwscf.save
     Check: negative starting charge=   -0.006381
     NEW-OLD atomic charge density approx. for the potential
     Check: negative starting charge=   -0.006429

     negative rho (up, down):  2.258E-03 0.000E+00

     total cpu time spent up to now is       17.2 secs

     per-process dynamical memory:    50.7 Mb

     Self-consistent Calculation

     iteration #  1     ecut=    30.00 Ry     beta=0.70
     Davidson diagonalization with overlap
     ethr =  1.00E-06,  avg # of iterations = 14.0

     negative rho (up, down):  2.233E-04 0.000E+00

     total cpu time spent up to now is       17.9 secs

     total energy              =    -329.48823077 Ry
     Harris-Foulkes estimate   =    -329.48673270 Ry
     estimated scf accuracy    <       0.00166326 Ry

     iteration #  2     ecut=    30.00 Ry     beta=0.70
     Davidson diagonalization with overlap
     ethr =  3.02E-06,  avg # of iterations = 10.0

     negative rho (up, down):  8.434E-05 0.000E+00

     total cpu time spent up to now is       18.3 secs

     total energy              =    -329.48824007 Ry
     Harris-Foulkes estimate   =    -329.48917628 Ry
     estimated scf accuracy    <       0.00212309 Ry

     iteration #  3     ecut=    30.00 Ry     beta=0.70
     Davidson diagonalization with overlap
     ethr =  3.02E-06,  avg # of iterations =  3.0

     negative rho (up, down):  7.972E-06 0.000E+00

     total cpu time spent up to now is       18.7 secs

     total energy              =    -329.48871533 Ry
     Harris-Foulkes estimate   =    -329.48895006 Ry
     estimated scf accuracy    <       0.00073041 Ry

     iteration #  4     ecut=    30.00 Ry     beta=0.70
     Davidson diagonalization with overlap
     ethr =  1.33E-06,  avg # of iterations =  2.0

     total cpu time spent up to now is       18.9 secs

     total energy              =    -329.48885769 Ry
     Harris-Foulkes estimate   =    -329.48887170 Ry
     estimated scf accuracy    <       0.00005896 Ry

     iteration #  5     ecut=    30.00 Ry     beta=0.70
     Davidson diagonalization with overlap
     ethr =  1.07E-07,  avg # of iterations =  2.0

     total cpu time spent up to now is       19.2 secs

     total energy              =    -329.48886860 Ry
     Harris-Foulkes estimate   =    -329.48887459 Ry
     estimated scf accuracy    <       0.00001255 Ry

     iteration #  6     ecut=    30.00 Ry     beta=0.70
     Davidson diagonalization with overlap
     ethr =  2.28E-08,  avg # of iterations =  2.0

     total cpu time spent up to now is       19.5 secs

     total energy              =    -329.48887083 Ry
     Harris-Foulkes estimate   =    -329.48887159 Ry
     estimated scf accuracy    <       0.00000127 Ry

     iteration #  7     ecut=    30.00 Ry     beta=0.70
     Davidson diagonalization with overlap
     ethr =  2.32E-09,  avg # of iterations =  2.0

     total cpu time spent up to now is       19.8 secs

     total energy              =    -329.48887092 Ry
     Harris-Foulkes estimate   =    -329.48887125 Ry
     estimated scf accuracy    <       0.00000040 Ry

     iteration #  8     ecut=    30.00 Ry     beta=0.70
     Davidson diagonalization with overlap
     ethr =  7.24E-10,  avg # of iterations =  2.0

     total cpu time spent up to now is       20.0 secs

     total energy              =    -329.48887094 Ry
     Harris-Foulkes estimate   =    -329.48887102 Ry
     estimated scf accuracy    <       0.00000003 Ry

     iteration #  9     ecut=    30.00 Ry     beta=0.70
     Davidson diagonalization with overlap
     ethr =  6.03E-11,  avg # of iterations =  2.0

     total cpu time spent up to now is       20.3 secs

     total energy              =    -329.48887090 Ry
     Harris-Foulkes estimate   =    -329.48887095 Ry
     estimated scf accuracy    <          8.3E-09 Ry

     iteration # 10     ecut=    30.00 Ry     beta=0.70
     Davidson diagonalization with overlap
     ethr =  1.51E-11,  avg # of iterations =  3.0

     total cpu time spent up to now is       20.7 secs

     total energy              =    -329.48887090 Ry
     Harris-Foulkes estimate   =    -329.48887090 Ry
     estimated scf accuracy    <          1.6E-09 Ry

     iteration # 11     ecut=    30.00 Ry     beta=0.70
     Davidson diagonalization with overlap
     ethr =  2.82E-12,  avg # of iterations =  2.0

     total cpu time spent up to now is       20.9 secs

     End of self-consistent calculation

          k = 0.0000 0.0000 0.0000 ( 22119 PWs)   bands (ev):

    -8.4749  -7.8224  -7.7155  -7.3475  -6.9518  -6.7989  -6.7308  -6.5153
    -6.3867  -6.0429  -6.0021  -5.7628  -5.7171  -5.6881  -5.4624  -5.3944
    -5.3266  -5.2247  -5.2114  -5.1842  -5.1713  -5.1175  -5.0365  -4.8690
    -4.8182  -4.7394  -4.4219  -3.7523  -2.5239  -2.1315  -0.5714  -0.1908
     0.4273   0.8706

     the Fermi energy is    -3.7230 ev

!    total energy              =    -329.48887089 Ry
     Harris-Foulkes estimate   =    -329.48887090 Ry
     estimated scf accuracy    <          1.2E-10 Ry

     The total energy is the sum of the following terms:

     one-electron contribution =    -612.11035972 Ry
     hartree contribution      =     327.46772665 Ry
     xc contribution           =     -51.41737489 Ry
     ewald contribution        =       6.57479851 Ry
     smearing contrib. (-TS)   =      -0.00366144 Ry

     convergence has been achieved in  11 iterations

     Forces acting on atoms (Ry/au):

     atom    1 type  1   force =     0.00809306   -0.00325942   -0.00125805
     atom    2 type  1   force =    -0.00599535    0.00252721   -0.00140849
     atom    3 type  1   force =    -0.01488124    0.00182582   -0.00414406
     atom    4 type  1   force =    -0.00242574    0.00425164    0.01424037
     atom    5 type  1   force =     0.01520926   -0.00534524   -0.00742977

     Total force =     0.030097     Total SCF correction =     0.000057

     number of scf cycles    =   6
     number of bfgs steps    =   5

     energy   old            =    -329.4869228467 Ry
     energy   new            =    -329.4888708912 Ry

     CASE: energy  _new < energy  _old

     new trust radius        =       0.0178857669 bohr
     new conv_thr            =       0.0000000015 Ry


ATOMIC_POSITIONS (bohr)
Au      -1.523029977   2.070955470  -1.173667275
Au      -0.865947853   3.275950133   3.752519088
Au       3.273213699   1.684400413   0.609221640
Au       3.809960406   3.455535737   5.763097908
Au       7.699206724   1.826041246   3.009882640



     Writing output data file pwscf.save
     Check: negative starting charge=   -0.006429
     NEW-OLD atomic charge density approx. for the potential
     Check: negative starting charge=   -0.006429

     negative rho (up, down):  7.734E-05 0.000E+00

     total cpu time spent up to now is       21.2 secs

     per-process dynamical memory:    50.7 Mb

     Self-consistent Calculation

     iteration #  1     ecut=    30.00 Ry     beta=0.70
     Davidson diagonalization with overlap
     ethr =  1.00E-06,  avg # of iterations =  4.0

     negative rho (up, down):  5.066E-07 0.000E+00

     total cpu time spent up to now is       21.6 secs

     total energy              =    -329.48953473 Ry
     Harris-Foulkes estimate   =    -329.48953210 Ry
     estimated scf accuracy    <       0.00006424 Ry

     iteration #  2     ecut=    30.00 Ry     beta=0.70
     Davidson diagonalization with overlap
     ethr =  1.17E-07,  avg # of iterations =  3.0

     negative rho (up, down):  4.811E-08 0.000E+00

     total cpu time spent up to now is       21.9 secs

     total energy              =    -329.48953130 Ry
     Harris-Foulkes estimate   =    -329.48957919 Ry
     estimated scf accuracy    <       0.00011180 Ry

     iteration #  3     ecut=    30.00 Ry     beta=0.70
     Davidson diagonalization with overlap
     ethr =  1.17E-07,  avg # of iterations =  2.0

     total cpu time spent up to now is       22.2 secs

     total energy              =    -329.48955543 Ry
     Harris-Foulkes estimate   =    -329.48956375 Ry
     estimated scf accuracy    <       0.00002574 Ry

     iteration #  4     ecut=    30.00 Ry     beta=0.70
     Davidson diagonalization with overlap
     ethr =  4.68E-08,  avg # of iterations =  2.0

     total cpu time spent up to now is       22.4 secs

     total energy              =    -329.48955997 Ry
     Harris-Foulkes estimate   =    -329.48956049 Ry
     estimated scf accuracy    <       0.00000119 Ry

     iteration #  5     ecut=    30.00 Ry     beta=0.70
     Davidson diagonalization with overlap
     ethr =  2.16E-09,  avg # of iterations =  3.0

     total cpu time spent up to now is       22.8 secs

     total energy              =    -329.48956014 Ry
     Harris-Foulkes estimate   =    -329.48956038 Ry
     estimated scf accuracy    <       0.00000034 Ry

     iteration #  6     ecut=    30.00 Ry     beta=0.70
     Davidson diagonalization with overlap
     ethr =  6.16E-10,  avg # of iterations =  2.0

     total cpu time spent up to now is       23.0 secs

     total energy              =    -329.48956019 Ry
     Harris-Foulkes estimate   =    -329.48956021 Ry
     estimated scf accuracy    <       0.00000004 Ry

     iteration #  7     ecut=    30.00 Ry     beta=0.70
     Davidson diagonalization with overlap
     ethr =  7.33E-11,  avg # of iterations =  2.0

     total cpu time spent up to now is       23.3 secs

     total energy              =    -329.48956020 Ry
     Harris-Foulkes estimate   =    -329.48956020 Ry
     estimated scf accuracy    <          7.8E-09 Ry

     iteration #  8     ecut=    30.00 Ry     beta=0.70
     Davidson diagonalization with overlap
     ethr =  1.42E-11,  avg # of iterations =  2.0

     total cpu time spent up to now is       23.6 secs

     total energy              =    -329.48956023 Ry
     Harris-Foulkes estimate   =    -329.48956020 Ry
     estimated scf accuracy    <          2.7E-09 Ry

     iteration #  9     ecut=    30.00 Ry     beta=0.70
     Davidson diagonalization with overlap
     ethr =  4.86E-12,  avg # of iterations =  2.0

     total cpu time spent up to now is       23.9 secs

     End of self-consistent calculation

          k = 0.0000 0.0000 0.0000 ( 22119 PWs)   bands (ev):

    -8.4822  -7.8204  -7.7114  -7.3368  -6.9458  -6.8009  -6.7182  -6.5134
    -6.3799  -6.0404  -6.0058  -5.7664  -5.7219  -5.6895  -5.4609  -5.3921
    -5.3251  -5.2250  -5.2096  -5.1863  -5.1724  -5.1201  -5.0300  -4.8751
    -4.8217  -4.7366  -4.4278  -3.7551  -2.5134  -2.1415  -0.5711  -0.1916
     0.4323   0.8725

     the Fermi energy is    -3.7255 ev

!    total energy              =    -329.48956024 Ry
     Harris-Foulkes estimate   =    -329.48956023 Ry
     estimated scf accuracy    <          4.2E-10 Ry

     The total energy is the sum of the following terms:

     one-electron contribution =    -612.00642552 Ry
     hartree contribution      =     327.41620220 Ry
     xc contribution           =     -51.41613489 Ry
     ewald contribution        =       6.52052735 Ry
     smearing contrib. (-TS)   =      -0.00372937 Ry

     convergence has been achieved in   9 iterations

     Forces acting on atoms (Ry/au):

     atom    1 type  1   force =     0.00625593   -0.00310726   -0.00179489
     atom    2 type  1   force =    -0.00568611    0.00276172   -0.00087003
     atom    3 type  1   force =    -0.01141121    0.00140832   -0.00378963
     atom    4 type  1   force =    -0.00108086    0.00337824    0.01227278
     atom    5 type  1   force =     0.01192226   -0.00444102   -0.00581823

     Total force =     0.024458     Total SCF correction =     0.000078

     number of scf cycles    =   7
     number of bfgs steps    =   6

     energy   old            =    -329.4888708912 Ry
     energy   new            =    -329.4895602397 Ry

     CASE: energy  _new < energy  _old


     WARNING: bfgs curvature condition failed, Theta= 0.992
     new trust radius        =       0.0196743436 bohr
     new conv_thr            =       0.0000000007 Ry


ATOMIC_POSITIONS (bohr)
Au      -1.506774516   2.063401626  -1.179624450
Au      -0.871090900   3.280472258   3.751882736
Au       3.257320853   1.692544592   0.617414248
Au       3.809750169   3.458676084   5.778647126
Au       7.704197394   1.817788440   2.992734340



     Writing output data file pwscf.save
     Check: negative starting charge=   -0.006429
     NEW-OLD atomic charge density approx. for the potential
     Check: negative starting charge=   -0.006430

     negative rho (up, down):  1.165E-04 0.000E+00

     total cpu time spent up to now is       24.2 secs

     per-process dynamical memory:    50.7 Mb

     Self-consistent Calculation

     iteration #  1     ecut=    30.00 Ry     beta=0.70
     Davidson diagonalization with overlap
     ethr =  1.00E-06,  avg # of iterations =  4.0

     negative rho (up, down):  1.175E-06 0.000E+00

     total cpu time spent up to now is       24.8 secs

     total energy              =    -329.49016585 Ry
     Harris-Foulkes estimate   =    -329.49016032 Ry
     estimated scf accuracy    <       0.00008484 Ry

     iteration #  2     ecut=    30.00 Ry     beta=0.70
     Davidson diagonalization with overlap
     ethr =  1.54E-07,  avg # of iterations =  3.0

     negative rho (up, down):  1.266E-07 0.000E+00

     total cpu time spent up to now is       25.1 secs

     total energy              =    -329.49016282 Ry
     Harris-Foulkes estimate   =    -329.49022258 Ry
     estimated scf accuracy    <       0.00013678 Ry

     iteration #  3     ecut=    30.00 Ry     beta=0.70
     Davidson diagonalization with overlap
     ethr =  1.54E-07,  avg # of iterations =  2.0

     total cpu time spent up to now is       25.4 secs

     total energy              =    -329.49019283 Ry
     Harris-Foulkes estimate   =    -329.49020373 Ry
     estimated scf accuracy    <       0.00003478 Ry

     iteration #  4     ecut=    30.00 Ry     beta=0.70
     Davidson diagonalization with overlap
     ethr =  6.32E-08,  avg # of iterations =  2.0

     total cpu time spent up to now is       25.6 secs

     total energy              =    -329.49019951 Ry
     Harris-Foulkes estimate   =    -329.49019978 Ry
     estimated scf accuracy    <       0.00000170 Ry

     iteration #  5     ecut=    30.00 Ry     beta=0.70
     Davidson diagonalization with overlap
     ethr =  3.08E-09,  avg # of iterations =  3.0

     total cpu time spent up to now is       25.9 secs

     total energy              =    -329.49019982 Ry
     Harris-Foulkes estimate   =    -329.49020004 Ry
     estimated scf accuracy    <       0.00000036 Ry

     iteration #  6     ecut=    30.00 Ry     beta=0.70
     Davidson diagonalization with overlap
     ethr =  6.60E-10,  avg # of iterations =  2.0

     total cpu time spent up to now is       26.2 secs

     total energy              =    -329.49019987 Ry
     Harris-Foulkes estimate   =    -329.49019991 Ry
     estimated scf accuracy    <       0.00000005 Ry

     iteration #  7     ecut=    30.00 Ry     beta=0.70
     Davidson diagonalization with overlap
     ethr =  8.36E-11,  avg # of iterations =  2.0

     total cpu time spent up to now is       26.4 secs

     total energy              =    -329.49019987 Ry
     Harris-Foulkes estimate   =    -329.49019989 Ry
     estimated scf accuracy    <       0.00000001 Ry

     iteration #  8     ecut=    30.00 Ry     beta=0.70
     Davidson diagonalization with overlap
     ethr =  2.20E-11,  avg # of iterations =  2.0

     total cpu time spent up to now is       26.7 secs

     total energy              =    -329.49019985 Ry
     Harris-Foulkes estimate   =    -329.49019988 Ry
     estimated scf accuracy    <          3.3E-09 Ry

     iteration #  9     ecut=    30.00 Ry     beta=0.70
     Davidson diagonalization with overlap
     ethr =  6.06E-12,  avg # of iterations =  2.0

     total cpu time spent up to now is       27.0 secs

     End of self-consistent calculation

          k = 0.0000 0.0000 0.0000 ( 22119 PWs)   bands (ev):

    -8.4897  -7.8154  -7.7038  -7.3204  -6.9368  -6.8041  -6.7016  -6.5091
    -6.3691  -6.0427  -6.0038  -5.7696  -5.7266  -5.6902  -5.4583  -5.3891
    -5.3233  -5.2270  -5.2060  -5.1886  -5.1734  -5.1227  -5.0225  -4.8829
    -4.8271  -4.7331  -4.4353  -3.7587  -2.5020  -2.1549  -0.5703  -0.1928
     0.4374   0.8744

     the Fermi energy is    -3.7287 ev

!    total energy              =    -329.49019983 Ry
     Harris-Foulkes estimate   =    -329.49019985 Ry
     estimated scf accuracy    <          6.6E-10 Ry

     The total energy is the sum of the following terms:

     one-electron contribution =    -611.69152301 Ry
     hartree contribution      =     327.26042802 Ry
     xc contribution           =     -51.41409355 Ry
     ewald contribution        =       6.35880592 Ry
     smearing contrib. (-TS)   =      -0.00381721 Ry

     convergence has been achieved in   9 iterations

     Forces acting on atoms (Ry/au):

     atom    1 type  1   force =     0.00406818   -0.00286585   -0.00222455
     atom    2 type  1   force =    -0.00494742    0.00297160   -0.00033703
     atom    3 type  1   force =    -0.00735852    0.00094085   -0.00300954
     atom    4 type  1   force =     0.00005152    0.00242829    0.00974456
     atom    5 type  1   force =     0.00818624   -0.00347490   -0.00417344

     Total force =     0.018016     Total SCF correction =     0.000096

     number of scf cycles    =   8
     number of bfgs steps    =   7

     energy   old            =    -329.4895602397 Ry
     energy   new            =    -329.4901998267 Ry

     CASE: energy  _new < energy  _old

     new trust radius        =       0.0295115153 bohr
     new conv_thr            =       0.0000000006 Ry


ATOMIC_POSITIONS (bohr)
Au      -1.483203624   2.050879222  -1.190345634
Au      -0.880247998   3.289081306   3.751495938
Au       3.235374409   1.704719145   0.629540100
Au       3.811019572   3.463291585   5.803434139
Au       7.710460640   1.804911742   2.966929457



     Writing output data file pwscf.save
     Check: negative starting charge=   -0.006430
     NEW-OLD atomic charge density approx. for the potential
     Check: negative starting charge=   -0.006437

     negative rho (up, down):  3.115E-04 0.000E+00

     total cpu time spent up to now is       27.4 secs

     per-process dynamical memory:    50.7 Mb

     Self-consistent Calculation

     iteration #  1     ecut=    30.00 Ry     beta=0.70
     Davidson diagonalization with overlap
     ethr =  1.00E-06,  avg # of iterations =  4.0

     negative rho (up, down):  8.249E-06 0.000E+00

     total cpu time spent up to now is       27.9 secs

     total energy              =    -329.49074741 Ry
     Harris-Foulkes estimate   =    -329.49068474 Ry
     estimated scf accuracy    <       0.00018816 Ry

     iteration #  2     ecut=    30.00 Ry     beta=0.70
     Davidson diagonalization with overlap
     ethr =  3.42E-07,  avg # of iterations =  3.0

     negative rho (up, down):  1.342E-06 0.000E+00

     total cpu time spent up to now is       28.2 secs

     total energy              =    -329.49075062 Ry
     Harris-Foulkes estimate   =    -329.49086282 Ry
     estimated scf accuracy    <       0.00024926 Ry

     iteration #  3     ecut=    30.00 Ry     beta=0.70
     Davidson diagonalization with overlap
     ethr =  3.42E-07,  avg # of iterations =  2.0

     negative rho (up, down):  1.620E-08 0.000E+00

     total cpu time spent up to now is       28.5 secs

     total energy              =    -329.49080462 Ry
     Harris-Foulkes estimate   =    -329.49083125 Ry
     estimated scf accuracy    <       0.00008068 Ry

     iteration #  4     ecut=    30.00 Ry     beta=0.70
     Davidson diagonalization with overlap
     ethr =  1.47E-07,  avg # of iterations =  2.0

     total cpu time spent up to now is       28.7 secs

     total energy              =    -329.49082089 Ry
     Harris-Foulkes estimate   =    -329.49082121 Ry
     estimated scf accuracy    <       0.00000447 Ry

     iteration #  5     ecut=    30.00 Ry     beta=0.70
     Davidson diagonalization with overlap
     ethr =  8.13E-09,  avg # of iterations =  2.0

     total cpu time spent up to now is       29.0 secs

     total energy              =    -329.49082172 Ry
     Harris-Foulkes estimate   =    -329.49082217 Ry
     estimated scf accuracy    <       0.00000075 Ry

     iteration #  6     ecut=    30.00 Ry     beta=0.70
     Davidson diagonalization with overlap
     ethr =  1.36E-09,  avg # of iterations =  2.0

     total cpu time spent up to now is       29.3 secs

     total energy              =    -329.49082178 Ry
     Harris-Foulkes estimate   =    -329.49082189 Ry
     estimated scf accuracy    <       0.00000008 Ry

     iteration #  7     ecut=    30.00 Ry     beta=0.70
     Davidson diagonalization with overlap
     ethr =  1.43E-10,  avg # of iterations =  2.0

     total cpu time spent up to now is       29.6 secs

     total energy              =    -329.49082168 Ry
     Harris-Foulkes estimate   =    -329.49082181 Ry
     estimated scf accuracy    <       0.00000003 Ry

     iteration #  8     ecut=    30.00 Ry     beta=0.70
     Davidson diagonalization with overlap
     ethr =  4.69E-11,  avg # of iterations =  2.0

     total cpu time spent up to now is       29.9 secs

     total energy              =    -329.49082173 Ry
     Harris-Foulkes estimate   =    -329.49082169 Ry
     estimated scf accuracy    <          5.9E-09 Ry

     iteration #  9     ecut=    30.00 Ry     beta=0.70
     Davidson diagonalization with overlap
     ethr =  1.08E-11,  avg # of iterations =  2.0

     total cpu time spent up to now is       30.2 secs

     total energy              =    -329.49082176 Ry
     Harris-Foulkes estimate   =    -329.49082173 Ry
     estimated scf accuracy    <          1.1E-09 Ry

     iteration # 10     ecut=    30.00 Ry     beta=0.70
     Davidson diagonalization with overlap
     ethr =  2.05E-12,  avg # of iterations =  3.0

     total cpu time spent up to now is       30.5 secs

     End of self-consistent calculation

          k = 0.0000 0.0000 0.0000 ( 22119 PWs)   bands (ev):

    -8.5020  -7.8056  -7.6900  -7.2916  -6.9205  -6.8116  -6.6740  -6.5001
    -6.3498  -6.0534  -5.9928  -5.7736  -5.7324  -5.6905  -5.4538  -5.3839
    -5.3207  -5.2317  -5.2006  -5.1908  -5.1750  -5.1254  -5.0109  -4.8955
    -4.8362  -4.7276  -4.4475  -3.7645  -2.4853  -2.1768  -0.5684  -0.1947
     0.4444   0.8770

     the Fermi energy is    -3.7338 ev

!    total energy              =    -329.49082178 Ry
     Harris-Foulkes estimate   =    -329.49082176 Ry
     estimated scf accuracy    <          3.1E-10 Ry

     The total energy is the sum of the following terms:

     one-electron contribution =    -611.03735335 Ry
     hartree contribution      =     326.93692757 Ry
     xc contribution           =     -51.41066284 Ry
     ewald contribution        =       6.02421845 Ry
     smearing contrib. (-TS)   =      -0.00395162 Ry

     convergence has been achieved in  10 iterations

     Forces acting on atoms (Ry/au):

     atom    1 type  1   force =     0.00083182   -0.00245410   -0.00256726
     atom    2 type  1   force =    -0.00335790    0.00309650    0.00019592
     atom    3 type  1   force =    -0.00219243    0.00043684   -0.00127210
     atom    4 type  1   force =     0.00127034    0.00116323    0.00573418
     atom    5 type  1   force =     0.00344817   -0.00224247   -0.00209074

     Total force =     0.009898     Total SCF correction =     0.000066

     number of scf cycles    =   9
     number of bfgs steps    =   8

     energy   old            =    -329.4901998267 Ry
     energy   new            =    -329.4908217840 Ry

     CASE: energy  _new < energy  _old

     new trust radius        =       0.0361171058 bohr
     new conv_thr            =       0.0000000006 Ry


ATOMIC_POSITIONS (bohr)
Au      -1.456847702   2.033840019  -1.206066806
Au      -0.892015341   3.302256961   3.751756007
Au       3.212883492   1.719941158   0.646676645
Au       3.814883329   3.468347411   5.833675875
Au       7.714499222   1.788497452   2.935012279



     Writing output data file pwscf.save
     Check: negative starting charge=   -0.006437
     NEW-OLD atomic charge density approx. for the potential
     Check: negative starting charge=   -0.006453

     negative rho (up, down):  4.688E-04 0.000E+00

     total cpu time spent up to now is       30.9 secs

     per-process dynamical memory:    50.7 Mb

     Self-consistent Calculation

     iteration #  1     ecut=    30.00 Ry     beta=0.70
     Davidson diagonalization with overlap
     ethr =  1.00E-06,  avg # of iterations =  5.0

     negative rho (up, down):  1.768E-05 0.000E+00

     total cpu time spent up to now is       31.4 secs

     total energy              =    -329.49101467 Ry
     Harris-Foulkes estimate   =    -329.49084905 Ry
     estimated scf accuracy    <       0.00027072 Ry

     iteration #  2     ecut=    30.00 Ry     beta=0.70
     Davidson diagonalization with overlap
     ethr =  4.92E-07,  avg # of iterations =  3.0

     negative rho (up, down):  2.550E-06 0.000E+00

     total cpu time spent up to now is       31.7 secs

     total energy              =    -329.49104460 Ry
     Harris-Foulkes estimate   =    -329.49115594 Ry
     estimated scf accuracy    <       0.00023838 Ry

     iteration #  3     ecut=    30.00 Ry     beta=0.70
     Davidson diagonalization with overlap
     ethr =  4.33E-07,  avg # of iterations =  2.0

     negative rho (up, down):  7.119E-08 0.000E+00

     total cpu time spent up to now is       32.0 secs

     total energy              =    -329.49109393 Ry
     Harris-Foulkes estimate   =    -329.49112923 Ry
     estimated scf accuracy    <       0.00010234 Ry

     iteration #  4     ecut=    30.00 Ry     beta=0.70
     Davidson diagonalization with overlap
     ethr =  1.86E-07,  avg # of iterations =  2.0

     total cpu time spent up to now is       32.2 secs

     total energy              =    -329.49111650 Ry
     Harris-Foulkes estimate   =    -329.49111810 Ry
     estimated scf accuracy    <       0.00001033 Ry

     iteration #  5     ecut=    30.00 Ry     beta=0.70
     Davidson diagonalization with overlap
     ethr =  1.88E-08,  avg # of iterations =  2.0

     total cpu time spent up to now is       32.5 secs

     total energy              =    -329.49111826 Ry
     Harris-Foulkes estimate   =    -329.49111875 Ry
     estimated scf accuracy    <       0.00000094 Ry

     iteration #  6     ecut=    30.00 Ry     beta=0.70
     Davidson diagonalization with overlap
     ethr =  1.71E-09,  avg # of iterations =  2.0

     total cpu time spent up to now is       32.8 secs

     total energy              =    -329.49111850 Ry
     Harris-Foulkes estimate   =    -329.49111849 Ry
     estimated scf accuracy    <       0.00000008 Ry

     iteration #  7     ecut=    30.00 Ry     beta=0.70
     Davidson diagonalization with overlap
     ethr =  1.41E-10,  avg # of iterations =  3.0

     total cpu time spent up to now is       33.1 secs

     total energy              =    -329.49111842 Ry
     Harris-Foulkes estimate   =    -329.49111853 Ry
     estimated scf accuracy    <       0.00000004 Ry

     iteration #  8     ecut=    30.00 Ry     beta=0.70
     Davidson diagonalization with overlap
     ethr =  6.73E-11,  avg # of iterations =  2.0

     total cpu time spent up to now is       33.4 secs

     total energy              =    -329.49111844 Ry
     Harris-Foulkes estimate   =    -329.49111843 Ry
     estimated scf accuracy    <          3.7E-09 Ry

     iteration #  9     ecut=    30.00 Ry     beta=0.70
     Davidson diagonalization with overlap
     ethr =  6.66E-12,  avg # of iterations =  3.0

     total cpu time spent up to now is       33.7 secs

     total energy              =    -329.49111845 Ry
     Harris-Foulkes estimate   =    -329.49111844 Ry
     estimated scf accuracy    <          7.6E-10 Ry

     iteration # 10     ecut=    30.00 Ry     beta=0.70
     Davidson diagonalization with overlap
     ethr =  1.37E-12,  avg # of iterations =  3.0

     total cpu time spent up to now is       34.0 secs

     End of self-consistent calculation

          k = 0.0000 0.0000 0.0000 ( 22119 PWs)   bands (ev):

    -8.5202  -7.7944  -7.6730  -7.2544  -6.8981  -6.8245  -6.6385  -6.4889
    -6.3247  -6.0707  -5.9753  -5.7781  -5.7377  -5.6907  -5.4486  -5.3768
    -5.3177  -5.2385  -5.1998  -5.1876  -5.1764  -5.1268  -4.9966  -4.9111
    -4.8467  -4.7211  -4.4629  -3.7716  -2.4649  -2.2045  -0.5660  -0.1967
     0.4521   0.8804

     the Fermi energy is    -3.7401 ev

!    total energy              =    -329.49111842 Ry
     Harris-Foulkes estimate   =    -329.49111845 Ry
     estimated scf accuracy    <          3.4E-10 Ry

     The total energy is the sum of the following terms:

     one-electron contribution =    -610.16514504 Ry
     hartree contribution      =     326.50570992 Ry
     xc contribution           =     -51.40668735 Ry
     ewald contribution        =       5.57912030 Ry
     smearing contrib. (-TS)   =      -0.00411626 Ry

     convergence has been achieved in  10 iterations

     Forces acting on atoms (Ry/au):

     atom    1 type  1   force =    -0.00279987   -0.00187378   -0.00244089
     atom    2 type  1   force =    -0.00115802    0.00289981    0.00042415
     atom    3 type  1   force =     0.00222108    0.00008640    0.00083774
     atom    4 type  1   force =     0.00207891   -0.00005104    0.00117308
     atom    5 type  1   force =    -0.00034210   -0.00106140    0.00000593

     Total force =     0.006311     Total SCF correction =     0.000069

     number of scf cycles    =  10
     number of bfgs steps    =   9

     energy   old            =    -329.4908217840 Ry
     energy   new            =    -329.4911184226 Ry

     CASE: energy  _new < energy  _old

     new trust radius        =       0.0086636155 bohr
     new conv_thr            =       0.0000000003 Ry


ATOMIC_POSITIONS (bohr)
Au      -1.453879614   2.028286062  -1.211850460
Au      -0.895189101   3.307849885   3.752189290
Au       3.210574743   1.723644090   0.652255525
Au       3.817692272   3.469231132   5.840766868
Au       7.714204701   1.783871830   2.927692777



     Writing output data file pwscf.save
     Check: negative starting charge=   -0.006453
     NEW-OLD atomic charge density approx. for the potential
     Check: negative starting charge=   -0.006454

     negative rho (up, down):  9.894E-06 0.000E+00

     total cpu time spent up to now is       34.3 secs

     per-process dynamical memory:    50.7 Mb

     Self-consistent Calculation

     iteration #  1     ecut=    30.00 Ry     beta=0.70
     Davidson diagonalization with overlap
     ethr =  1.00E-06,  avg # of iterations =  4.0

     Threshold (ethr) on eigenvalues was too large:
     Diagonalizing with lowered threshold

     Davidson diagonalization with overlap
     ethr =  3.11E-08,  avg # of iterations =  2.0

     total cpu time spent up to now is       34.9 secs

     total energy              =    -329.49115796 Ry
     Harris-Foulkes estimate   =    -329.49115851 Ry
     estimated scf accuracy    <       0.00001809 Ry

     iteration #  2     ecut=    30.00 Ry     beta=0.70
     Davidson diagonalization with overlap
     ethr =  3.29E-08,  avg # of iterations =  3.0

     total cpu time spent up to now is       35.2 secs

     total energy              =    -329.49116175 Ry
     Harris-Foulkes estimate   =    -329.49116636 Ry
     estimated scf accuracy    <       0.00001043 Ry

     iteration #  3     ecut=    30.00 Ry     beta=0.70
     Davidson diagonalization with overlap
     ethr =  1.90E-08,  avg # of iterations =  2.0

     total cpu time spent up to now is       35.5 secs

     total energy              =    -329.49116376 Ry
     Harris-Foulkes estimate   =    -329.49116465 Ry
     estimated scf accuracy    <       0.00000185 Ry

     iteration #  4     ecut=    30.00 Ry     beta=0.70
     Davidson diagonalization with overlap
     ethr =  3.37E-09,  avg # of iterations =  2.0

     total cpu time spent up to now is       35.8 secs

     total energy              =    -329.49116406 Ry
     Harris-Foulkes estimate   =    -329.49116473 Ry
     estimated scf accuracy    <       0.00000175 Ry

     iteration #  5     ecut=    30.00 Ry     beta=0.70
     Davidson diagonalization with overlap
     ethr =  3.18E-09,  avg # of iterations =  2.0

     total cpu time spent up to now is       36.0 secs

     total energy              =    -329.49116436 Ry
     Harris-Foulkes estimate   =    -329.49116437 Ry
     estimated scf accuracy    <       0.00000006 Ry

     iteration #  6     ecut=    30.00 Ry     beta=0.70
     Davidson diagonalization with overlap
     ethr =  1.16E-10,  avg # of iterations =  3.0

     total cpu time spent up to now is       36.3 secs

     total energy              =    -329.49116439 Ry
     Harris-Foulkes estimate   =    -329.49116438 Ry
     estimated scf accuracy    <          7.4E-09 Ry

     iteration #  7     ecut=    30.00 Ry     beta=0.70
     Davidson diagonalization with overlap
     ethr =  1.34E-11,  avg # of iterations =  3.0

     total cpu time spent up to now is       36.6 secs

     total energy              =    -329.49116443 Ry
     Harris-Foulkes estimate   =    -329.49116440 Ry
     estimated scf accuracy    <          3.2E-09 Ry

     iteration #  8     ecut=    30.00 Ry     beta=0.70
     Davidson diagonalization with overlap
     ethr =  5.80E-12,  avg # of iterations =  2.0

     total cpu time spent up to now is       36.9 secs

     total energy              =    -329.49116444 Ry
     Harris-Foulkes estimate   =    -329.49116443 Ry
     estimated scf accuracy    <          4.4E-10 Ry

     iteration #  9     ecut=    30.00 Ry     beta=0.70
     Davidson diagonalization with overlap
     ethr =  8.03E-13,  avg # of iterations =  2.0

     total cpu time spent up to now is       37.1 secs

     End of self-consistent calculation

          k = 0.0000 0.0000 0.0000 ( 22119 PWs)   bands (ev):

    -8.5219  -7.7902  -7.6670  -7.2441  -6.8906  -6.8257  -6.6294  -6.4855
    -6.3178  -6.0747  -5.9704  -5.7780  -5.7380  -5.6902  -5.4479  -5.3746
    -5.3169  -5.2403  -5.2006  -5.1869  -5.1756  -5.1272  -4.9939  -4.9153
    -4.8490  -4.7206  -4.4673  -3.7733  -2.4608  -2.2124  -0.5651  -0.1969
     0.4529   0.8810

     the Fermi energy is    -3.7415 ev

!    total energy              =    -329.49116446 Ry
     Harris-Foulkes estimate   =    -329.49116444 Ry
     estimated scf accuracy    <          6.3E-11 Ry

     The total energy is the sum of the following terms:

     one-electron contribution =    -609.81615113 Ry
     hartree contribution      =     326.33313214 Ry
     xc contribution           =     -51.40520748 Ry
     ewald contribution        =       5.40123956 Ry
     smearing contrib. (-TS)   =      -0.00417755 Ry

     convergence has been achieved in   9 iterations

     Forces acting on atoms (Ry/au):

     atom    1 type  1   force =    -0.00282741   -0.00165552   -0.00175994
     atom    2 type  1   force =    -0.00045629    0.00265125    0.00010865
     atom    3 type  1   force =     0.00188622    0.00010269    0.00087833
     atom    4 type  1   force =     0.00188028   -0.00022140    0.00024455
     atom    5 type  1   force =    -0.00048280   -0.00087703    0.00052840

     Total force =     0.005509     Total SCF correction =     0.000036

     number of scf cycles    =  11
     number of bfgs steps    =  10

     energy   old            =    -329.4911184226 Ry
     energy   new            =    -329.4911644558 Ry

     CASE: energy  _new < energy  _old

     new trust radius        =       0.0095299770 bohr
     new conv_thr            =            1.0E-10 Ry


ATOMIC_POSITIONS (bohr)
Au      -1.454920208   2.021617590  -1.218578692
Au      -0.898464657   3.315852076   3.752492386
Au       3.210339609   1.726746151   0.657461612
Au       3.822185154   3.469845812   5.847249516
Au       7.714263102   1.778821371   2.922429177



     Writing output data file pwscf.save
     Check: negative starting charge=   -0.006454
     NEW-OLD atomic charge density approx. for the potential
     Check: negative starting charge=   -0.006453

     negative rho (up, down):  1.167E-05 0.000E+00

     total cpu time spent up to now is       37.5 secs

     per-process dynamical memory:    50.7 Mb

     Self-consistent Calculation

     iteration #  1     ecut=    30.00 Ry     beta=0.70
     Davidson diagonalization with overlap
     ethr =  1.00E-06,  avg # of iterations =  4.0

     Threshold (ethr) on eigenvalues was too large:
     Diagonalizing with lowered threshold

     Davidson diagonalization with overlap
     ethr =  3.93E-08,  avg # of iterations =  1.0

     total cpu time spent up to now is       38.1 secs

     total energy              =    -329.49120629 Ry
     Harris-Foulkes estimate   =    -329.49121046 Ry
     estimated scf accuracy    <       0.00002239 Ry

     iteration #  2     ecut=    30.00 Ry     beta=0.70
     Davidson diagonalization with overlap
     ethr =  4.07E-08,  avg # of iterations =  3.0

     total cpu time spent up to now is       38.4 secs

     total energy              =    -329.49120952 Ry
     Harris-Foulkes estimate   =    -329.49121970 Ry
     estimated scf accuracy    <       0.00002431 Ry

     iteration #  3     ecut=    30.00 Ry     beta=0.70
     Davidson diagonalization with overlap
     ethr =  4.07E-08,  avg # of iterations =  2.0

     total cpu time spent up to now is       38.7 secs

     total energy              =    -329.49121399 Ry
     Harris-Foulkes estimate   =    -329.49121688 Ry
     estimated scf accuracy    <       0.00000669 Ry

     iteration #  4     ecut=    30.00 Ry     beta=0.70
     Davidson diagonalization with overlap
     ethr =  1.22E-08,  avg # of iterations =  2.0

     total cpu time spent up to now is       38.9 secs

     total energy              =    -329.49121641 Ry
     Harris-Foulkes estimate   =    -329.49121575 Ry
     estimated scf accuracy    <       0.00000097 Ry

     iteration #  5     ecut=    30.00 Ry     beta=0.70
     Davidson diagonalization with overlap
     ethr =  1.77E-09,  avg # of iterations =  2.0

     total cpu time spent up to now is       39.2 secs

     total energy              =    -329.49121667 Ry
     Harris-Foulkes estimate   =    -329.49121663 Ry
     estimated scf accuracy    <       0.00000008 Ry

     iteration #  6     ecut=    30.00 Ry     beta=0.70
     Davidson diagonalization with overlap
     ethr =  1.54E-10,  avg # of iterations =  2.0

     total cpu time spent up to now is       39.4 secs

     total energy              =    -329.49121673 Ry
     Harris-Foulkes estimate   =    -329.49121669 Ry
     estimated scf accuracy    <          9.4E-09 Ry

     iteration #  7     ecut=    30.00 Ry     beta=0.70
     Davidson diagonalization with overlap
     ethr =  1.71E-11,  avg # of iterations =  2.0

     total cpu time spent up to now is       39.8 secs

     total energy              =    -329.49121677 Ry
     Harris-Foulkes estimate   =    -329.49121673 Ry
     estimated scf accuracy    <          4.5E-09 Ry

     iteration #  8     ecut=    30.00 Ry     beta=0.70
     Davidson diagonalization with overlap
     ethr =  8.20E-12,  avg # of iterations =  2.0

     total cpu time spent up to now is       40.0 secs

     total energy              =    -329.49121674 Ry
     Harris-Foulkes estimate   =    -329.49121677 Ry
     estimated scf accuracy    <          6.2E-10 Ry

     iteration #  9     ecut=    30.00 Ry     beta=0.70
     Davidson diagonalization with overlap
     ethr =  1.12E-12,  avg # of iterations =  2.0

     total cpu time spent up to now is       40.4 secs

     total energy              =    -329.49121675 Ry
     Harris-Foulkes estimate   =    -329.49121674 Ry
     estimated scf accuracy    <          1.0E-10 Ry

     iteration # 10     ecut=    30.00 Ry     beta=0.70
     Davidson diagonalization with overlap
     ethr =  1.89E-13,  avg # of iterations =  2.0

     total cpu time spent up to now is       40.6 secs

     End of self-consistent calculation

          k = 0.0000 0.0000 0.0000 ( 22119 PWs)   bands (ev):

    -8.5188  -7.7835  -7.6583  -7.2331  -6.8814  -6.8238  -6.6207  -6.4810
    -6.3104  -6.0768  -5.9656  -5.7765  -5.7368  -5.6888  -5.4479  -5.3723
    -5.3161  -5.2421  -5.2014  -5.1870  -5.1740  -5.1278  -4.9926  -4.9196
    -4.8515  -4.7213  -4.4724  -3.7750  -2.4590  -2.2210  -0.5638  -0.1968
     0.4520   0.8809

     the Fermi energy is    -3.7428 ev

!    total energy              =    -329.49121675 Ry
     Harris-Foulkes estimate   =    -329.49121675 Ry
     estimated scf accuracy    <          1.2E-11 Ry

     The total energy is the sum of the following terms:

     one-electron contribution =    -609.28703578 Ry
     hartree contribution      =     326.07123526 Ry
     xc contribution           =     -51.40298179 Ry
     ewald contribution        =       5.13182767 Ry
     smearing contrib. (-TS)   =      -0.00426211 Ry

     convergence has been achieved in  10 iterations

     Forces acting on atoms (Ry/au):

     atom    1 type  1   force =    -0.00208654   -0.00137415   -0.00062382
     atom    2 type  1   force =     0.00041001    0.00223661   -0.00045474
     atom    3 type  1   force =     0.00069363    0.00021432    0.00070662
     atom    4 type  1   force =     0.00137915   -0.00031753   -0.00060471
     atom    5 type  1   force =    -0.00039625   -0.00075925    0.00097666

     Total force =     0.004134     Total SCF correction =     0.000018

     number of scf cycles    =  12
     number of bfgs steps    =  11

     energy   old            =    -329.4911644558 Ry
     energy   new            =    -329.4912167549 Ry

     CASE: energy  _new < energy  _old

     new trust radius        =       0.0139403002 bohr
     new conv_thr            =            1.0E-10 Ry


ATOMIC_POSITIONS (bohr)
Au      -1.460768801   2.011959745  -1.226754996
Au      -0.901561502   3.328912357   3.751837237
Au       3.211267892   1.729925985   0.663084989
Au       3.829580331   3.470116052   5.853451630
Au       7.714885080   1.771968861   2.919435141



     Writing output data file pwscf.save
     Check: negative starting charge=   -0.006453
     NEW-OLD atomic charge density approx. for the potential
     Check: negative starting charge=   -0.006448

     negative rho (up, down):  3.411E-05 0.000E+00

     total cpu time spent up to now is       41.0 secs

     per-process dynamical memory:    50.7 Mb

     Self-consistent Calculation

     iteration #  1     ecut=    30.00 Ry     beta=0.70
     Davidson diagonalization with overlap
     ethr =  1.00E-06,  avg # of iterations =  4.0

     Threshold (ethr) on eigenvalues was too large:
     Diagonalizing with lowered threshold

     Davidson diagonalization with overlap
     ethr =  8.22E-08,  avg # of iterations =  1.0

     negative rho (up, down):  7.541E-08 0.000E+00

     total cpu time spent up to now is       41.7 secs

     total energy              =    -329.49124363 Ry
     Harris-Foulkes estimate   =    -329.49125504 Ry
     estimated scf accuracy    <       0.00004532 Ry

     iteration #  2     ecut=    30.00 Ry     beta=0.70
     Davidson diagonalization with overlap
     ethr =  8.24E-08,  avg # of iterations =  3.0

     total cpu time spent up to now is       42.0 secs

     total energy              =    -329.49124602 Ry
     Harris-Foulkes estimate   =    -329.49127445 Ry
     estimated scf accuracy    <       0.00006363 Ry

     iteration #  3     ecut=    30.00 Ry     beta=0.70
     Davidson diagonalization with overlap
     ethr =  8.24E-08,  avg # of iterations =  2.0

     total cpu time spent up to now is       42.3 secs

     total energy              =    -329.49125904 Ry
     Harris-Foulkes estimate   =    -329.49126383 Ry
     estimated scf accuracy    <       0.00001375 Ry

     iteration #  4     ecut=    30.00 Ry     beta=0.70
     Davidson diagonalization with overlap
     ethr =  2.50E-08,  avg # of iterations =  2.0

     total cpu time spent up to now is       42.5 secs

     total energy              =    -329.49126273 Ry
     Harris-Foulkes estimate   =    -329.49126247 Ry
     estimated scf accuracy    <       0.00000162 Ry

     iteration #  5     ecut=    30.00 Ry     beta=0.70
     Davidson diagonalization with overlap
     ethr =  2.95E-09,  avg # of iterations =  2.0

     total cpu time spent up to now is       42.8 secs

     total energy              =    -329.49126329 Ry
     Harris-Foulkes estimate   =    -329.49126312 Ry
     estimated scf accuracy    <       0.00000016 Ry

     iteration #  6     ecut=    30.00 Ry     beta=0.70
     Davidson diagonalization with overlap
     ethr =  2.82E-10,  avg # of iterations =  2.0

     total cpu time spent up to now is       43.1 secs

     total energy              =    -329.49126343 Ry
     Harris-Foulkes estimate   =    -329.49126333 Ry
[...]

     CASE: energy  _new < energy  _old

     new trust radius        =       0.0057842543 bohr
     new conv_thr            =            1.0E-10 Ry


ATOMIC_POSITIONS (bohr)
Au      -1.498480991   1.927217641  -1.172101894
Au      -0.840955946   3.580779134   3.669606986
Au       3.191488884   1.669257100   0.665398759
Au       3.849884158   3.494329205   5.830731607
Au       7.691466894   1.641299921   2.967418541



     Writing output data file pwscf.save
     Check: negative starting charge=   -0.006433
     NEW-OLD atomic charge density approx. for the potential
     Check: negative starting charge=   -0.006436

     negative rho (up, down):  8.129E-07 0.000E+00

     total cpu time spent up to now is      112.6 secs

     per-process dynamical memory:    50.7 Mb

     Self-consistent Calculation

     iteration #  1     ecut=    30.00 Ry     beta=0.70
     Davidson diagonalization with overlap
     ethr =  1.00E-06,  avg # of iterations =  3.0

     Threshold (ethr) on eigenvalues was too large:
     Diagonalizing with lowered threshold

     Davidson diagonalization with overlap
     ethr =  1.40E-08,  avg # of iterations =  2.0

     total cpu time spent up to now is      113.2 secs

     total energy              =    -329.49199064 Ry
     Harris-Foulkes estimate   =    -329.49199198 Ry
     estimated scf accuracy    <       0.00000823 Ry

     iteration #  2     ecut=    30.00 Ry     beta=0.70
     Davidson diagonalization with overlap
     ethr =  1.50E-08,  avg # of iterations =  3.0

     total cpu time spent up to now is      113.5 secs

     total energy              =    -329.49199122 Ry
     Harris-Foulkes estimate   =    -329.49199603 Ry
     estimated scf accuracy    <       0.00001077 Ry

     iteration #  3     ecut=    30.00 Ry     beta=0.70
     Davidson diagonalization with overlap
     ethr =  1.50E-08,  avg # of iterations =  2.0

     total cpu time spent up to now is      113.8 secs

     total energy              =    -329.49199332 Ry
     Harris-Foulkes estimate   =    -329.49199406 Ry
     estimated scf accuracy    <       0.00000171 Ry

     iteration #  4     ecut=    30.00 Ry     beta=0.70
     Davidson diagonalization with overlap
     ethr =  3.10E-09,  avg # of iterations =  2.0

     total cpu time spent up to now is      114.0 secs

     total energy              =    -329.49199369 Ry
     Harris-Foulkes estimate   =    -329.49199392 Ry
     estimated scf accuracy    <       0.00000061 Ry

     iteration #  5     ecut=    30.00 Ry     beta=0.70
     Davidson diagonalization with overlap
     ethr =  1.11E-09,  avg # of iterations =  2.0

     total cpu time spent up to now is      114.3 secs

     total energy              =    -329.49199378 Ry
     Harris-Foulkes estimate   =    -329.49199380 Ry
     estimated scf accuracy    <       0.00000002 Ry

     iteration #  6     ecut=    30.00 Ry     beta=0.70
     Davidson diagonalization with overlap
     ethr =  4.07E-11,  avg # of iterations =  3.0

     total cpu time spent up to now is      114.6 secs

     total energy              =    -329.49199371 Ry
     Harris-Foulkes estimate   =    -329.49199379 Ry
     estimated scf accuracy    <          4.3E-09 Ry

     iteration #  7     ecut=    30.00 Ry     beta=0.70
     Davidson diagonalization with overlap
     ethr =  7.91E-12,  avg # of iterations =  3.0

     total cpu time spent up to now is      114.9 secs

     total energy              =    -329.49199376 Ry
     Harris-Foulkes estimate   =    -329.49199371 Ry
     estimated scf accuracy    <          1.6E-09 Ry

     iteration #  8     ecut=    30.00 Ry     beta=0.70
     Davidson diagonalization with overlap
     ethr =  2.84E-12,  avg # of iterations =  2.0

     total cpu time spent up to now is      115.2 secs

     total energy              =    -329.49199375 Ry
     Harris-Foulkes estimate   =    -329.49199376 Ry
     estimated scf accuracy    <          3.5E-10 Ry

     iteration #  9     ecut=    30.00 Ry     beta=0.70
     Davidson diagonalization with overlap
     ethr =  6.43E-13,  avg # of iterations =  2.0

     total cpu time spent up to now is      115.4 secs

     End of self-consistent calculation

          k = 0.0000 0.0000 0.0000 ( 22119 PWs)   bands (ev):

    -8.5086  -7.7854  -7.6567  -7.2468  -6.8843  -6.8185  -6.6297  -6.4796
    -6.3213  -6.0685  -5.9734  -5.7730  -5.7324  -5.6902  -5.4517  -5.3675
    -5.3173  -5.2385  -5.1998  -5.1898  -5.1718  -5.1270  -5.0015  -4.9137
    -4.8551  -4.7228  -4.4702  -3.7722  -2.4649  -2.2066  -0.5590  -0.1895
     0.4509   0.8713

     the Fermi energy is    -3.7399 ev

!    total energy              =    -329.49199376 Ry
     Harris-Foulkes estimate   =    -329.49199375 Ry
     estimated scf accuracy    <          1.9E-11 Ry

     The total energy is the sum of the following terms:

     one-electron contribution =    -608.85268879 Ry
     hartree contribution      =     325.85312029 Ry
     xc contribution           =     -51.40286305 Ry
     ewald contribution        =       4.91474172 Ry
     smearing contrib. (-TS)   =      -0.00430393 Ry

     convergence has been achieved in   9 iterations

     Forces acting on atoms (Ry/au):

     atom    1 type  1   force =    -0.00134711   -0.00024264   -0.00121122
     atom    2 type  1   force =    -0.00037075    0.00084608    0.00044690
     atom    3 type  1   force =     0.00099527   -0.00023313    0.00108270
     atom    4 type  1   force =     0.00069770    0.00022262   -0.00020201
     atom    5 type  1   force =     0.00002489   -0.00059293   -0.00011638

     Total force =     0.002748     Total SCF correction =     0.000018

     number of scf cycles    =  34
     number of bfgs steps    =  32

     energy   old            =    -329.4919805754 Ry
     energy   new            =    -329.4919937644 Ry

     CASE: energy  _new < energy  _old

     new trust radius        =       0.0063626797 bohr
     new conv_thr            =            1.0E-10 Ry


ATOMIC_POSITIONS (bohr)
Au      -1.500188916   1.927210704  -1.172609359
Au      -0.839372850   3.586912202   3.669004500
Au       3.190628730   1.665633911   0.668883862
Au       3.850846979   3.494595295   5.826204570
Au       7.691489057   1.638530889   2.969570426



     Writing output data file pwscf.save
     Check: negative starting charge=   -0.006436
     NEW-OLD atomic charge density approx. for the potential
     Check: negative starting charge=   -0.006438

     negative rho (up, down):  8.082E-07 0.000E+00

     total cpu time spent up to now is      115.7 secs

     per-process dynamical memory:    50.7 Mb

     Self-consistent Calculation

     iteration #  1     ecut=    30.00 Ry     beta=0.70
     Davidson diagonalization with overlap
     ethr =  1.00E-06,  avg # of iterations =  3.0

     Threshold (ethr) on eigenvalues was too large:
     Diagonalizing with lowered threshold

     Davidson diagonalization with overlap
     ethr =  1.53E-08,  avg # of iterations =  2.0

     total cpu time spent up to now is      116.2 secs

     total energy              =    -329.49200201 Ry
     Harris-Foulkes estimate   =    -329.49200482 Ry
     estimated scf accuracy    <       0.00000909 Ry

     iteration #  2     ecut=    30.00 Ry     beta=0.70
     Davidson diagonalization with overlap
     ethr =  1.65E-08,  avg # of iterations =  3.0

     total cpu time spent up to now is      116.6 secs

     total energy              =    -329.49200265 Ry
     Harris-Foulkes estimate   =    -329.49200799 Ry
     estimated scf accuracy    <       0.00001118 Ry

     iteration #  3     ecut=    30.00 Ry     beta=0.70
     Davidson diagonalization with overlap
     ethr =  1.65E-08,  avg # of iterations =  2.0

     total cpu time spent up to now is      116.9 secs

     total energy              =    -329.49200476 Ry
     Harris-Foulkes estimate   =    -329.49200550 Ry
     estimated scf accuracy    <       0.00000163 Ry

     iteration #  4     ecut=    30.00 Ry     beta=0.70
     Davidson diagonalization with overlap
     ethr =  2.97E-09,  avg # of iterations =  2.0

     total cpu time spent up to now is      117.1 secs

     total energy              =    -329.49200495 Ry
     Harris-Foulkes estimate   =    -329.49200539 Ry
     estimated scf accuracy    <       0.00000072 Ry

     iteration #  5     ecut=    30.00 Ry     beta=0.70
     Davidson diagonalization with overlap
     ethr =  1.30E-09,  avg # of iterations =  2.0

     total cpu time spent up to now is      117.4 secs

     total energy              =    -329.49200507 Ry
     Harris-Foulkes estimate   =    -329.49200507 Ry
     estimated scf accuracy    <       0.00000002 Ry

     iteration #  6     ecut=    30.00 Ry     beta=0.70
     Davidson diagonalization with overlap
     ethr =  4.43E-11,  avg # of iterations =  3.0

     total cpu time spent up to now is      117.7 secs

     total energy              =    -329.49200513 Ry
     Harris-Foulkes estimate   =    -329.49200508 Ry
     estimated scf accuracy    <          6.5E-09 Ry

     iteration #  7     ecut=    30.00 Ry     beta=0.70
     Davidson diagonalization with overlap
     ethr =  1.17E-11,  avg # of iterations =  2.0

     total cpu time spent up to now is      118.0 secs

     total energy              =    -329.49200508 Ry
     Harris-Foulkes estimate   =    -329.49200513 Ry
     estimated scf accuracy    <          1.8E-09 Ry

     iteration #  8     ecut=    30.00 Ry     beta=0.70
     Davidson diagonalization with overlap
     ethr =  3.31E-12,  avg # of iterations =  2.0

     total cpu time spent up to now is      118.3 secs

     total energy              =    -329.49200510 Ry
     Harris-Foulkes estimate   =    -329.49200508 Ry
     estimated scf accuracy    <          2.7E-10 Ry

     iteration #  9     ecut=    30.00 Ry     beta=0.70
     Davidson diagonalization with overlap
     ethr =  4.85E-13,  avg # of iterations =  2.0

     total cpu time spent up to now is      118.6 secs

     End of self-consistent calculation

          k = 0.0000 0.0000 0.0000 ( 22119 PWs)   bands (ev):

    -8.5090  -7.7873  -7.6601  -7.2503  -6.8844  -6.8184  -6.6302  -6.4817
    -6.3238  -6.0686  -5.9728  -5.7728  -5.7321  -5.6906  -5.4536  -5.3673
    -5.3174  -5.2391  -5.1999  -5.1900  -5.1714  -5.1264  -5.0025  -4.9133
    -4.8528  -4.7242  -4.4700  -3.7717  -2.4656  -2.2050  -0.5593  -0.1884
     0.4504   0.8710

     the Fermi energy is    -3.7393 ev

!    total energy              =    -329.49200508 Ry
     Harris-Foulkes estimate   =    -329.49200510 Ry
     estimated scf accuracy    <          2.6E-11 Ry

     The total energy is the sum of the following terms:

     one-electron contribution =    -608.94166418 Ry
     hartree contribution      =     325.89673954 Ry
     xc contribution           =     -51.40312692 Ry
     ewald contribution        =       4.96036553 Ry
     smearing contrib. (-TS)   =      -0.00431905 Ry

     convergence has been achieved in   9 iterations

     Forces acting on atoms (Ry/au):

     atom    1 type  1   force =    -0.00102634   -0.00023488   -0.00096941
     atom    2 type  1   force =    -0.00062791    0.00077351    0.00030274
     atom    3 type  1   force =     0.00068585   -0.00022190    0.00070779
     atom    4 type  1   force =     0.00064598    0.00037956    0.00031229
     atom    5 type  1   force =     0.00032241   -0.00069629   -0.00035342

     Total force =     0.002351     Total SCF correction =     0.000020

     number of scf cycles    =  35
     number of bfgs steps    =  33

     energy   old            =    -329.4919937644 Ry
     energy   new            =    -329.4920050836 Ry

     CASE: energy  _new < energy  _old

     new trust radius        =       0.0095440195 bohr
     new conv_thr            =            1.0E-10 Ry


ATOMIC_POSITIONS (bohr)
Au      -1.502364926   1.927240960  -1.173252713
Au      -0.838336975   3.596378975   3.668375633
Au       3.190347736   1.659585329   0.672873669
Au       3.852173524   3.495582098   5.821408859
Au       7.691583640   1.634095639   2.971648551



     Writing output data file pwscf.save
     Check: negative starting charge=   -0.006438
     NEW-OLD atomic charge density approx. for the potential
     Check: negative starting charge=   -0.006440

     negative rho (up, down):  4.489E-06 0.000E+00

     total cpu time spent up to now is      118.9 secs

     per-process dynamical memory:    50.7 Mb

     Self-consistent Calculation

     iteration #  1     ecut=    30.00 Ry     beta=0.70
     Davidson diagonalization with overlap
     ethr =  1.00E-06,  avg # of iterations =  4.0

     Threshold (ethr) on eigenvalues was too large:
     Diagonalizing with lowered threshold

     Davidson diagonalization with overlap
     ethr =  3.15E-08,  avg # of iterations =  1.0

     total cpu time spent up to now is      119.6 secs

     total energy              =    -329.49201081 Ry
     Harris-Foulkes estimate   =    -329.49201933 Ry
     estimated scf accuracy    <       0.00001821 Ry

     iteration #  2     ecut=    30.00 Ry     beta=0.70
     Davidson diagonalization with overlap
     ethr =  3.31E-08,  avg # of iterations =  3.0

     total cpu time spent up to now is      119.9 secs

     total energy              =    -329.49201281 Ry
     Harris-Foulkes estimate   =    -329.49202234 Ry
     estimated scf accuracy    <       0.00002012 Ry

     iteration #  3     ecut=    30.00 Ry     beta=0.70
     Davidson diagonalization with overlap
     ethr =  3.31E-08,  avg # of iterations =  2.0

     total cpu time spent up to now is      120.3 secs

     total energy              =    -329.49201646 Ry
     Harris-Foulkes estimate   =    -329.49201778 Ry
     estimated scf accuracy    <       0.00000245 Ry

     iteration #  4     ecut=    30.00 Ry     beta=0.70
     Davidson diagonalization with overlap
     ethr =  4.45E-09,  avg # of iterations =  2.0

     total cpu time spent up to now is      120.7 secs

     total energy              =    -329.49201702 Ry
     Harris-Foulkes estimate   =    -329.49201763 Ry
     estimated scf accuracy    <       0.00000177 Ry

     iteration #  5     ecut=    30.00 Ry     beta=0.70
     Davidson diagonalization with overlap
     ethr =  3.21E-09,  avg # of iterations =  2.0

     total cpu time spent up to now is      121.0 secs

     total energy              =    -329.49201727 Ry
     Harris-Foulkes estimate   =    -329.49201731 Ry
     estimated scf accuracy    <       0.00000004 Ry

     iteration #  6     ecut=    30.00 Ry     beta=0.70
     Davidson diagonalization with overlap
     ethr =  7.47E-11,  avg # of iterations =  3.0

     total cpu time spent up to now is      121.4 secs

     total energy              =    -329.49201721 Ry
     Harris-Foulkes estimate   =    -329.49201730 Ry
     estimated scf accuracy    <       0.00000001 Ry

     iteration #  7     ecut=    30.00 Ry     beta=0.70
     Davidson diagonalization with overlap
     ethr =  2.23E-11,  avg # of iterations =  3.0

     total cpu time spent up to now is      121.9 secs

     total energy              =    -329.49201719 Ry
     Harris-Foulkes estimate   =    -329.49201721 Ry
     estimated scf accuracy    <          3.2E-09 Ry

     iteration #  8     ecut=    30.00 Ry     beta=0.70
     Davidson diagonalization with overlap
     ethr =  5.88E-12,  avg # of iterations =  2.0

     total cpu time spent up to now is      122.1 secs

     total energy              =    -329.49201716 Ry
     Harris-Foulkes estimate   =    -329.49201719 Ry
     estimated scf accuracy    <          5.1E-10 Ry

     iteration #  9     ecut=    30.00 Ry     beta=0.70
     Davidson diagonalization with overlap
     ethr =  9.35E-13,  avg # of iterations =  2.0

     total cpu time spent up to now is      122.4 secs

     End of self-consistent calculation

          k = 0.0000 0.0000 0.0000 ( 22119 PWs)   bands (ev):

    -8.5076  -7.7873  -7.6615  -7.2519  -6.8834  -6.8172  -6.6299  -6.4824
    -6.3252  -6.0683  -5.9718  -5.7723  -5.7314  -5.6905  -5.4550  -5.3669
    -5.3176  -5.2395  -5.2002  -5.1902  -5.1709  -5.1260  -5.0035  -4.9131
    -4.8506  -4.7262  -4.4699  -3.7716  -2.4666  -2.2042  -0.5591  -0.1876
     0.4500   0.8705

     the Fermi energy is    -3.7392 ev

!    total energy              =    -329.49201717 Ry
     Harris-Foulkes estimate   =    -329.49201716 Ry
     estimated scf accuracy    <          7.3E-11 Ry

     The total energy is the sum of the following terms:

     one-electron contribution =    -608.92127497 Ry
     hartree contribution      =     325.88646776 Ry
     xc contribution           =     -51.40300656 Ry
     ewald contribution        =       4.95012162 Ry
     smearing contrib. (-TS)   =      -0.00432503 Ry

     convergence has been achieved in   9 iterations

     Forces acting on atoms (Ry/au):

     atom    1 type  1   force =    -0.00053349   -0.00022580   -0.00053343
     atom    2 type  1   force =    -0.00074761    0.00062609   -0.00000875
     atom    3 type  1   force =     0.00007674   -0.00009995    0.00035395
     atom    4 type  1   force =     0.00054615    0.00048712    0.00071548
     atom    5 type  1   force =     0.00065820   -0.00078747   -0.00052725

     Total force =     0.002023     Total SCF correction =     0.000034

     bfgs converged in  36 scf cycles and  34 bfgs steps
     (criteria: energy <  1.0E-04, force <  1.0E-03)

     End of BFGS Geometry Optimization

     Final energy   =    -329.4920171742 Ry
Begin final coordinates

ATOMIC_POSITIONS (bohr)
Au      -1.502364926   1.927240960  -1.173252713
Au      -0.838336975   3.596378975   3.668375633
Au       3.190347736   1.659585329   0.672873669
Au       3.852173524   3.495582098   5.821408859
Au       7.691583640   1.634095639   2.971648551
End final coordinates



     Writing output data file pwscf.save
 
     init_run     :      0.21s CPU      0.24s WALL (       1 calls)
     electrons    :    105.89s CPU    112.71s WALL (      36 calls)
     update_pot   :      3.20s CPU      4.15s WALL (      35 calls)
     forces       :      1.87s CPU      1.90s WALL (      36 calls)

     Called by init_run:
     wfcinit      :      0.07s CPU      0.09s WALL (       1 calls)
     potinit      :      0.07s CPU      0.08s WALL (       1 calls)

     Called by electrons:
     c_bands      :     78.72s CPU     79.99s WALL (     364 calls)
     sum_band     :     10.04s CPU     10.29s WALL (     364 calls)
     v_of_rho     :      9.01s CPU      9.16s WALL (     382 calls)
     mix_rho      :      4.38s CPU      7.06s WALL (     364 calls)

     Called by c_bands:
     init_us_2    :      1.14s CPU      1.18s WALL (     729 calls)
     cegterg      :     71.71s CPU     72.80s WALL (     364 calls)

     Called by sum_band:

     Called by *egterg:
     h_psi        :     53.00s CPU     53.75s WALL (    1266 calls)
     g_psi        :      0.43s CPU      0.43s WALL (     901 calls)
     cdiaghg      :      5.08s CPU      5.16s WALL (    1212 calls)

     Called by h_psi:
     h_psi:pot    :     52.36s CPU     53.11s WALL (    1266 calls)
     h_psi:calbec :      4.15s CPU      4.20s WALL (    1266 calls)
     vloc_psi     :     45.61s CPU     46.29s WALL (    1266 calls)
     add_vuspsi   :      2.60s CPU      2.61s WALL (    1266 calls)

     General routines
     calbec       :      4.76s CPU      4.83s WALL (    1410 calls)
     fft          :      5.57s CPU      5.70s WALL (    4309 calls)
     fftw         :     48.72s CPU     49.79s WALL (   80974 calls)
     davcio       :      0.49s CPU      2.53s WALL (    3577 calls)
 
     Parallel routines
     fft_scatter  :     21.52s CPU     21.75s WALL (   85283 calls)
 
     PWSCF        :  1m52.85s CPU     2m 2.69s WALL

 
   This run was terminated on:   1:23: 0  29Jul2017            

=------------------------------------------------------------------------------=
   JOB DONE.
=------------------------------------------------------------------------------=
