
     Program PWSCF v.6.0 (svn rev. 13079) starts on 29Jul2017 at  0:54:41 

     This program is part of the open-source Quantum ESPRESSO suite
     for quantum simulation of materials; please cite
         "P. Giannozzi et al., J. Phys.:Condens. Matter 21 395502 (2009);
          URL http://www.quantum-espresso.org", 
     in publications or presentations arising from this work. More details at
     http://www.quantum-espresso.org/quote

     Parallel version (MPI), running on    10 processors
     R & G space division:  proc/nbgrp/npool/nimage =      10
     Reading input from input/dftmin-Gold5-multi-4.in

     Current dimensions of program PWSCF are:
     Max number of different atomic species (ntypx) = 10
     Max number of k-points (npk) =  40000
     Max angular momentum in pseudopotentials (lmaxx) =  3
     Message from routine iosys:
     pot_extrapolation='second-order' not available, using 'atomic'
     Message from routine iosys:
     wfc_extrapolation='second-order' not available, using 'atomic'

     Subspace diagonalization in iterative solution of the eigenvalue problem:
     a serial algorithm will be used

 
     Parallelization info
     --------------------
     sticks:   dense  smooth     PW     G-vecs:    dense   smooth      PW
     Min         380     380     94                17748    17748    2208
     Max         381     381     95                17753    17753    2213
     Sum        3809    3809    949               177509   177509   22119
 


     bravais-lattice index     =            1
     lattice parameter (alat)  =      20.0000  a.u.
     unit-cell volume          =    8000.0000 (a.u.)^3
     number of atoms/cell      =            5
     number of atomic types    =            1
     number of electrons       =        55.00
     number of Kohn-Sham states=           34
     kinetic-energy cutoff     =      30.0000  Ry
     charge density cutoff     =     120.0000  Ry
     convergence threshold     =      1.0E-08
     mixing beta               =       0.7000
     number of iterations used =            8  plain     mixing
     Exchange-correlation      = BLYP ( 1  3  1  3 0 0)
     nstep                     =           50


     celldm(1)=  20.000000  celldm(2)=   0.000000  celldm(3)=   0.000000
     celldm(4)=   0.000000  celldm(5)=   0.000000  celldm(6)=   0.000000

     crystal axes: (cart. coord. in units of alat)
               a(1) = (   1.000000   0.000000   0.000000 )  
               a(2) = (   0.000000   1.000000   0.000000 )  
               a(3) = (   0.000000   0.000000   1.000000 )  

     reciprocal axes: (cart. coord. in units 2 pi/alat)
               b(1) = (  1.000000  0.000000  0.000000 )  
               b(2) = (  0.000000  1.000000  0.000000 )  
               b(3) = (  0.000000  0.000000  1.000000 )  


     PseudoPot. # 1 for Au read from file:
     ./Au.blyp-d-hgh.UPF
     MD5 check sum: c10d8bae01f806c36a1643a1c69a8479
     Pseudo is Norm-conserving, Zval = 11.0
     Generated in analytical, separable form
     Using radial grid of 1279 points,  6 beta functions with: 
                l(1) =   0
                l(2) =   0
                l(3) =   1
                l(4) =   1
                l(5) =   2
                l(6) =   2

     atomic species   valence    mass     pseudopotential
        Au            11.00    28.08600     Au( 1.00)

     No symmetry found



   Cartesian axes

     site n.     atom                  positions (alat units)
         1           Au  tau(   1) = (  -0.0956801   0.1996773  -0.0335355  )
         2           Au  tau(   2) = (   0.0020901   0.1123536   0.2205573  )
         3           Au  tau(   3) = (   0.1375557   0.1321328   0.0000702  )
         4           Au  tau(   4) = (   0.2239034   0.2138713   0.2884098  )
         5           Au  tau(   5) = (   0.3342867   0.0475383   0.1243305  )

     number of k points=     1  Marzari-Vanderbilt smearing, width (Ry)=  0.0250
                       cart. coord. in units 2pi/alat
        k(    1) = (   0.0000000   0.0000000   0.0000000), wk =   2.0000000

     Dense  grid:   177509 G-vectors     FFT dimensions: (  72,  72,  72)

     Estimated max dynamical RAM per process >      15.04Mb

     Estimated total allocated dynamical RAM >     150.39Mb

     Initial potential from superposition of free atoms
     Check: negative starting charge=   -0.006141

     starting charge   54.99940, renormalised to   55.00000

     negative rho (up, down):  6.141E-03 0.000E+00
     Starting wfc are   45 randomized atomic wfcs

     total cpu time spent up to now is        0.4 secs

     per-process dynamical memory:    41.0 Mb

     Self-consistent Calculation

     iteration #  1     ecut=    30.00 Ry     beta=0.70
     Davidson diagonalization with overlap
     ethr =  1.00E-02,  avg # of iterations =  3.0

     Threshold (ethr) on eigenvalues was too large:
     Diagonalizing with lowered threshold

     Davidson diagonalization with overlap
     ethr =  3.89E-04,  avg # of iterations =  6.0

     negative rho (up, down):  8.050E-04 0.000E+00

     total cpu time spent up to now is        0.9 secs

     total energy              =    -329.35023770 Ry
     Harris-Foulkes estimate   =    -329.51302406 Ry
     estimated scf accuracy    <       0.27167871 Ry

     iteration #  2     ecut=    30.00 Ry     beta=0.70
     Davidson diagonalization with overlap
     ethr =  4.94E-04,  avg # of iterations =  4.0

     negative rho (up, down):  3.362E-04 0.000E+00

     total cpu time spent up to now is        1.2 secs

     total energy              =    -329.39323851 Ry
     Harris-Foulkes estimate   =    -329.52005319 Ry
     estimated scf accuracy    <       0.25484576 Ry

     iteration #  3     ecut=    30.00 Ry     beta=0.70
     Davidson diagonalization with overlap
     ethr =  4.63E-04,  avg # of iterations =  2.0

     negative rho (up, down):  1.415E-04 0.000E+00

     total cpu time spent up to now is        1.6 secs

     total energy              =    -329.44047453 Ry
     Harris-Foulkes estimate   =    -329.46961634 Ry
     estimated scf accuracy    <       0.08116346 Ry

     iteration #  4     ecut=    30.00 Ry     beta=0.70
     Davidson diagonalization with overlap
     ethr =  1.48E-04,  avg # of iterations =  2.0

     negative rho (up, down):  1.487E-05 0.000E+00

     total cpu time spent up to now is        1.8 secs

     total energy              =    -329.45419343 Ry
     Harris-Foulkes estimate   =    -329.45712800 Ry
     estimated scf accuracy    <       0.00843307 Ry

     iteration #  5     ecut=    30.00 Ry     beta=0.70
     Davidson diagonalization with overlap
     ethr =  1.53E-05,  avg # of iterations =  4.0

     negative rho (up, down):  2.131E-08 0.000E+00

     total cpu time spent up to now is        2.1 secs

     total energy              =    -329.45586717 Ry
     Harris-Foulkes estimate   =    -329.45664510 Ry
     estimated scf accuracy    <       0.00210757 Ry

     iteration #  6     ecut=    30.00 Ry     beta=0.70
     Davidson diagonalization with overlap
     ethr =  3.83E-06,  avg # of iterations =  2.0

     total cpu time spent up to now is        2.4 secs

     total energy              =    -329.45622578 Ry
     Harris-Foulkes estimate   =    -329.45632271 Ry
     estimated scf accuracy    <       0.00019982 Ry

     iteration #  7     ecut=    30.00 Ry     beta=0.70
     Davidson diagonalization with overlap
     ethr =  3.63E-07,  avg # of iterations =  2.0

     total cpu time spent up to now is        2.8 secs

     total energy              =    -329.45627437 Ry
     Harris-Foulkes estimate   =    -329.45629687 Ry
     estimated scf accuracy    <       0.00005265 Ry

     iteration #  8     ecut=    30.00 Ry     beta=0.70
     Davidson diagonalization with overlap
     ethr =  9.57E-08,  avg # of iterations =  2.0

     total cpu time spent up to now is        3.0 secs

     total energy              =    -329.45628370 Ry
     Harris-Foulkes estimate   =    -329.45628717 Ry
     estimated scf accuracy    <       0.00000647 Ry

     iteration #  9     ecut=    30.00 Ry     beta=0.70
     Davidson diagonalization with overlap
     ethr =  1.18E-08,  avg # of iterations =  2.0

     total cpu time spent up to now is        3.3 secs

     total energy              =    -329.45628482 Ry
     Harris-Foulkes estimate   =    -329.45628545 Ry
     estimated scf accuracy    <       0.00000067 Ry

     iteration # 10     ecut=    30.00 Ry     beta=0.70
     Davidson diagonalization with overlap
     ethr =  1.21E-09,  avg # of iterations =  2.0

     total cpu time spent up to now is        3.6 secs

     total energy              =    -329.45628488 Ry
     Harris-Foulkes estimate   =    -329.45628507 Ry
     estimated scf accuracy    <       0.00000024 Ry

     iteration # 11     ecut=    30.00 Ry     beta=0.70
     Davidson diagonalization with overlap
     ethr =  4.43E-10,  avg # of iterations =  2.0

     total cpu time spent up to now is        3.9 secs

     total energy              =    -329.45628486 Ry
     Harris-Foulkes estimate   =    -329.45628494 Ry
     estimated scf accuracy    <       0.00000002 Ry

     iteration # 12     ecut=    30.00 Ry     beta=0.70
     Davidson diagonalization with overlap
     ethr =  3.91E-11,  avg # of iterations =  2.0

     total cpu time spent up to now is        4.2 secs

     End of self-consistent calculation

          k = 0.0000 0.0000 0.0000 ( 22119 PWs)   bands (ev):

    -8.3313  -7.7496  -7.5268  -7.2167  -6.9781  -6.7600  -6.6273  -6.4315
    -6.2625  -5.9404  -5.8318  -5.7192  -5.7073  -5.6086  -5.4993  -5.4225
    -5.2811  -5.2229  -5.1494  -5.1354  -5.0839  -4.9802  -4.9186  -4.8345
    -4.7623  -4.4456  -4.4019  -3.6957  -2.6794  -2.1621  -0.2611  -0.1214
     0.2712   0.6511

     the Fermi energy is    -3.6723 ev

!    total energy              =    -329.45628479 Ry
     Harris-Foulkes estimate   =    -329.45628487 Ry
     estimated scf accuracy    <          2.1E-09 Ry

     The total energy is the sum of the following terms:

     one-electron contribution =    -608.39926815 Ry
     hartree contribution      =     325.75997751 Ry
     xc contribution           =     -51.40732643 Ry
     ewald contribution        =       4.59234399 Ry
     smearing contrib. (-TS)   =      -0.00201171 Ry

     convergence has been achieved in  12 iterations

     Forces acting on atoms (Ry/au):

     atom    1 type  1   force =    -0.01621077   -0.00351071    0.01126377
     atom    2 type  1   force =    -0.01682396    0.01405117   -0.01581228
     atom    3 type  1   force =     0.00734883   -0.00014101   -0.00552644
     atom    4 type  1   force =     0.00660610   -0.00987350    0.00134452
     atom    5 type  1   force =     0.01907981   -0.00052596    0.00873043

     Total force =     0.042433     Total SCF correction =     0.000212

     BFGS Geometry Optimization

     number of scf cycles    =   1
     number of bfgs steps    =   0

     energy   new            =    -329.4562847865 Ry

     new trust radius        =       0.0270279390 bohr
     new conv_thr            =       0.0000000100 Ry


ATOMIC_POSITIONS (bohr)
Au      -1.929813773   3.990035291  -0.659447232
Au       0.024979038   2.261123172   4.395333715
Au       2.758462830   2.642514995  -0.004122440
Au       4.484675100   4.267552504   5.769540525
Au       6.704812805   0.950240038   2.495340432



     Writing output data file pwscf.save
     Check: negative starting charge=   -0.006141
     NEW-OLD atomic charge density approx. for the potential
     Check: negative starting charge=   -0.006128

     negative rho (up, down):  1.297E-04 0.000E+00

     total cpu time spent up to now is        4.5 secs

     per-process dynamical memory:    42.9 Mb

     Self-consistent Calculation

     iteration #  1     ecut=    30.00 Ry     beta=0.70
     Davidson diagonalization with overlap
     ethr =  1.00E-06,  avg # of iterations =  4.0

     negative rho (up, down):  1.600E-06 0.000E+00

     total cpu time spent up to now is        5.0 secs

     total energy              =    -329.45795533 Ry
     Harris-Foulkes estimate   =    -329.45795364 Ry
     estimated scf accuracy    <       0.00011221 Ry

     iteration #  2     ecut=    30.00 Ry     beta=0.70
     Davidson diagonalization with overlap
     ethr =  2.04E-07,  avg # of iterations =  3.0

     negative rho (up, down):  1.634E-07 0.000E+00

     total cpu time spent up to now is        5.3 secs

     total energy              =    -329.45796184 Ry
     Harris-Foulkes estimate   =    -329.45802446 Ry
     estimated scf accuracy    <       0.00013878 Ry

     iteration #  3     ecut=    30.00 Ry     beta=0.70
     Davidson diagonalization with overlap
     ethr =  2.04E-07,  avg # of iterations =  2.0

     total cpu time spent up to now is        5.6 secs

     total energy              =    -329.45799375 Ry
     Harris-Foulkes estimate   =    -329.45800219 Ry
     estimated scf accuracy    <       0.00002746 Ry

     iteration #  4     ecut=    30.00 Ry     beta=0.70
     Davidson diagonalization with overlap
     ethr =  4.99E-08,  avg # of iterations =  2.0

     total cpu time spent up to now is        5.8 secs

     total energy              =    -329.45799838 Ry
     Harris-Foulkes estimate   =    -329.45800315 Ry
     estimated scf accuracy    <       0.00001356 Ry

     iteration #  5     ecut=    30.00 Ry     beta=0.70
     Davidson diagonalization with overlap
     ethr =  2.46E-08,  avg # of iterations =  2.0

     total cpu time spent up to now is        6.1 secs

     total energy              =    -329.45800109 Ry
     Harris-Foulkes estimate   =    -329.45800185 Ry
     estimated scf accuracy    <       0.00000397 Ry

     iteration #  6     ecut=    30.00 Ry     beta=0.70
     Davidson diagonalization with overlap
     ethr =  7.22E-09,  avg # of iterations =  2.0

     total cpu time spent up to now is        6.3 secs

     total energy              =    -329.45800188 Ry
     Harris-Foulkes estimate   =    -329.45800179 Ry
     estimated scf accuracy    <       0.00000009 Ry

     iteration #  7     ecut=    30.00 Ry     beta=0.70
     Davidson diagonalization with overlap
     ethr =  1.69E-10,  avg # of iterations =  3.0

     total cpu time spent up to now is        6.7 secs

     total energy              =    -329.45800192 Ry
     Harris-Foulkes estimate   =    -329.45800194 Ry
     estimated scf accuracy    <       0.00000004 Ry

     iteration #  8     ecut=    30.00 Ry     beta=0.70
     Davidson diagonalization with overlap
     ethr =  7.83E-11,  avg # of iterations =  2.0

     total cpu time spent up to now is        6.9 secs

     End of self-consistent calculation

          k = 0.0000 0.0000 0.0000 ( 22119 PWs)   bands (ev):

    -8.3082  -7.7285  -7.5217  -7.2022  -6.9713  -6.7474  -6.6167  -6.4211
    -6.2673  -5.9442  -5.8284  -5.7139  -5.7049  -5.6064  -5.5008  -5.4306
    -5.2768  -5.2235  -5.1503  -5.1355  -5.0892  -4.9886  -4.9312  -4.8526
    -4.7839  -4.4559  -4.4082  -3.6889  -2.6733  -2.1842  -0.2632  -0.1206
     0.2683   0.6422

     the Fermi energy is    -3.6621 ev

!    total energy              =    -329.45800195 Ry
     Harris-Foulkes estimate   =    -329.45800193 Ry
     estimated scf accuracy    <          4.3E-09 Ry

     The total energy is the sum of the following terms:

     one-electron contribution =    -607.56616910 Ry
     hartree contribution      =     325.34154785 Ry
     xc contribution           =     -51.40150420 Ry
     ewald contribution        =       4.17091714 Ry
     smearing contrib. (-TS)   =      -0.00279364 Ry

     convergence has been achieved in   8 iterations

     Forces acting on atoms (Ry/au):

     atom    1 type  1   force =    -0.01241853   -0.00439982    0.01191941
     atom    2 type  1   force =    -0.01524977    0.01477376   -0.01503499
     atom    3 type  1   force =     0.00676368   -0.00030040   -0.00447283
     atom    4 type  1   force =     0.00463774   -0.01041127    0.00101178
     atom    5 type  1   force =     0.01626687    0.00033774    0.00657663

     Total force =     0.038695     Total SCF correction =     0.000262

     number of scf cycles    =   2
     number of bfgs steps    =   1

     energy   old            =    -329.4562847865 Ry
     energy   new            =    -329.4580019468 Ry

     CASE: energy  _new < energy  _old


     WARNING: bfgs curvature condition failed, Theta= 0.884
     new trust radius        =       0.0297307329 bohr
     new conv_thr            =       0.0000000016 Ry


ATOMIC_POSITIONS (bohr)
Au      -1.944957622   3.985309100  -0.646141793
Au       0.007265150   2.277640653   4.378091108
Au       2.766287050   2.642220568  -0.009487465
Au       4.490488695   4.255920583   5.770781153
Au       6.724032726   0.950375096   2.503401998



     Writing output data file pwscf.save
     Check: negative starting charge=   -0.006128
     NEW-OLD atomic charge density approx. for the potential
     Check: negative starting charge=   -0.006113

     negative rho (up, down):  1.514E-04 0.000E+00

     total cpu time spent up to now is        7.2 secs

     per-process dynamical memory:    50.7 Mb

     Self-consistent Calculation

     iteration #  1     ecut=    30.00 Ry     beta=0.70
     Davidson diagonalization with overlap
     ethr =  1.00E-06,  avg # of iterations =  5.0

     negative rho (up, down):  2.145E-06 0.000E+00

     total cpu time spent up to now is        7.8 secs

     total energy              =    -329.45959895 Ry
     Harris-Foulkes estimate   =    -329.45959659 Ry
     estimated scf accuracy    <       0.00012771 Ry

     iteration #  2     ecut=    30.00 Ry     beta=0.70
     Davidson diagonalization with overlap
     ethr =  2.32E-07,  avg # of iterations =  3.0

     negative rho (up, down):  2.324E-07 0.000E+00

     total cpu time spent up to now is        8.0 secs

     total energy              =    -329.45960648 Ry
     Harris-Foulkes estimate   =    -329.45967845 Ry
     estimated scf accuracy    <       0.00015991 Ry

     iteration #  3     ecut=    30.00 Ry     beta=0.70
     Davidson diagonalization with overlap
     ethr =  2.32E-07,  avg # of iterations =  2.0

     total cpu time spent up to now is        8.3 secs

     total energy              =    -329.45964245 Ry
     Harris-Foulkes estimate   =    -329.45965276 Ry
     estimated scf accuracy    <       0.00003109 Ry

     iteration #  4     ecut=    30.00 Ry     beta=0.70
     Davidson diagonalization with overlap
     ethr =  5.65E-08,  avg # of iterations =  2.0

     total cpu time spent up to now is        8.6 secs

     total energy              =    -329.45964847 Ry
     Harris-Foulkes estimate   =    -329.45965284 Ry
     estimated scf accuracy    <       0.00001412 Ry

     iteration #  5     ecut=    30.00 Ry     beta=0.70
     Davidson diagonalization with overlap
     ethr =  2.57E-08,  avg # of iterations =  2.0

     total cpu time spent up to now is        8.8 secs

     total energy              =    -329.45965079 Ry
     Harris-Foulkes estimate   =    -329.45965224 Ry
     estimated scf accuracy    <       0.00000469 Ry

     iteration #  6     ecut=    30.00 Ry     beta=0.70
     Davidson diagonalization with overlap
     ethr =  8.52E-09,  avg # of iterations =  2.0

     total cpu time spent up to now is        9.1 secs

     total energy              =    -329.45965163 Ry
     Harris-Foulkes estimate   =    -329.45965159 Ry
     estimated scf accuracy    <       0.00000012 Ry

     iteration #  7     ecut=    30.00 Ry     beta=0.70
     Davidson diagonalization with overlap
     ethr =  2.12E-10,  avg # of iterations =  3.0

     total cpu time spent up to now is        9.4 secs

     total energy              =    -329.45965165 Ry
     Harris-Foulkes estimate   =    -329.45965170 Ry
     estimated scf accuracy    <       0.00000005 Ry

     iteration #  8     ecut=    30.00 Ry     beta=0.70
     Davidson diagonalization with overlap
     ethr =  9.13E-11,  avg # of iterations =  2.0

     total cpu time spent up to now is        9.7 secs

     total energy              =    -329.45965177 Ry
     Harris-Foulkes estimate   =    -329.45965166 Ry
     estimated scf accuracy    <          5.2E-09 Ry

     iteration #  9     ecut=    30.00 Ry     beta=0.70
     Davidson diagonalization with overlap
     ethr =  9.43E-12,  avg # of iterations =  3.0

     total cpu time spent up to now is       10.0 secs

     End of self-consistent calculation

          k = 0.0000 0.0000 0.0000 ( 22119 PWs)   bands (ev):

    -8.2875  -7.7096  -7.5180  -7.1900  -6.9660  -6.7357  -6.6078  -6.4137
    -6.2729  -5.9484  -5.8256  -5.7117  -5.6997  -5.6038  -5.5025  -5.4394
    -5.2723  -5.2239  -5.1520  -5.1340  -5.0939  -4.9956  -4.9421  -4.8686
    -4.8034  -4.4641  -4.4136  -3.6821  -2.6649  -2.2050  -0.2658  -0.1201
     0.2664   0.6331

     the Fermi energy is    -3.6527 ev

!    total energy              =    -329.45965178 Ry
     Harris-Foulkes estimate   =    -329.45965177 Ry
     estimated scf accuracy    <          6.9E-10 Ry

     The total energy is the sum of the following terms:

     one-electron contribution =    -606.91228423 Ry
     hartree contribution      =     325.01266319 Ry
     xc contribution           =     -51.39671741 Ry
     ewald contribution        =       3.84010787 Ry
     smearing contrib. (-TS)   =      -0.00342120 Ry

     convergence has been achieved in   9 iterations

     Forces acting on atoms (Ry/au):

     atom    1 type  1   force =    -0.00915414   -0.00498384    0.01217974
     atom    2 type  1   force =    -0.01369952    0.01488664   -0.01367108
     atom    3 type  1   force =     0.00623527   -0.00036446   -0.00362932
     atom    4 type  1   force =     0.00282294   -0.01067324    0.00063460
     atom    5 type  1   force =     0.01379545    0.00113490    0.00448606

     Total force =     0.035205     Total SCF correction =     0.000130

     number of scf cycles    =   3
     number of bfgs steps    =   2

     energy   old            =    -329.4580019468 Ry
     energy   new            =    -329.4596517821 Ry

     CASE: energy  _new < energy  _old

     new trust radius        =       0.0445960993 bohr
     new conv_thr            =       0.0000000015 Ry


ATOMIC_POSITIONS (bohr)
Au      -1.964309321   3.977048426  -0.624799654
Au      -0.018519029   2.303830947   4.352831324
Au       2.777898972   2.641672341  -0.016784930
Au       4.497124421   4.237209581   5.772206053
Au       6.750920957   0.951704705   2.513192206



     Writing output data file pwscf.save
     Check: negative starting charge=   -0.006113
     NEW-OLD atomic charge density approx. for the potential
     Check: negative starting charge=   -0.006096

     negative rho (up, down):  3.649E-04 0.000E+00

     total cpu time spent up to now is       10.3 secs

     per-process dynamical memory:    50.7 Mb

     Self-consistent Calculation

     iteration #  1     ecut=    30.00 Ry     beta=0.70
     Davidson diagonalization with overlap
     ethr =  1.00E-06,  avg # of iterations =  6.0

     negative rho (up, down):  1.132E-05 0.000E+00

     total cpu time spent up to now is       10.8 secs

     total energy              =    -329.46167957 Ry
     Harris-Foulkes estimate   =    -329.46160423 Ry
     estimated scf accuracy    <       0.00028031 Ry

     iteration #  2     ecut=    30.00 Ry     beta=0.70
     Davidson diagonalization with overlap
     ethr =  5.10E-07,  avg # of iterations =  8.0

     negative rho (up, down):  2.006E-06 0.000E+00

     total cpu time spent up to now is       11.2 secs

     total energy              =    -329.46169140 Ry
     Harris-Foulkes estimate   =    -329.46186015 Ry
     estimated scf accuracy    <       0.00036895 Ry

     iteration #  3     ecut=    30.00 Ry     beta=0.70
     Davidson diagonalization with overlap
     ethr =  5.10E-07,  avg # of iterations =  2.0

     negative rho (up, down):  1.780E-08 0.000E+00

     total cpu time spent up to now is       11.5 secs

     total energy              =    -329.46177329 Ry
     Harris-Foulkes estimate   =    -329.46179630 Ry
     estimated scf accuracy    <       0.00006543 Ry

     iteration #  4     ecut=    30.00 Ry     beta=0.70
     Davidson diagonalization with overlap
     ethr =  1.19E-07,  avg # of iterations =  2.0

     total cpu time spent up to now is       11.8 secs

     total energy              =    -329.46178670 Ry
     Harris-Foulkes estimate   =    -329.46179394 Ry
     estimated scf accuracy    <       0.00002266 Ry

     iteration #  5     ecut=    30.00 Ry     beta=0.70
     Davidson diagonalization with overlap
     ethr =  4.12E-08,  avg # of iterations =  2.0

     total cpu time spent up to now is       12.0 secs

     total energy              =    -329.46179033 Ry
     Harris-Foulkes estimate   =    -329.46179336 Ry
     estimated scf accuracy    <       0.00000974 Ry

     iteration #  6     ecut=    30.00 Ry     beta=0.70
     Davidson diagonalization with overlap
     ethr =  1.77E-08,  avg # of iterations =  1.0

     total cpu time spent up to now is       12.3 secs

     total energy              =    -329.46179195 Ry
     Harris-Foulkes estimate   =    -329.46179198 Ry
     estimated scf accuracy    <       0.00000029 Ry

     iteration #  7     ecut=    30.00 Ry     beta=0.70
     Davidson diagonalization with overlap
     ethr =  5.28E-10,  avg # of iterations =  3.0

     total cpu time spent up to now is       12.6 secs

     total energy              =    -329.46179227 Ry
     Harris-Foulkes estimate   =    -329.46179210 Ry
     estimated scf accuracy    <       0.00000008 Ry

     iteration #  8     ecut=    30.00 Ry     beta=0.70
     Davidson diagonalization with overlap
     ethr =  1.49E-10,  avg # of iterations =  2.0

     total cpu time spent up to now is       12.9 secs

     total energy              =    -329.46179238 Ry
     Harris-Foulkes estimate   =    -329.46179229 Ry
     estimated scf accuracy    <       0.00000001 Ry

     iteration #  9     ecut=    30.00 Ry     beta=0.70
     Davidson diagonalization with overlap
     ethr =  2.34E-11,  avg # of iterations =  2.0

     total cpu time spent up to now is       13.1 secs

     End of self-consistent calculation

          k = 0.0000 0.0000 0.0000 ( 22119 PWs)   bands (ev):

    -8.2628  -7.6874  -7.5138  -7.1767  -6.9613  -6.7218  -6.5979  -6.4102
    -6.2794  -5.9548  -5.8233  -5.7127  -5.6903  -5.5999  -5.5054  -5.4527
    -5.2664  -5.2238  -5.1541  -5.1308  -5.0999  -5.0035  -4.9550  -4.8879
    -4.8275  -4.4726  -4.4200  -3.6730  -2.6501  -2.2321  -0.2702  -0.1199
     0.2653   0.6189

     the Fermi energy is    -3.6408 ev

!    total energy              =    -329.46179239 Ry
     Harris-Foulkes estimate   =    -329.46179238 Ry
     estimated scf accuracy    <          1.2E-09 Ry

     The total energy is the sum of the following terms:

     one-electron contribution =    -606.25251784 Ry
     hartree contribution      =     324.68018021 Ry
     xc contribution           =     -51.39155593 Ry
     ewald contribution        =       3.50619735 Ry
     smearing contrib. (-TS)   =      -0.00409618 Ry

     convergence has been achieved in   9 iterations

     Forces acting on atoms (Ry/au):

     atom    1 type  1   force =    -0.00555456   -0.00550650    0.01200829
     atom    2 type  1   force =    -0.01131791    0.01478323   -0.01181265
     atom    3 type  1   force =     0.00540712   -0.00055944   -0.00245943
     atom    4 type  1   force =     0.00047760   -0.01069604    0.00027875
     atom    5 type  1   force =     0.01098774    0.00197875    0.00198504

     Total force =     0.031152     Total SCF correction =     0.000170

     number of scf cycles    =   4
     number of bfgs steps    =   3

     energy   old            =    -329.4596517821 Ry
     energy   new            =    -329.4617923941 Ry

     CASE: energy  _new < energy  _old

     new trust radius        =       0.0668941490 bohr
     new conv_thr            =       0.0000000015 Ry


ATOMIC_POSITIONS (bohr)
Au      -1.989801199   3.963262646  -0.591365303
Au      -0.055803785   2.345057750   4.315615403
Au       2.795052962   2.640511624  -0.026630723
Au       4.504215231   4.207622976   5.773956605
Au       6.789452790   0.955011003   2.525069019



     Writing output data file pwscf.save
     Check: negative starting charge=   -0.006096
     NEW-OLD atomic charge density approx. for the potential
     Check: negative starting charge=   -0.006095

     negative rho (up, down):  7.906E-04 0.000E+00

     total cpu time spent up to now is       13.5 secs

     per-process dynamical memory:    50.7 Mb

     Self-consistent Calculation

     iteration #  1     ecut=    30.00 Ry     beta=0.70
     Davidson diagonalization with overlap
     ethr =  1.00E-06,  avg # of iterations =  6.0

     negative rho (up, down):  4.328E-05 0.000E+00

     total cpu time spent up to now is       14.0 secs

     total energy              =    -329.46430210 Ry
     Harris-Foulkes estimate   =    -329.46390022 Ry
     estimated scf accuracy    <       0.00062303 Ry

     iteration #  2     ecut=    30.00 Ry     beta=0.70
     Davidson diagonalization with overlap
     ethr =  1.13E-06,  avg # of iterations =  4.0

     negative rho (up, down):  1.146E-05 0.000E+00

     total cpu time spent up to now is       14.4 secs

     total energy              =    -329.46432444 Ry
     Harris-Foulkes estimate   =    -329.46470607 Ry
     estimated scf accuracy    <       0.00084446 Ry

     iteration #  3     ecut=    30.00 Ry     beta=0.70
     Davidson diagonalization with overlap
     ethr =  1.13E-06,  avg # of iterations =  2.0

     negative rho (up, down):  3.421E-07 0.000E+00

     total cpu time spent up to now is       14.7 secs

     total energy              =    -329.46450907 Ry
     Harris-Foulkes estimate   =    -329.46456383 Ry
     estimated scf accuracy    <       0.00015090 Ry

     iteration #  4     ecut=    30.00 Ry     beta=0.70
     Davidson diagonalization with overlap
     ethr =  2.74E-07,  avg # of iterations =  2.0

     total cpu time spent up to now is       14.9 secs

     total energy              =    -329.46454087 Ry
     Harris-Foulkes estimate   =    -329.46455477 Ry
     estimated scf accuracy    <       0.00004420 Ry

     iteration #  5     ecut=    30.00 Ry     beta=0.70
     Davidson diagonalization with overlap
     ethr =  8.04E-08,  avg # of iterations =  2.0

     total cpu time spent up to now is       15.2 secs

     total energy              =    -329.46454753 Ry
     Harris-Foulkes estimate   =    -329.46455408 Ry
     estimated scf accuracy    <       0.00001976 Ry

     iteration #  6     ecut=    30.00 Ry     beta=0.70
     Davidson diagonalization with overlap
     ethr =  3.59E-08,  avg # of iterations =  1.0

     total cpu time spent up to now is       15.4 secs

     total energy              =    -329.46455069 Ry
     Harris-Foulkes estimate   =    -329.46455094 Ry
     estimated scf accuracy    <       0.00000067 Ry

     iteration #  7     ecut=    30.00 Ry     beta=0.70
     Davidson diagonalization with overlap
     ethr =  1.21E-09,  avg # of iterations =  3.0

     total cpu time spent up to now is       15.9 secs

     total energy              =    -329.46455086 Ry
     Harris-Foulkes estimate   =    -329.46455100 Ry
     estimated scf accuracy    <       0.00000016 Ry

     iteration #  8     ecut=    30.00 Ry     beta=0.70
     Davidson diagonalization with overlap
     ethr =  2.98E-10,  avg # of iterations =  2.0

     total cpu time spent up to now is       16.3 secs

     total energy              =    -329.46455094 Ry
     Harris-Foulkes estimate   =    -329.46455091 Ry
     estimated scf accuracy    <       0.00000003 Ry

     iteration #  9     ecut=    30.00 Ry     beta=0.70
     Davidson diagonalization with overlap
     ethr =  4.66E-11,  avg # of iterations =  2.0

     total cpu time spent up to now is       16.6 secs

     total energy              =    -329.46455096 Ry
     Harris-Foulkes estimate   =    -329.46455095 Ry
     estimated scf accuracy    <          2.5E-09 Ry

     iteration # 10     ecut=    30.00 Ry     beta=0.70
     Davidson diagonalization with overlap
     ethr =  4.51E-12,  avg # of iterations =  2.0

     total cpu time spent up to now is       17.0 secs

     End of self-consistent calculation

          k = 0.0000 0.0000 0.0000 ( 22119 PWs)   bands (ev):

    -8.2345  -7.6643  -7.5059  -7.1635  -6.9595  -6.7058  -6.5888  -6.4227
    -6.2784  -5.9629  -5.8239  -5.7175  -5.6771  -5.5940  -5.5129  -5.4696
    -5.2591  -5.2218  -5.1558  -5.1260  -5.1077  -5.0119  -4.9708  -4.9096
    -4.8574  -4.4802  -4.4276  -3.6608  -2.6255  -2.2679  -0.2778  -0.1201
     0.2659   0.6035

     the Fermi energy is    -3.6257 ev

!    total energy              =    -329.46455091 Ry
     Harris-Foulkes estimate   =    -329.46455096 Ry
     estimated scf accuracy    <          6.8E-10 Ry

     The total energy is the sum of the following terms:

     one-electron contribution =    -605.63298570 Ry
     hartree contribution      =     324.36625170 Ry
     xc contribution           =     -51.38627689 Ry
     ewald contribution        =       3.19325846 Ry
     smearing contrib. (-TS)   =      -0.00479848 Ry

     convergence has been achieved in  10 iterations

     Forces acting on atoms (Ry/au):

     atom    1 type  1   force =    -0.00194866   -0.00610069    0.01108979
     atom    2 type  1   force =    -0.00859437    0.01559936   -0.01029613
     atom    3 type  1   force =     0.00437135   -0.00135047   -0.00049446
     atom    4 type  1   force =    -0.00223744   -0.01063775    0.00029080
     atom    5 type  1   force =     0.00840912    0.00248955   -0.00059000

     Total force =     0.028353     Total SCF correction =     0.000102

     number of scf cycles    =   5
     number of bfgs steps    =   4

     energy   old            =    -329.4617923941 Ry
     energy   new            =    -329.4645509061 Ry

     CASE: energy  _new < energy  _old

     new trust radius        =       0.1003412235 bohr
     new conv_thr            =       0.0000000016 Ry


ATOMIC_POSITIONS (bohr)
Au      -2.023945660   3.941222020  -0.541428821
Au      -0.109157657   2.409763031   4.260525003
Au       2.819915281   2.637484469  -0.038831783
Au       4.511154919   4.162233145   5.776736734
Au       6.845149116   0.960763335   2.539643866



     Writing output data file pwscf.save
     Check: negative starting charge=   -0.006095
     NEW-OLD atomic charge density approx. for the potential
     Check: negative starting charge=   -0.006158

     negative rho (up, down):  1.528E-03 0.000E+00

     total cpu time spent up to now is       17.5 secs

     per-process dynamical memory:    50.7 Mb

     Self-consistent Calculation

     iteration #  1     ecut=    30.00 Ry     beta=0.70
     Davidson diagonalization with overlap
     ethr =  1.00E-06,  avg # of iterations = 11.0

     negative rho (up, down):  1.236E-04 0.000E+00

     total cpu time spent up to now is       18.0 secs

     total energy              =    -329.46747679 Ry
     Harris-Foulkes estimate   =    -329.46658613 Ry
     estimated scf accuracy    <       0.00136123 Ry

     iteration #  2     ecut=    30.00 Ry     beta=0.70
     Davidson diagonalization with overlap
     ethr =  2.47E-06,  avg # of iterations =  6.0

     negative rho (up, down):  4.255E-05 0.000E+00

     total cpu time spent up to now is       18.4 secs

     total energy              =    -329.46751975 Ry
     Harris-Foulkes estimate   =    -329.46836612 Ry
     estimated scf accuracy    <       0.00189704 Ry

     iteration #  3     ecut=    30.00 Ry     beta=0.70
     Davidson diagonalization with overlap
     ethr =  2.47E-06,  avg # of iterations =  3.0

     negative rho (up, down):  2.906E-06 0.000E+00

     total cpu time spent up to now is       18.6 secs

     total energy              =    -329.46793225 Ry
     Harris-Foulkes estimate   =    -329.46805738 Ry
     estimated scf accuracy    <       0.00035133 Ry

     iteration #  4     ecut=    30.00 Ry     beta=0.70
     Davidson diagonalization with overlap
     ethr =  6.39E-07,  avg # of iterations =  2.0

     total cpu time spent up to now is       18.8 secs

     total energy              =    -329.46800501 Ry
     Harris-Foulkes estimate   =    -329.46803331 Ry
     estimated scf accuracy    <       0.00008687 Ry

     iteration #  5     ecut=    30.00 Ry     beta=0.70
     Davidson diagonalization with overlap
     ethr =  1.58E-07,  avg # of iterations =  2.0

     total cpu time spent up to now is       19.2 secs

     total energy              =    -329.46801879 Ry
     Harris-Foulkes estimate   =    -329.46803182 Ry
     estimated scf accuracy    <       0.00004065 Ry

     iteration #  6     ecut=    30.00 Ry     beta=0.70
     Davidson diagonalization with overlap
     ethr =  7.39E-08,  avg # of iterations =  2.0

     total cpu time spent up to now is       19.5 secs

     total energy              =    -329.46802519 Ry
     Harris-Foulkes estimate   =    -329.46802584 Ry
     estimated scf accuracy    <       0.00000144 Ry

     iteration #  7     ecut=    30.00 Ry     beta=0.70
     Davidson diagonalization with overlap
     ethr =  2.62E-09,  avg # of iterations =  3.0

     total cpu time spent up to now is       19.9 secs

     total energy              =    -329.46802546 Ry
     Harris-Foulkes estimate   =    -329.46802580 Ry
     estimated scf accuracy    <       0.00000033 Ry

     iteration #  8     ecut=    30.00 Ry     beta=0.70
     Davidson diagonalization with overlap
     ethr =  5.98E-10,  avg # of iterations =  2.0

     total cpu time spent up to now is       20.2 secs

     total energy              =    -329.46802550 Ry
     Harris-Foulkes estimate   =    -329.46802555 Ry
     estimated scf accuracy    <       0.00000005 Ry

     iteration #  9     ecut=    30.00 Ry     beta=0.70
     Davidson diagonalization with overlap
     ethr =  8.94E-11,  avg # of iterations =  2.0

     total cpu time spent up to now is       20.5 secs

     total energy              =    -329.46802555 Ry
     Harris-Foulkes estimate   =    -329.46802551 Ry
     estimated scf accuracy    <          5.4E-09 Ry

     iteration # 10     ecut=    30.00 Ry     beta=0.70
     Davidson diagonalization with overlap
     ethr =  9.80E-12,  avg # of iterations =  2.0

     total cpu time spent up to now is       20.8 secs

     total energy              =    -329.46802552 Ry
     Harris-Foulkes estimate   =    -329.46802555 Ry
     estimated scf accuracy    <          1.6E-09 Ry

     iteration # 11     ecut=    30.00 Ry     beta=0.70
     Davidson diagonalization with overlap
     ethr =  2.91E-12,  avg # of iterations =  2.0

     total cpu time spent up to now is       21.1 secs

     End of self-consistent calculation

          k = 0.0000 0.0000 0.0000 ( 22119 PWs)   bands (ev):

    -8.2070  -7.6479  -7.4857  -7.1515  -6.9693  -6.6921  -6.5906  -6.4595
    -6.2565  -5.9692  -5.8365  -5.7271  -5.6613  -5.5861  -5.5371  -5.4777
    -5.2517  -5.2152  -5.1567  -5.1274  -5.1102  -5.0205  -4.9919  -4.9300
    -4.8938  -4.4855  -4.4360  -3.6444  -2.5874  -2.3144  -0.2906  -0.1201
     0.2695   0.5837

     the Fermi energy is    -3.6066 ev

!    total energy              =    -329.46802551 Ry
     Harris-Foulkes estimate   =    -329.46802552 Ry
     estimated scf accuracy    <          1.1E-10 Ry

     The total energy is the sum of the following terms:

     one-electron contribution =    -605.12339998 Ry
     hartree contribution      =     324.10454333 Ry
     xc contribution           =     -51.38180464 Ry
     ewald contribution        =       2.93813093 Ry
     smearing contrib. (-TS)   =      -0.00549516 Ry

     convergence has been achieved in  11 iterations

     Forces acting on atoms (Ry/au):

     atom    1 type  1   force =     0.00150552   -0.00697698    0.00832196
     atom    2 type  1   force =    -0.00532315    0.01657996   -0.00711127
     atom    3 type  1   force =     0.00339671   -0.00240364    0.00190993
     atom    4 type  1   force =    -0.00552201   -0.01013856    0.00062595
     atom    5 type  1   force =     0.00594293    0.00293923   -0.00374657

     Total force =     0.026204     Total SCF correction =     0.000037

     number of scf cycles    =   6
     number of bfgs steps    =   5

     energy   old            =    -329.4645509061 Ry
     energy   new            =    -329.4680255109 Ry

     CASE: energy  _new < energy  _old

     new trust radius        =       0.1505118352 bohr
     new conv_thr            =       0.0000000017 Ry


ATOMIC_POSITIONS (bohr)
Au      -2.070894099   3.905601416  -0.469079547
Au      -0.185989339   2.511698670   4.180776456
Au       2.856677830   2.630892266  -0.053453789
Au       4.516141054   4.092876291   5.781675164
Au       6.927180554   0.970397358   2.556726715



     Writing output data file pwscf.save
     Check: negative starting charge=   -0.006158
     NEW-OLD atomic charge density approx. for the potential
     Check: negative starting charge=   -0.006256

     negative rho (up, down):  2.727E-03 0.000E+00

     total cpu time spent up to now is       21.4 secs

     per-process dynamical memory:    50.7 Mb

     Self-consistent Calculation

     iteration #  1     ecut=    30.00 Ry     beta=0.70
     Davidson diagonalization with overlap
     ethr =  1.00E-06,  avg # of iterations = 11.0

     negative rho (up, down):  2.820E-04 0.000E+00

     total cpu time spent up to now is       22.1 secs

     total energy              =    -329.47019927 Ry
     Harris-Foulkes estimate   =    -329.46932187 Ry
     estimated scf accuracy    <       0.00296268 Ry

     iteration #  2     ecut=    30.00 Ry     beta=0.70
     Davidson diagonalization with overlap
     ethr =  5.39E-06,  avg # of iterations =  6.0

     negative rho (up, down):  1.140E-04 0.000E+00

     total cpu time spent up to now is       22.5 secs

     total energy              =    -329.47032714 Ry
     Harris-Foulkes estimate   =    -329.47210482 Ry
     estimated scf accuracy    <       0.00407481 Ry

     iteration #  3     ecut=    30.00 Ry     beta=0.70
     Davidson diagonalization with overlap
     ethr =  5.39E-06,  avg # of iterations =  3.0

     negative rho (up, down):  1.429E-05 0.000E+00

     total cpu time spent up to now is       22.8 secs

     total energy              =    -329.47121061 Ry
     Harris-Foulkes estimate   =    -329.47149246 Ry
     estimated scf accuracy    <       0.00079674 Ry

     iteration #  4     ecut=    30.00 Ry     beta=0.70
     Davidson diagonalization with overlap
     ethr =  1.45E-06,  avg # of iterations =  2.0

     total cpu time spent up to now is       23.0 secs

     total energy              =    -329.47137822 Ry
     Harris-Foulkes estimate   =    -329.47143242 Ry
     estimated scf accuracy    <       0.00016939 Ry

     iteration #  5     ecut=    30.00 Ry     beta=0.70
     Davidson diagonalization with overlap
     ethr =  3.08E-07,  avg # of iterations =  2.0

     total cpu time spent up to now is       23.3 secs

     total energy              =    -329.47140436 Ry
     Harris-Foulkes estimate   =    -329.47142986 Ry
     estimated scf accuracy    <       0.00007550 Ry

     iteration #  6     ecut=    30.00 Ry     beta=0.70
     Davidson diagonalization with overlap
     ethr =  1.37E-07,  avg # of iterations =  2.0

     total cpu time spent up to now is       23.6 secs

     total energy              =    -329.47141681 Ry
     Harris-Foulkes estimate   =    -329.47141783 Ry
     estimated scf accuracy    <       0.00000283 Ry

     iteration #  7     ecut=    30.00 Ry     beta=0.70
     Davidson diagonalization with overlap
     ethr =  5.15E-09,  avg # of iterations =  3.0

     total cpu time spent up to now is       23.9 secs

     total energy              =    -329.47141762 Ry
     Harris-Foulkes estimate   =    -329.47141799 Ry
     estimated scf accuracy    <       0.00000066 Ry

     iteration #  8     ecut=    30.00 Ry     beta=0.70
     Davidson diagonalization with overlap
     ethr =  1.20E-09,  avg # of iterations =  2.0

     total cpu time spent up to now is       24.2 secs

     total energy              =    -329.47141762 Ry
     Harris-Foulkes estimate   =    -329.47141779 Ry
     estimated scf accuracy    <       0.00000009 Ry

     iteration #  9     ecut=    30.00 Ry     beta=0.70
     Davidson diagonalization with overlap
     ethr =  1.63E-10,  avg # of iterations =  2.0

     total cpu time spent up to now is       24.5 secs

     total energy              =    -329.47141756 Ry
     Harris-Foulkes estimate   =    -329.47141764 Ry
     estimated scf accuracy    <          9.6E-09 Ry

     iteration # 10     ecut=    30.00 Ry     beta=0.70
     Davidson diagonalization with overlap
     ethr =  1.75E-11,  avg # of iterations =  3.0

     total cpu time spent up to now is       24.9 secs

     total energy              =    -329.47141759 Ry
     Harris-Foulkes estimate   =    -329.47141757 Ry
     estimated scf accuracy    <          3.3E-09 Ry

     iteration # 11     ecut=    30.00 Ry     beta=0.70
     Davidson diagonalization with overlap
     ethr =  5.92E-12,  avg # of iterations =  3.0

     total cpu time spent up to now is       25.1 secs

     End of self-consistent calculation

          k = 0.0000 0.0000 0.0000 ( 22119 PWs)   bands (ev):

    -8.1933  -7.6439  -7.4426  -7.1437  -7.0184  -6.6957  -6.6299  -6.4754
    -6.2103  -5.9666  -5.8900  -5.7377  -5.6467  -5.6005  -5.5541  -5.4654
    -5.2445  -5.2059  -5.1641  -5.1393  -5.0977  -5.0266  -5.0229  -4.9470
    -4.9285  -4.4889  -4.4447  -3.6241  -2.5388  -2.3665  -0.3120  -0.1196
     0.2797   0.5586

     the Fermi energy is    -3.5838 ev

!    total energy              =    -329.47141756 Ry
     Harris-Foulkes estimate   =    -329.47141759 Ry
     estimated scf accuracy    <          3.0E-10 Ry

     The total energy is the sum of the following terms:

     one-electron contribution =    -604.74697024 Ry
     hartree contribution      =     323.90491160 Ry
     xc contribution           =     -51.37974653 Ry
     ewald contribution        =       2.75652456 Ry
     smearing contrib. (-TS)   =      -0.00613695 Ry

     convergence has been achieved in  11 iterations

     Forces acting on atoms (Ry/au):

     atom    1 type  1   force =     0.00430344   -0.00552868    0.00015019
     atom    2 type  1   force =     0.00057963    0.01344803    0.00236131
     atom    3 type  1   force =     0.00351981   -0.00332379    0.00443047
     atom    4 type  1   force =    -0.00965790   -0.00839687    0.00122543
     atom    5 type  1   force =     0.00125502    0.00380132   -0.00816741

     Total force =     0.022955     Total SCF correction =     0.000069

     number of scf cycles    =   7
     number of bfgs steps    =   6

     energy   old            =    -329.4680255109 Ry
     energy   new            =    -329.4714175575 Ry

     CASE: energy  _new < energy  _old

     new trust radius        =       0.1031199925 bohr
     new conv_thr            =       0.0000000013 Ry


ATOMIC_POSITIONS (bohr)
Au      -2.099523401   3.878168505  -0.425840485
Au      -0.234712207   2.590007672   4.134651461
Au       2.885286962   2.623039794  -0.058535826
Au       4.509642176   4.039929419   5.786733131
Au       6.982422471   0.980320610   2.559636719



     Writing output data file pwscf.save
     Check: negative starting charge=   -0.006256
     NEW-OLD atomic charge density approx. for the potential
     Check: negative starting charge=   -0.006286

     negative rho (up, down):  1.603E-03 0.000E+00

     total cpu time spent up to now is       25.4 secs

     per-process dynamical memory:    50.7 Mb

     Self-consistent Calculation

     iteration #  1     ecut=    30.00 Ry     beta=0.70
     Davidson diagonalization with overlap
     ethr =  1.00E-06,  avg # of iterations =  9.0

     negative rho (up, down):  1.348E-04 0.000E+00

     total cpu time spent up to now is       26.1 secs

     total energy              =    -329.47179521 Ry
     Harris-Foulkes estimate   =    -329.47088532 Ry
     estimated scf accuracy    <       0.00148320 Ry

     iteration #  2     ecut=    30.00 Ry     beta=0.70
     Davidson diagonalization with overlap
     ethr =  2.70E-06,  avg # of iterations =  5.0

     negative rho (up, down):  4.289E-05 0.000E+00

     total cpu time spent up to now is       26.5 secs

     total energy              =    -329.47192950 Ry
     Harris-Foulkes estimate   =    -329.47270317 Ry
     estimated scf accuracy    <       0.00170683 Ry

     iteration #  3     ecut=    30.00 Ry     beta=0.70
     Davidson diagonalization with overlap
     ethr =  2.70E-06,  avg # of iterations =  2.0

     negative rho (up, down):  3.799E-06 0.000E+00

     total cpu time spent up to now is       26.8 secs

     total energy              =    -329.47229044 Ry
     Harris-Foulkes estimate   =    -329.47241765 Ry
     estimated scf accuracy    <       0.00033546 Ry

     iteration #  4     ecut=    30.00 Ry     beta=0.70
     Davidson diagonalization with overlap
     ethr =  6.10E-07,  avg # of iterations =  2.0

     total cpu time spent up to now is       27.0 secs

     total energy              =    -329.47236927 Ry
     Harris-Foulkes estimate   =    -329.47239240 Ry
     estimated scf accuracy    <       0.00007769 Ry

     iteration #  5     ecut=    30.00 Ry     beta=0.70
     Davidson diagonalization with overlap
     ethr =  1.41E-07,  avg # of iterations =  2.0

     total cpu time spent up to now is       27.3 secs

     total energy              =    -329.47238116 Ry
     Harris-Foulkes estimate   =    -329.47238793 Ry
     estimated scf accuracy    <       0.00001804 Ry

     iteration #  6     ecut=    30.00 Ry     beta=0.70
     Davidson diagonalization with overlap
     ethr =  3.28E-08,  avg # of iterations =  2.0

     total cpu time spent up to now is       27.5 secs

     total energy              =    -329.47238414 Ry
     Harris-Foulkes estimate   =    -329.47238525 Ry
     estimated scf accuracy    <       0.00000173 Ry

     iteration #  7     ecut=    30.00 Ry     beta=0.70
     Davidson diagonalization with overlap
     ethr =  3.15E-09,  avg # of iterations =  3.0

     total cpu time spent up to now is       27.8 secs

     total energy              =    -329.47238437 Ry
     Harris-Foulkes estimate   =    -329.47238468 Ry
     estimated scf accuracy    <       0.00000029 Ry

     iteration #  8     ecut=    30.00 Ry     beta=0.70
     Davidson diagonalization with overlap
     ethr =  5.25E-10,  avg # of iterations =  2.0

     total cpu time spent up to now is       28.1 secs

     total energy              =    -329.47238434 Ry
     Harris-Foulkes estimate   =    -329.47238445 Ry
     estimated scf accuracy    <       0.00000004 Ry

     iteration #  9     ecut=    30.00 Ry     beta=0.70
     Davidson diagonalization with overlap
     ethr =  6.69E-11,  avg # of iterations =  2.0

     total cpu time spent up to now is       28.4 secs

     total energy              =    -329.47238432 Ry
     Harris-Foulkes estimate   =    -329.47238435 Ry
     estimated scf accuracy    <          1.8E-09 Ry

     iteration # 10     ecut=    30.00 Ry     beta=0.70
     Davidson diagonalization with overlap
     ethr =  3.27E-12,  avg # of iterations =  3.0

     total cpu time spent up to now is       28.7 secs

     End of self-consistent calculation

          k = 0.0000 0.0000 0.0000 ( 22119 PWs)   bands (ev):

    -8.2004  -7.6460  -7.4257  -7.1568  -7.0624  -6.7172  -6.6521  -6.4647
    -6.1814  -5.9707  -5.9324  -5.7455  -5.6465  -5.6160  -5.5470  -5.4531
    -5.2464  -5.2043  -5.1696  -5.1426  -5.0914  -5.0437  -5.0259  -4.9622
    -4.9276  -4.4903  -4.4485  -3.6188  -2.5234  -2.3732  -0.3291  -0.1225
     0.2925   0.5461

     the Fermi energy is    -3.5779 ev

!    total energy              =    -329.47238433 Ry
     Harris-Foulkes estimate   =    -329.47238432 Ry
     estimated scf accuracy    <          6.1E-10 Ry

     The total energy is the sum of the following terms:

     one-electron contribution =    -604.78176825 Ry
     hartree contribution      =     323.91301941 Ry
     xc contribution           =     -51.38127186 Ry
     ewald contribution        =       2.78393778 Ry
     smearing contrib. (-TS)   =      -0.00630141 Ry

     convergence has been achieved in  10 iterations

     Forces acting on atoms (Ry/au):

     atom    1 type  1   force =     0.00370082   -0.00313838   -0.00692710
     atom    2 type  1   force =     0.00542160    0.01045131    0.01092707
     atom    3 type  1   force =     0.00312929   -0.00342929    0.00532227
     atom    4 type  1   force =    -0.01064318   -0.00830851    0.00076725
     atom    5 type  1   force =    -0.00160853    0.00442487   -0.01008949

     Total force =     0.026197     Total SCF correction =     0.000113

     number of scf cycles    =   8
     number of bfgs steps    =   7

     energy   old            =    -329.4714175575 Ry
     energy   new            =    -329.4723843323 Ry

     CASE: energy  _new < energy  _old

     new trust radius        =       0.0382437230 bohr
     new conv_thr            =       0.0000000010 Ry


ATOMIC_POSITIONS (bohr)
Au      -2.106963366   3.866376983  -0.420739143
Au      -0.245041107   2.626756583   4.132324718
Au       2.898657638   2.616657282  -0.054693504
Au       4.496512529   4.013536572   5.789498567
Au       6.999950306   0.988138581   2.550254362



     Writing output data file pwscf.save
     Check: negative starting charge=   -0.006286
     NEW-OLD atomic charge density approx. for the potential
     Check: negative starting charge=   -0.006295

     negative rho (up, down):  3.286E-04 0.000E+00

     total cpu time spent up to now is       29.1 secs

     per-process dynamical memory:    50.7 Mb

     Self-consistent Calculation

     iteration #  1     ecut=    30.00 Ry     beta=0.70
     Davidson diagonalization with overlap
     ethr =  1.00E-06,  avg # of iterations =  4.0

     negative rho (up, down):  8.674E-06 0.000E+00

     total cpu time spent up to now is       29.5 secs

     total energy              =    -329.47306053 Ry
     Harris-Foulkes estimate   =    -329.47305369 Ry
     estimated scf accuracy    <       0.00027646 Ry

     iteration #  2     ecut=    30.00 Ry     beta=0.70
     Davidson diagonalization with overlap
     ethr =  5.03E-07,  avg # of iterations =  3.0

     negative rho (up, down):  9.469E-07 0.000E+00

     total cpu time spent up to now is       29.9 secs

     total energy              =    -329.47310799 Ry
     Harris-Foulkes estimate   =    -329.47322111 Ry
     estimated scf accuracy    <       0.00023942 Ry

     iteration #  3     ecut=    30.00 Ry     beta=0.70
     Davidson diagonalization with overlap
     ethr =  4.35E-07,  avg # of iterations =  2.0

     negative rho (up, down):  3.119E-08 0.000E+00

     total cpu time spent up to now is       30.2 secs

     total energy              =    -329.47315091 Ry
     Harris-Foulkes estimate   =    -329.47317132 Ry
     estimated scf accuracy    <       0.00004478 Ry

     iteration #  4     ecut=    30.00 Ry     beta=0.70
     Davidson diagonalization with overlap
     ethr =  8.14E-08,  avg # of iterations =  2.0

     total cpu time spent up to now is       30.4 secs

     total energy              =    -329.47315963 Ry
     Harris-Foulkes estimate   =    -329.47316979 Ry
     estimated scf accuracy    <       0.00002956 Ry

     iteration #  5     ecut=    30.00 Ry     beta=0.70
     Davidson diagonalization with overlap
     ethr =  5.38E-08,  avg # of iterations =  1.0

     total cpu time spent up to now is       30.7 secs

     total energy              =    -329.47316348 Ry
     Harris-Foulkes estimate   =    -329.47316459 Ry
     estimated scf accuracy    <       0.00000168 Ry

     iteration #  6     ecut=    30.00 Ry     beta=0.70
     Davidson diagonalization with overlap
     ethr =  3.06E-09,  avg # of iterations =  3.0

     total cpu time spent up to now is       31.0 secs

     total energy              =    -329.47316392 Ry
     Harris-Foulkes estimate   =    -329.47316400 Ry
     estimated scf accuracy    <       0.00000013 Ry

     iteration #  7     ecut=    30.00 Ry     beta=0.70
     Davidson diagonalization with overlap
     ethr =  2.36E-10,  avg # of iterations =  2.0

     total cpu time spent up to now is       31.3 secs

     total energy              =    -329.47316387 Ry
     Harris-Foulkes estimate   =    -329.47316397 Ry
     estimated scf accuracy    <       0.00000005 Ry

     iteration #  8     ecut=    30.00 Ry     beta=0.70
     Davidson diagonalization with overlap
     ethr =  9.05E-11,  avg # of iterations =  2.0

     total cpu time spent up to now is       31.6 secs

     total energy              =    -329.47316385 Ry
     Harris-Foulkes estimate   =    -329.47316389 Ry
     estimated scf accuracy    <          5.2E-09 Ry

     iteration #  9     ecut=    30.00 Ry     beta=0.70
     Davidson diagonalization with overlap
     ethr =  9.54E-12,  avg # of iterations =  2.0

     total cpu time spent up to now is       31.8 secs

     End of self-consistent calculation

          k = 0.0000 0.0000 0.0000 ( 22119 PWs)   bands (ev):

    -8.1998  -7.6491  -7.4341  -7.1718  -7.0744  -6.7320  -6.6505  -6.4638
    -6.1773  -5.9863  -5.9316  -5.7467  -5.6470  -5.6150  -5.5495  -5.4529
    -5.2480  -5.2040  -5.1717  -5.1473  -5.0952  -5.0486  -5.0216  -4.9639
    -4.9240  -4.4872  -4.4506  -3.6277  -2.5205  -2.3621  -0.3372  -0.1295
     0.3019   0.5458

     the Fermi energy is    -3.5875 ev

!    total energy              =    -329.47316385 Ry
     Harris-Foulkes estimate   =    -329.47316385 Ry
     estimated scf accuracy    <          7.6E-10 Ry

     The total energy is the sum of the following terms:

     one-electron contribution =    -605.02744731 Ry
     hartree contribution      =     324.03106810 Ry
     xc contribution           =     -51.38284150 Ry
     ewald contribution        =       2.91217383 Ry
     smearing contrib. (-TS)   =      -0.00611696 Ry

     convergence has been achieved in   9 iterations

     Forces acting on atoms (Ry/au):

     atom    1 type  1   force =     0.00414382   -0.00270078   -0.00838025
     atom    2 type  1   force =     0.00550683    0.00995765    0.01175025
     atom    3 type  1   force =     0.00123557   -0.00301501    0.00531619
     atom    4 type  1   force =    -0.00938953   -0.00866303    0.00087935
     atom    5 type  1   force =    -0.00149669    0.00442117   -0.00956555

     Total force =     0.026046     Total SCF correction =     0.000099

     number of scf cycles    =   9
     number of bfgs steps    =   8

     energy   old            =    -329.4723843323 Ry
     energy   new            =    -329.4731638469 Ry

     CASE: energy  _new < energy  _old


     WARNING: bfgs curvature condition failed, Theta= 0.880
     new trust radius        =       0.0420680953 bohr
     new conv_thr            =       0.0000000008 Ry


ATOMIC_POSITIONS (bohr)
Au      -2.113067811   3.853539175  -0.419662836
Au      -0.253572722   2.667874542   4.134824635
Au       2.912005690   2.609120000  -0.048732100
Au       4.480137534   3.983208447   5.792849258
Au       7.017613309   0.997723837   2.537366044



     Writing output data file pwscf.save
     Check: negative starting charge=   -0.006295
     NEW-OLD atomic charge density approx. for the potential
     Check: negative starting charge=   -0.006301

     negative rho (up, down):  4.148E-04 0.000E+00

     total cpu time spent up to now is       32.1 secs

     per-process dynamical memory:    50.7 Mb

     Self-consistent Calculation

     iteration #  1     ecut=    30.00 Ry     beta=0.70
     Davidson diagonalization with overlap
     ethr =  1.00E-06,  avg # of iterations =  4.0

     negative rho (up, down):  1.344E-05 0.000E+00

     total cpu time spent up to now is       32.7 secs

     total energy              =    -329.47401337 Ry
     Harris-Foulkes estimate   =    -329.47399249 Ry
     estimated scf accuracy    <       0.00035836 Ry

     iteration #  2     ecut=    30.00 Ry     beta=0.70
     Davidson diagonalization with overlap
     ethr =  6.52E-07,  avg # of iterations =  3.0

     negative rho (up, down):  1.849E-06 0.000E+00

     total cpu time spent up to now is       33.0 secs

     total energy              =    -329.47407159 Ry
     Harris-Foulkes estimate   =    -329.47422727 Ry
     estimated scf accuracy    <       0.00032958 Ry

     iteration #  3     ecut=    30.00 Ry     beta=0.70
     Davidson diagonalization with overlap
     ethr =  5.99E-07,  avg # of iterations =  2.0

     negative rho (up, down):  1.048E-07 0.000E+00

     total cpu time spent up to now is       33.3 secs

     total energy              =    -329.47412986 Ry
     Harris-Foulkes estimate   =    -329.47416191 Ry
     estimated scf accuracy    <       0.00007598 Ry

     iteration #  4     ecut=    30.00 Ry     beta=0.70
     Davidson diagonalization with overlap
     ethr =  1.38E-07,  avg # of iterations =  2.0

     total cpu time spent up to now is       33.5 secs

     total energy              =    -329.47414547 Ry
     Harris-Foulkes estimate   =    -329.47415606 Ry
     estimated scf accuracy    <       0.00003069 Ry

     iteration #  5     ecut=    30.00 Ry     beta=0.70
     Davidson diagonalization with overlap
     ethr =  5.58E-08,  avg # of iterations =  1.0

     total cpu time spent up to now is       33.8 secs

     total energy              =    -329.47414934 Ry
     Harris-Foulkes estimate   =    -329.47415071 Ry
     estimated scf accuracy    <       0.00000192 Ry

     iteration #  6     ecut=    30.00 Ry     beta=0.70
     Davidson diagonalization with overlap
     ethr =  3.50E-09,  avg # of iterations =  2.0

     total cpu time spent up to now is       34.1 secs

     total energy              =    -329.47414959 Ry
     Harris-Foulkes estimate   =    -329.47414993 Ry
     estimated scf accuracy    <       0.00000014 Ry

     iteration #  7     ecut=    30.00 Ry     beta=0.70
     Davidson diagonalization with overlap
     ethr =  2.62E-10,  avg # of iterations =  3.0

     total cpu time spent up to now is       34.4 secs

     total energy              =    -329.47414967 Ry
     Harris-Foulkes estimate   =    -329.47414965 Ry
     estimated scf accuracy    <       0.00000007 Ry

     iteration #  8     ecut=    30.00 Ry     beta=0.70
     Davidson diagonalization with overlap
     ethr =  1.22E-10,  avg # of iterations =  2.0

     total cpu time spent up to now is       34.7 secs

     total energy              =    -329.47414963 Ry
     Harris-Foulkes estimate   =    -329.47414968 Ry
     estimated scf accuracy    <          7.3E-09 Ry

     iteration #  9     ecut=    30.00 Ry     beta=0.70
     Davidson diagonalization with overlap
     ethr =  1.32E-11,  avg # of iterations =  3.0

     total cpu time spent up to now is       35.0 secs

     total energy              =    -329.47414962 Ry
     Harris-Foulkes estimate   =    -329.47414963 Ry
     estimated scf accuracy    <          9.1E-10 Ry

     iteration # 10     ecut=    30.00 Ry     beta=0.70
     Davidson diagonalization with overlap
     ethr =  1.65E-12,  avg # of iterations =  2.0

     total cpu time spent up to now is       35.3 secs

     End of self-consistent calculation

          k = 0.0000 0.0000 0.0000 ( 22119 PWs)   bands (ev):

    -8.1985  -7.6525  -7.4491  -7.1869  -7.0862  -6.7475  -6.6468  -6.4640
    -6.1753  -6.0058  -5.9266  -5.7463  -5.6475  -5.6124  -5.5534  -5.4540
    -5.2491  -5.2040  -5.1753  -5.1527  -5.1014  -5.0526  -5.0159  -4.9643
    -4.9194  -4.4830  -4.4533  -3.6401  -2.5189  -2.3460  -0.3465  -0.1384
     0.3132   0.5469

     the Fermi energy is    -3.6009 ev

!    total energy              =    -329.47414962 Ry
     Harris-Foulkes estimate   =    -329.47414962 Ry
     estimated scf accuracy    <          3.1E-10 Ry

     The total energy is the sum of the following terms:

     one-electron contribution =    -605.33360062 Ry
     hartree contribution      =     324.17918594 Ry
     xc contribution           =     -51.38485529 Ry
     ewald contribution        =       3.07094890 Ry
     smearing contrib. (-TS)   =      -0.00582855 Ry

     convergence has been achieved in  10 iterations

     Forces acting on atoms (Ry/au):

     atom    1 type  1   force =     0.00467467   -0.00260596   -0.00926315
     atom    2 type  1   force =     0.00489881    0.00982043    0.01141509
     atom    3 type  1   force =    -0.00110779   -0.00269496    0.00535543
     atom    4 type  1   force =    -0.00735004   -0.00867777    0.00105260
     atom    5 type  1   force =    -0.00111565    0.00415825   -0.00855996

     Total force =     0.024992     Total SCF correction =     0.000066

     number of scf cycles    =  10
     number of bfgs steps    =   9

     energy   old            =    -329.4731638469 Ry
     energy   new            =    -329.4741496209 Ry

     CASE: energy  _new < energy  _old

     new trust radius        =       0.0631021430 bohr
     new conv_thr            =       0.0000000010 Ry


ATOMIC_POSITIONS (bohr)
Au      -2.119993265   3.834419411  -0.421802850
Au      -0.265011334   2.729586103   4.141360829
Au       2.928572955   2.597746394  -0.038500397
Au       4.456513410   3.937365902   5.798209236
Au       7.043034234   1.012348190   2.517378181



     Writing output data file pwscf.save
     Check: negative starting charge=   -0.006301
     NEW-OLD atomic charge density approx. for the potential
     Check: negative starting charge=   -0.006301

     negative rho (up, down):  8.714E-04 0.000E+00

     total cpu time spent up to now is       35.6 secs

     per-process dynamical memory:    50.7 Mb

     Self-consistent Calculation

     iteration #  1     ecut=    30.00 Ry     beta=0.70
     Davidson diagonalization with overlap
     ethr =  1.00E-06,  avg # of iterations =  6.0

     negative rho (up, down):  5.016E-05 0.000E+00

     total cpu time spent up to now is       36.2 secs

     total energy              =    -329.47511529 Ry
     Harris-Foulkes estimate   =    -329.47483016 Ry
     estimated scf accuracy    <       0.00081876 Ry

     iteration #  2     ecut=    30.00 Ry     beta=0.70
     Davidson diagonalization with overlap
     ethr =  1.49E-06,  avg # of iterations =  4.0

     negative rho (up, down):  1.075E-05 0.000E+00

     total cpu time spent up to now is       36.5 secs

     total energy              =    -329.47525862 Ry
     Harris-Foulkes estimate   =    -329.47560278 Ry
     estimated scf accuracy    <       0.00073849 Ry

     iteration #  3     ecut=    30.00 Ry     beta=0.70
     Davidson diagonalization with overlap
     ethr =  1.34E-06,  avg # of iterations =  2.0

     negative rho (up, down):  1.081E-06 0.000E+00

     total cpu time spent up to now is       36.8 secs

     total energy              =    -329.47539230 Ry
     Harris-Foulkes estimate   =    -329.47545623 Ry
     estimated scf accuracy    <       0.00015479 Ry

     iteration #  4     ecut=    30.00 Ry     beta=0.70
     Davidson diagonalization with overlap
     ethr =  2.81E-07,  avg # of iterations =  2.0

     total cpu time spent up to now is       37.1 secs

     total energy              =    -329.47542664 Ry
     Harris-Foulkes estimate   =    -329.47544852 Ry
     estimated scf accuracy    <       0.00007034 Ry

     iteration #  5     ecut=    30.00 Ry     beta=0.70
     Davidson diagonalization with overlap
     ethr =  1.28E-07,  avg # of iterations =  1.0

     total cpu time spent up to now is       37.3 secs

     total energy              =    -329.47543642 Ry
     Harris-Foulkes estimate   =    -329.47543864 Ry
     estimated scf accuracy    <       0.00000475 Ry

     iteration #  6     ecut=    30.00 Ry     beta=0.70
     Davidson diagonalization with overlap
     ethr =  8.64E-09,  avg # of iterations =  2.0

     total cpu time spent up to now is       37.6 secs

     total energy              =    -329.47543754 Ry
     Harris-Foulkes estimate   =    -329.47543782 Ry
     estimated scf accuracy    <       0.00000038 Ry

     iteration #  7     ecut=    30.00 Ry     beta=0.70
     Davidson diagonalization with overlap
     ethr =  6.96E-10,  avg # of iterations =  2.0

     total cpu time spent up to now is       37.9 secs

     total energy              =    -329.47543728 Ry
     Harris-Foulkes estimate   =    -329.47543770 Ry
     estimated scf accuracy    <       0.00000016 Ry

     iteration #  8     ecut=    30.00 Ry     beta=0.70
     Davidson diagonalization with overlap
     ethr =  2.82E-10,  avg # of iterations =  2.0

     total cpu time spent up to now is       38.2 secs

     total energy              =    -329.47543718 Ry
     Harris-Foulkes estimate   =    -329.47543732 Ry
     estimated scf accuracy    <       0.00000001 Ry

     iteration #  9     ecut=    30.00 Ry     beta=0.70
     Davidson diagonalization with overlap
     ethr =  2.70E-11,  avg # of iterations =  2.0

     total cpu time spent up to now is       38.5 secs

     total energy              =    -329.47543712 Ry
     Harris-Foulkes estimate   =    -329.47543719 Ry
     estimated scf accuracy    <          1.9E-09 Ry

     iteration # 10     ecut=    30.00 Ry     beta=0.70
     Davidson diagonalization with overlap
     ethr =  3.47E-12,  avg # of iterations =  3.0

     total cpu time spent up to now is       38.8 secs

     End of self-consistent calculation

          k = 0.0000 0.0000 0.0000 ( 22119 PWs)   bands (ev):

    -8.1983  -7.6564  -7.4764  -7.2035  -7.1031  -6.7662  -6.6419  -6.4641
    -6.1737  -6.0351  -5.9171  -5.7439  -5.6479  -5.6080  -5.5587  -5.4550
    -5.2500  -5.2048  -5.1822  -5.1595  -5.1116  -5.0573  -5.0070  -4.9641
    -4.9119  -4.4766  -4.4577  -3.6591  -2.5190  -2.3190  -0.3606  -0.1520
     0.3303   0.5494

     the Fermi energy is    -3.6220 ev

!    total energy              =    -329.47543711 Ry
     Harris-Foulkes estimate   =    -329.47543712 Ry
     estimated scf accuracy    <          6.4E-10 Ry

     The total energy is the sum of the following terms:

     one-electron contribution =    -605.75853148 Ry
     hartree contribution      =     324.38506001 Ry
     xc contribution           =     -51.38796596 Ry
     ewald contribution        =       3.29131838 Ry
     smearing contrib. (-TS)   =      -0.00531807 Ry

     convergence has been achieved in  10 iterations

     Forces acting on atoms (Ry/au):

     atom    1 type  1   force =     0.00516062   -0.00238241   -0.00979618
     atom    2 type  1   force =     0.00355756    0.00694004    0.00973526
     atom    3 type  1   force =    -0.00448006   -0.00204761    0.00580691
     atom    4 type  1   force =    -0.00380036   -0.00646499    0.00082998
     atom    5 type  1   force =    -0.00043775    0.00395496   -0.00657597

     Total force =     0.021398     Total SCF correction =     0.000094

     number of scf cycles    =  11
     number of bfgs steps    =  10

     energy   old            =    -329.4741496209 Ry
     energy   new            =    -329.4754371070 Ry

     CASE: energy  _new < energy  _old

     new trust radius        =       0.0946532144 bohr
     new conv_thr            =       0.0000000010 Ry


ATOMIC_POSITIONS (bohr)
Au      -2.118803882   3.805909552  -0.445637953
Au      -0.269576262   2.819128870   4.171700329
Au       2.944141083   2.578168902  -0.012800841
Au       4.415162936   3.869579000   5.806752278
Au       7.072192125   1.038679675   2.476631187



     Writing output data file pwscf.save
     Check: negative starting charge=   -0.006301
     NEW-OLD atomic charge density approx. for the potential
     Check: negative starting charge=   -0.006292

     negative rho (up, down):  1.786E-03 0.000E+00

     total cpu time spent up to now is       39.1 secs

     per-process dynamical memory:    50.7 Mb

     Self-consistent Calculation

     iteration #  1     ecut=    30.00 Ry     beta=0.70
     Davidson diagonalization with overlap
     ethr =  1.00E-06,  avg # of iterations = 10.0

     negative rho (up, down):  1.573E-04 0.000E+00

     total cpu time spent up to now is       39.7 secs

     total energy              =    -329.47650449 Ry
     Harris-Foulkes estimate   =    -329.47579615 Ry
     estimated scf accuracy    <       0.00201463 Ry

     iteration #  2     ecut=    30.00 Ry     beta=0.70
     Davidson diagonalization with overlap
     ethr =  3.66E-06,  avg # of iterations =  5.0

     negative rho (up, down):  4.888E-05 0.000E+00

     total cpu time spent up to now is       40.1 secs

     total energy              =    -329.47681674 Ry
     Harris-Foulkes estimate   =    -329.47775547 Ry
     estimated scf accuracy    <       0.00204664 Ry

     iteration #  3     ecut=    30.00 Ry     beta=0.70
     Davidson diagonalization with overlap
     ethr =  3.66E-06,  avg # of iterations =  2.0

     negative rho (up, down):  9.325E-06 0.000E+00

     total cpu time spent up to now is       40.4 secs

     total energy              =    -329.47719938 Ry
     Harris-Foulkes estimate   =    -329.47738269 Ry
     estimated scf accuracy    <       0.00047163 Ry

     iteration #  4     ecut=    30.00 Ry     beta=0.70
     Davidson diagonalization with overlap
     ethr =  8.58E-07,  avg # of iterations =  2.0

     total cpu time spent up to now is       40.7 secs

     total energy              =    -329.47730160 Ry
     Harris-Foulkes estimate   =    -329.47734159 Ry
     estimated scf accuracy    <       0.00012796 Ry

     iteration #  5     ecut=    30.00 Ry     beta=0.70
     Davidson diagonalization with overlap
     ethr =  2.33E-07,  avg # of iterations =  2.0

     total cpu time spent up to now is       40.9 secs

     total energy              =    -329.47731833 Ry
     Harris-Foulkes estimate   =    -329.47733156 Ry
     estimated scf accuracy    <       0.00003195 Ry

     iteration #  6     ecut=    30.00 Ry     beta=0.70
     Davidson diagonalization with overlap
     ethr =  5.81E-08,  avg # of iterations =  2.0

     total cpu time spent up to now is       41.2 secs

     total energy              =    -329.47732364 Ry
     Harris-Foulkes estimate   =    -329.47732455 Ry
     estimated scf accuracy    <       0.00000107 Ry

     iteration #  7     ecut=    30.00 Ry     beta=0.70
     Davidson diagonalization with overlap
     ethr =  1.94E-09,  avg # of iterations =  3.0

     total cpu time spent up to now is       41.5 secs

     total energy              =    -329.47732355 Ry
     Harris-Foulkes estimate   =    -329.47732416 Ry
     estimated scf accuracy    <       0.00000023 Ry

     iteration #  8     ecut=    30.00 Ry     beta=0.70
     Davidson diagonalization with overlap
     ethr =  4.24E-10,  avg # of iterations =  2.0

     total cpu time spent up to now is       41.8 secs

     total energy              =    -329.47732342 Ry
     Harris-Foulkes estimate   =    -329.47732362 Ry
     estimated scf accuracy    <       0.00000004 Ry

     iteration #  9     ecut=    30.00 Ry     beta=0.70
     Davidson diagonalization with overlap
     ethr =  7.66E-11,  avg # of iterations =  2.0

     total cpu time spent up to now is       42.1 secs

     total energy              =    -329.47732342 Ry
     Harris-Foulkes estimate   =    -329.47732343 Ry
     estimated scf accuracy    <          8.3E-09 Ry

     iteration # 10     ecut=    30.00 Ry     beta=0.70
     Davidson diagonalization with overlap
     ethr =  1.50E-11,  avg # of iterations =  3.0

     total cpu time spent up to now is       42.4 secs

     total energy              =    -329.47732340 Ry
     Harris-Foulkes estimate   =    -329.47732342 Ry
     estimated scf accuracy    <          1.4E-09 Ry

     iteration # 11     ecut=    30.00 Ry     beta=0.70
     Davidson diagonalization with overlap
     ethr =  2.57E-12,  avg # of iterations =  3.0

     total cpu time spent up to now is       42.7 secs

     End of self-consistent calculation

          k = 0.0000 0.0000 0.0000 ( 22119 PWs)   bands (ev):

    -8.2032  -7.6590  -7.5342  -7.2244  -7.1296  -6.7800  -6.6352  -6.4651
    -6.1754  -6.0757  -5.9015  -5.7342  -5.6378  -5.5982  -5.5687  -5.4574
    -5.2449  -5.2091  -5.1936  -5.1697  -5.1302  -5.0590  -4.9878  -4.9550
    -4.8982  -4.4686  -4.4571  -3.6967  -2.5108  -2.2762  -0.3815  -0.1769
     0.3586   0.5627

     the Fermi energy is    -3.6652 ev

!    total energy              =    -329.47732336 Ry
     Harris-Foulkes estimate   =    -329.47732340 Ry
     estimated scf accuracy    <          1.6E-10 Ry

     The total energy is the sum of the following terms:

     one-electron contribution =    -606.63769910 Ry
     hartree contribution      =     324.81824697 Ry
     xc contribution           =     -51.39438414 Ry
     ewald contribution        =       3.74042592 Ry
     smearing contrib. (-TS)   =      -0.00391301 Ry

     convergence has been achieved in  11 iterations

     Forces acting on atoms (Ry/au):

     atom    1 type  1   force =     0.00739438   -0.00307439   -0.00774209
     atom    2 type  1   force =    -0.00378270    0.00632626    0.00358243
     atom    3 type  1   force =    -0.00990744   -0.00054721    0.00483089
     atom    4 type  1   force =     0.00353081   -0.00588650    0.00207529
     atom    5 type  1   force =     0.00276496    0.00318183   -0.00274652

     Total force =     0.019742     Total SCF correction =     0.000056

     number of scf cycles    =  12
     number of bfgs steps    =  11

     energy   old            =    -329.4754371070 Ry
     energy   new            =    -329.4773233645 Ry

     CASE: energy  _new < energy  _old

     new trust radius        =       0.1419798216 bohr
     new conv_thr            =       0.0000000010 Ry


ATOMIC_POSITIONS (bohr)
Au      -2.122109749   3.760622019  -0.464860608
Au      -0.297078688   2.956692554   4.193566270
Au       2.964113352   2.552388323   0.018835942
Au       4.368927853   3.766217592   5.820618865
Au       7.129263231   1.075545513   2.428484531



     Writing output data file pwscf.save
     Check: negative starting charge=   -0.006292
     NEW-OLD atomic charge density approx. for the potential
     Check: negative starting charge=   -0.006304

     negative rho (up, down):  3.145E-03 0.000E+00

     total cpu time spent up to now is       42.9 secs

     per-process dynamical memory:    50.7 Mb

     Self-consistent Calculation

     iteration #  1     ecut=    30.00 Ry     beta=0.70
     Davidson diagonalization with overlap
     ethr =  1.00E-06,  avg # of iterations = 11.0

     negative rho (up, down):  3.580E-04 0.000E+00

     total cpu time spent up to now is       43.7 secs

     total energy              =    -329.47693684 Ry
     Harris-Foulkes estimate   =    -329.47683494 Ry
     estimated scf accuracy    <       0.00431608 Ry

     iteration #  2     ecut=    30.00 Ry     beta=0.70
     Davidson diagonalization with overlap
     ethr =  7.85E-06,  avg # of iterations =  6.0

     negative rho (up, down):  1.192E-04 0.000E+00

     total cpu time spent up to now is       44.1 secs

     total energy              =    -329.47795695 Ry
     Harris-Foulkes estimate   =    -329.47940390 Ry
     estimated scf accuracy    <       0.00338127 Ry

     iteration #  3     ecut=    30.00 Ry     beta=0.70
     Davidson diagonalization with overlap
     ethr =  6.15E-06,  avg # of iterations =  2.0

     negative rho (up, down):  1.746E-05 0.000E+00

     total cpu time spent up to now is       44.4 secs

     total energy              =    -329.47862475 Ry
     Harris-Foulkes estimate   =    -329.47878510 Ry
[...]
Au       2.862352714   2.414001205   0.512857346
Au       4.224526295   3.010102745   5.804286754
Au       7.519927748   1.385377411   2.169279506



     Writing output data file pwscf.save
     Check: negative starting charge=   -0.006485
     NEW-OLD atomic charge density approx. for the potential
     Check: negative starting charge=   -0.006481

     negative rho (up, down):  7.226E-05 0.000E+00

     total cpu time spent up to now is      115.0 secs

     per-process dynamical memory:    50.7 Mb

     Self-consistent Calculation

     iteration #  1     ecut=    30.00 Ry     beta=0.70
     Davidson diagonalization with overlap
     ethr =  1.00E-06,  avg # of iterations =  4.0

     negative rho (up, down):  4.418E-07 0.000E+00

     total cpu time spent up to now is      115.5 secs

     total energy              =    -329.49216958 Ry
     Harris-Foulkes estimate   =    -329.49217092 Ry
     estimated scf accuracy    <       0.00006283 Ry

     iteration #  2     ecut=    30.00 Ry     beta=0.70
     Davidson diagonalization with overlap
     ethr =  1.14E-07,  avg # of iterations =  3.0

     negative rho (up, down):  3.346E-08 0.000E+00

     total cpu time spent up to now is      115.8 secs

     total energy              =    -329.49217911 Ry
     Harris-Foulkes estimate   =    -329.49220292 Ry
     estimated scf accuracy    <       0.00005315 Ry

     iteration #  3     ecut=    30.00 Ry     beta=0.70
     Davidson diagonalization with overlap
     ethr =  9.66E-08,  avg # of iterations =  2.0

     total cpu time spent up to now is      116.0 secs

     total energy              =    -329.49219059 Ry
     Harris-Foulkes estimate   =    -329.49219519 Ry
     estimated scf accuracy    <       0.00001320 Ry

     iteration #  4     ecut=    30.00 Ry     beta=0.70
     Davidson diagonalization with overlap
     ethr =  2.40E-08,  avg # of iterations =  2.0

     total cpu time spent up to now is      116.3 secs

     total energy              =    -329.49219347 Ry
     Harris-Foulkes estimate   =    -329.49219478 Ry
     estimated scf accuracy    <       0.00000370 Ry

     iteration #  5     ecut=    30.00 Ry     beta=0.70
     Davidson diagonalization with overlap
     ethr =  6.73E-09,  avg # of iterations =  2.0

     total cpu time spent up to now is      116.6 secs

     total energy              =    -329.49219409 Ry
     Harris-Foulkes estimate   =    -329.49219433 Ry
     estimated scf accuracy    <       0.00000054 Ry

     iteration #  6     ecut=    30.00 Ry     beta=0.70
     Davidson diagonalization with overlap
     ethr =  9.86E-10,  avg # of iterations =  2.0

     total cpu time spent up to now is      116.9 secs

     total energy              =    -329.49219428 Ry
     Harris-Foulkes estimate   =    -329.49219423 Ry
     estimated scf accuracy    <       0.00000005 Ry

     iteration #  7     ecut=    30.00 Ry     beta=0.70
     Davidson diagonalization with overlap
     ethr =  9.63E-11,  avg # of iterations =  2.0

     total cpu time spent up to now is      117.1 secs

     total energy              =    -329.49219431 Ry
     Harris-Foulkes estimate   =    -329.49219429 Ry
     estimated scf accuracy    <          5.9E-09 Ry

     iteration #  8     ecut=    30.00 Ry     beta=0.70
     Davidson diagonalization with overlap
     ethr =  1.07E-11,  avg # of iterations =  2.0

     total cpu time spent up to now is      117.4 secs

     total energy              =    -329.49219431 Ry
     Harris-Foulkes estimate   =    -329.49219431 Ry
     estimated scf accuracy    <          2.9E-09 Ry

     iteration #  9     ecut=    30.00 Ry     beta=0.70
     Davidson diagonalization with overlap
     ethr =  5.35E-12,  avg # of iterations =  2.0

     total cpu time spent up to now is      117.8 secs

     total energy              =    -329.49219432 Ry
     Harris-Foulkes estimate   =    -329.49219431 Ry
     estimated scf accuracy    <          4.1E-10 Ry

     iteration # 10     ecut=    30.00 Ry     beta=0.70
     Davidson diagonalization with overlap
     ethr =  7.50E-13,  avg # of iterations =  2.0

     total cpu time spent up to now is      118.0 secs

     End of self-consistent calculation

          k = 0.0000 0.0000 0.0000 ( 22119 PWs)   bands (ev):

    -8.5261  -7.7899  -7.6698  -7.2331  -6.8588  -6.8268  -6.5920  -6.4921
    -6.3101  -6.0882  -5.9440  -5.7701  -5.7335  -5.6849  -5.4645  -5.3587
    -5.3151  -5.2500  -5.2041  -5.1845  -5.1713  -5.1211  -4.9980  -4.9273
    -4.8489  -4.7195  -4.4905  -3.7814  -2.4638  -2.1972  -0.5590  -0.2238
     0.5046   0.8211

     the Fermi energy is    -3.7480 ev

!    total energy              =    -329.49219432 Ry
     Harris-Foulkes estimate   =    -329.49219432 Ry
     estimated scf accuracy    <          2.3E-11 Ry

     The total energy is the sum of the following terms:

     one-electron contribution =    -608.64882712 Ry
     hartree contribution      =     325.75158115 Ry
     xc contribution           =     -51.40138155 Ry
     ewald contribution        =       4.81093629 Ry
     smearing contrib. (-TS)   =      -0.00450309 Ry

     convergence has been achieved in  10 iterations

     Forces acting on atoms (Ry/au):

     atom    1 type  1   force =    -0.00126211    0.00031927   -0.00088300
     atom    2 type  1   force =    -0.00017853    0.00002732    0.00012832
     atom    3 type  1   force =     0.00146853   -0.00050284    0.00033777
     atom    4 type  1   force =     0.00060984   -0.00017973   -0.00042927
     atom    5 type  1   force =    -0.00063773    0.00033598    0.00084617

     Total force =     0.002621     Total SCF correction =     0.000023

     number of scf cycles    =  32
     number of bfgs steps    =  31

     energy   old            =    -329.4921676759 Ry
     energy   new            =    -329.4921943200 Ry

     CASE: energy  _new < energy  _old

     new trust radius        =       0.0083211946 bohr
     new conv_thr            =            1.0E-10 Ry


ATOMIC_POSITIONS (bohr)
Au      -1.930478402   3.366012796  -0.737496426
Au      -0.636384359   3.932789784   4.241614153
Au       2.867405951   2.411599616   0.514233522
Au       4.222816826   3.017799305   5.801625369
Au       7.519755984   1.383264499   2.176668382



     Writing output data file pwscf.save
     Check: negative starting charge=   -0.006481
     NEW-OLD atomic charge density approx. for the potential
     Check: negative starting charge=   -0.006479

     negative rho (up, down):  5.597E-06 0.000E+00

     total cpu time spent up to now is      118.3 secs

     per-process dynamical memory:    50.7 Mb

     Self-consistent Calculation

     iteration #  1     ecut=    30.00 Ry     beta=0.70
     Davidson diagonalization with overlap
     ethr =  1.00E-06,  avg # of iterations =  4.0

     Threshold (ethr) on eigenvalues was too large:
     Diagonalizing with lowered threshold

     Davidson diagonalization with overlap
     ethr =  2.75E-08,  avg # of iterations =  2.0

     total cpu time spent up to now is      119.0 secs

     total energy              =    -329.49219760 Ry
     Harris-Foulkes estimate   =    -329.49219931 Ry
     estimated scf accuracy    <       0.00001598 Ry

     iteration #  2     ecut=    30.00 Ry     beta=0.70
     Davidson diagonalization with overlap
     ethr =  2.91E-08,  avg # of iterations =  2.0

     total cpu time spent up to now is      119.3 secs

     total energy              =    -329.49220041 Ry
     Harris-Foulkes estimate   =    -329.49220599 Ry
     estimated scf accuracy    <       0.00001231 Ry

     iteration #  3     ecut=    30.00 Ry     beta=0.70
     Davidson diagonalization with overlap
     ethr =  2.24E-08,  avg # of iterations =  2.0

     total cpu time spent up to now is      119.5 secs

     total energy              =    -329.49220304 Ry
     Harris-Foulkes estimate   =    -329.49220379 Ry
     estimated scf accuracy    <       0.00000206 Ry

     iteration #  4     ecut=    30.00 Ry     beta=0.70
     Davidson diagonalization with overlap
     ethr =  3.75E-09,  avg # of iterations =  2.0

     total cpu time spent up to now is      119.9 secs

     total energy              =    -329.49220357 Ry
     Harris-Foulkes estimate   =    -329.49220390 Ry
     estimated scf accuracy    <       0.00000113 Ry

     iteration #  5     ecut=    30.00 Ry     beta=0.70
     Davidson diagonalization with overlap
     ethr =  2.06E-09,  avg # of iterations =  2.0

     total cpu time spent up to now is      120.1 secs

     total energy              =    -329.49220366 Ry
     Harris-Foulkes estimate   =    -329.49220381 Ry
     estimated scf accuracy    <       0.00000009 Ry

     iteration #  6     ecut=    30.00 Ry     beta=0.70
     Davidson diagonalization with overlap
     ethr =  1.63E-10,  avg # of iterations =  2.0

     total cpu time spent up to now is      120.4 secs

     total energy              =    -329.49220376 Ry
     Harris-Foulkes estimate   =    -329.49220369 Ry
     estimated scf accuracy    <       0.00000001 Ry

     iteration #  7     ecut=    30.00 Ry     beta=0.70
     Davidson diagonalization with overlap
     ethr =  2.33E-11,  avg # of iterations =  2.0

     total cpu time spent up to now is      120.7 secs

     total energy              =    -329.49220379 Ry
     Harris-Foulkes estimate   =    -329.49220376 Ry
     estimated scf accuracy    <          1.0E-09 Ry

     iteration #  8     ecut=    30.00 Ry     beta=0.70
     Davidson diagonalization with overlap
     ethr =  1.84E-12,  avg # of iterations =  3.0

     total cpu time spent up to now is      121.0 secs

     total energy              =    -329.49220377 Ry
     Harris-Foulkes estimate   =    -329.49220379 Ry
     estimated scf accuracy    <          3.9E-10 Ry

     iteration #  9     ecut=    30.00 Ry     beta=0.70
     Davidson diagonalization with overlap
     ethr =  7.14E-13,  avg # of iterations =  2.0

     total cpu time spent up to now is      121.3 secs

     End of self-consistent calculation

          k = 0.0000 0.0000 0.0000 ( 22119 PWs)   bands (ev):

    -8.5258  -7.7909  -7.6673  -7.2330  -6.8570  -6.8261  -6.5960  -6.4917
    -6.3090  -6.0883  -5.9458  -5.7698  -5.7337  -5.6846  -5.4652  -5.3583
    -5.3146  -5.2504  -5.2036  -5.1846  -5.1712  -5.1211  -4.9982  -4.9277
    -4.8477  -4.7209  -4.4903  -3.7802  -2.4638  -2.1977  -0.5587  -0.2230
     0.5044   0.8191

     the Fermi energy is    -3.7468 ev

!    total energy              =    -329.49220379 Ry
     Harris-Foulkes estimate   =    -329.49220377 Ry
     estimated scf accuracy    <          8.9E-11 Ry

     The total energy is the sum of the following terms:

     one-electron contribution =    -608.63911896 Ry
     hartree contribution      =     325.74676778 Ry
     xc contribution           =     -51.40130710 Ry
     ewald contribution        =       4.80599463 Ry
     smearing contrib. (-TS)   =      -0.00454013 Ry

     convergence has been achieved in   9 iterations

     Forces acting on atoms (Ry/au):

     atom    1 type  1   force =    -0.00104828    0.00031764   -0.00074930
     atom    2 type  1   force =     0.00010662    0.00001523    0.00009291
     atom    3 type  1   force =     0.00063632   -0.00030265    0.00017780
     atom    4 type  1   force =     0.00035898   -0.00018191   -0.00028245
     atom    5 type  1   force =    -0.00005364    0.00015170    0.00076104

     Total force =     0.001777     Total SCF correction =     0.000026

     number of scf cycles    =  33
     number of bfgs steps    =  32

     energy   old            =    -329.4921943200 Ry
     energy   new            =    -329.4922037862 Ry

     CASE: energy  _new < energy  _old

     new trust radius        =       0.0071117995 bohr
     new conv_thr            =            1.0E-10 Ry


ATOMIC_POSITIONS (bohr)
Au      -1.929222883   3.365757232  -0.740602714
Au      -0.641273555   3.930764969   4.239375760
Au       2.872027744   2.409607281   0.515241878
Au       4.221604853   3.023907534   5.799094492
Au       7.519979843   1.381428984   2.183535584



     Writing output data file pwscf.save
     Check: negative starting charge=   -0.006479
     NEW-OLD atomic charge density approx. for the potential
     Check: negative starting charge=   -0.006478

     negative rho (up, down):  2.294E-06 0.000E+00

     total cpu time spent up to now is      121.6 secs

     per-process dynamical memory:    50.7 Mb

     Self-consistent Calculation

     iteration #  1     ecut=    30.00 Ry     beta=0.70
     Davidson diagonalization with overlap
     ethr =  1.00E-06,  avg # of iterations =  3.0

     Threshold (ethr) on eigenvalues was too large:
     Diagonalizing with lowered threshold

     Davidson diagonalization with overlap
     ethr =  1.79E-08,  avg # of iterations =  2.0

     total cpu time spent up to now is      122.2 secs

     total energy              =    -329.49220481 Ry
     Harris-Foulkes estimate   =    -329.49220508 Ry
     estimated scf accuracy    <       0.00001059 Ry

     iteration #  2     ecut=    30.00 Ry     beta=0.70
     Davidson diagonalization with overlap
     ethr =  1.93E-08,  avg # of iterations =  2.0

     total cpu time spent up to now is      122.5 secs

     total energy              =    -329.49220684 Ry
     Harris-Foulkes estimate   =    -329.49221035 Ry
     estimated scf accuracy    <       0.00000812 Ry

     iteration #  3     ecut=    30.00 Ry     beta=0.70
     Davidson diagonalization with overlap
     ethr =  1.48E-08,  avg # of iterations =  2.0

     total cpu time spent up to now is      122.8 secs

     total energy              =    -329.49220866 Ry
     Harris-Foulkes estimate   =    -329.49220910 Ry
     estimated scf accuracy    <       0.00000148 Ry

     iteration #  4     ecut=    30.00 Ry     beta=0.70
     Davidson diagonalization with overlap
     ethr =  2.68E-09,  avg # of iterations =  2.0

     total cpu time spent up to now is      123.0 secs

     total energy              =    -329.49220926 Ry
     Harris-Foulkes estimate   =    -329.49220927 Ry
     estimated scf accuracy    <       0.00000083 Ry

     iteration #  5     ecut=    30.00 Ry     beta=0.70
     Davidson diagonalization with overlap
     ethr =  1.51E-09,  avg # of iterations =  2.0

     total cpu time spent up to now is      123.3 secs

     total energy              =    -329.49220936 Ry
     Harris-Foulkes estimate   =    -329.49220942 Ry
     estimated scf accuracy    <       0.00000006 Ry

     iteration #  6     ecut=    30.00 Ry     beta=0.70
     Davidson diagonalization with overlap
     ethr =  1.09E-10,  avg # of iterations =  2.0

     total cpu time spent up to now is      123.6 secs

     total energy              =    -329.49220936 Ry
     Harris-Foulkes estimate   =    -329.49220938 Ry
     estimated scf accuracy    <          8.4E-09 Ry

     iteration #  7     ecut=    30.00 Ry     beta=0.70
     Davidson diagonalization with overlap
     ethr =  1.53E-11,  avg # of iterations =  2.0

     total cpu time spent up to now is      123.9 secs

     total energy              =    -329.49220939 Ry
     Harris-Foulkes estimate   =    -329.49220937 Ry
     estimated scf accuracy    <          8.4E-10 Ry

     iteration #  8     ecut=    30.00 Ry     beta=0.70
     Davidson diagonalization with overlap
     ethr =  1.52E-12,  avg # of iterations =  2.0

     total cpu time spent up to now is      124.2 secs

     total energy              =    -329.49220939 Ry
     Harris-Foulkes estimate   =    -329.49220939 Ry
     estimated scf accuracy    <          1.5E-10 Ry

     iteration #  9     ecut=    30.00 Ry     beta=0.70
     Davidson diagonalization with overlap
     ethr =  2.80E-13,  avg # of iterations =  2.0

     total cpu time spent up to now is      124.4 secs

     End of self-consistent calculation

          k = 0.0000 0.0000 0.0000 ( 22119 PWs)   bands (ev):

    -8.5243  -7.7914  -7.6656  -7.2338  -6.8558  -6.8246  -6.5995  -6.4916
    -6.3087  -6.0877  -5.9474  -5.7691  -5.7333  -5.6842  -5.4662  -5.3580
    -5.3142  -5.2507  -5.2031  -5.1850  -5.1709  -5.1210  -4.9990  -4.9279
    -4.8467  -4.7222  -4.4902  -3.7791  -2.4649  -2.1976  -0.5586  -0.2222
     0.5037   0.8170

     the Fermi energy is    -3.7455 ev

!    total energy              =    -329.49220940 Ry
     Harris-Foulkes estimate   =    -329.49220939 Ry
     estimated scf accuracy    <          5.1E-11 Ry

     The total energy is the sum of the following terms:

     one-electron contribution =    -608.61654040 Ry
     hartree contribution      =     325.73545799 Ry
     xc contribution           =     -51.40115068 Ry
     ewald contribution        =       4.79460112 Ry
     smearing contrib. (-TS)   =      -0.00457743 Ry

     convergence has been achieved in   9 iterations

     Forces acting on atoms (Ry/au):

     atom    1 type  1   force =    -0.00056043    0.00024647   -0.00057729
     atom    2 type  1   force =     0.00026821    0.00002560    0.00004596
     atom    3 type  1   force =    -0.00024274   -0.00011249   -0.00006044
     atom    4 type  1   force =     0.00010421   -0.00013041   -0.00008883
     atom    5 type  1   force =     0.00043076   -0.00002918    0.00068059

     Total force =     0.001242     Total SCF correction =     0.000025

     bfgs converged in  34 scf cycles and  33 bfgs steps
     (criteria: energy <  1.0E-04, force <  1.0E-03)

     End of BFGS Geometry Optimization

     Final energy   =    -329.4922094019 Ry
Begin final coordinates

ATOMIC_POSITIONS (bohr)
Au      -1.929222883   3.365757232  -0.740602714
Au      -0.641273555   3.930764969   4.239375760
Au       2.872027744   2.409607281   0.515241878
Au       4.221604853   3.023907534   5.799094492
Au       7.519979843   1.381428984   2.183535584
End final coordinates



     Writing output data file pwscf.save
 
     init_run     :      0.20s CPU      0.24s WALL (       1 calls)
     electrons    :    109.12s CPU    115.19s WALL (      34 calls)
     update_pot   :      3.14s CPU      3.96s WALL (      33 calls)
     forces       :      1.77s CPU      1.80s WALL (      34 calls)

     Called by init_run:
     wfcinit      :      0.11s CPU      0.14s WALL (       1 calls)
     potinit      :      0.03s CPU      0.03s WALL (       1 calls)

     Called by electrons:
     c_bands      :     81.86s CPU     83.12s WALL (     363 calls)
     sum_band     :      9.81s CPU     10.01s WALL (     363 calls)
     v_of_rho     :      9.21s CPU      9.36s WALL (     384 calls)
     mix_rho      :      5.13s CPU      8.03s WALL (     363 calls)

     Called by c_bands:
     init_us_2    :      1.14s CPU      1.18s WALL (     727 calls)
     cegterg      :     74.94s CPU     76.02s WALL (     363 calls)

     Called by sum_band:

     Called by *egterg:
     h_psi        :     56.54s CPU     57.29s WALL (    1415 calls)
     g_psi        :      0.44s CPU      0.44s WALL (    1051 calls)
     cdiaghg      :      5.57s CPU      5.68s WALL (    1368 calls)

     Called by h_psi:
     h_psi:pot    :     55.90s CPU     56.64s WALL (    1415 calls)
     h_psi:calbec :      6.68s CPU      6.84s WALL (    1415 calls)
     vloc_psi     :     46.45s CPU     47.03s WALL (    1415 calls)
     add_vuspsi   :      2.76s CPU      2.77s WALL (    1415 calls)

     General routines
     calbec       :      7.32s CPU      7.51s WALL (    1551 calls)
     fft          :      5.69s CPU      5.82s WALL (    4317 calls)
     fftw         :     49.19s CPU     50.08s WALL (   82346 calls)
     davcio       :      0.49s CPU      2.61s WALL (    3841 calls)
 
     Parallel routines
     fft_scatter  :     21.07s CPU     21.15s WALL (   86663 calls)
 
     PWSCF        :  1m55.98s CPU     2m 4.78s WALL

 
   This run was terminated on:   0:56:46  29Jul2017            

=------------------------------------------------------------------------------=
   JOB DONE.
=------------------------------------------------------------------------------=
