
     Program PWSCF v.6.0 (svn rev. 13079) starts on 29Jul2017 at  1: 9:20 

     This program is part of the open-source Quantum ESPRESSO suite
     for quantum simulation of materials; please cite
         "P. Giannozzi et al., J. Phys.:Condens. Matter 21 395502 (2009);
          URL http://www.quantum-espresso.org", 
     in publications or presentations arising from this work. More details at
     http://www.quantum-espresso.org/quote

     Parallel version (MPI), running on    10 processors
     R & G space division:  proc/nbgrp/npool/nimage =      10
     Reading input from input/dftmin-Gold5-multi-11.in

     Current dimensions of program PWSCF are:
     Max number of different atomic species (ntypx) = 10
     Max number of k-points (npk) =  40000
     Max angular momentum in pseudopotentials (lmaxx) =  3
     Message from routine iosys:
     pot_extrapolation='second-order' not available, using 'atomic'
     Message from routine iosys:
     wfc_extrapolation='second-order' not available, using 'atomic'

     Subspace diagonalization in iterative solution of the eigenvalue problem:
     a serial algorithm will be used

 
     Parallelization info
     --------------------
     sticks:   dense  smooth     PW     G-vecs:    dense   smooth      PW
     Min         380     380     94                17748    17748    2208
     Max         381     381     95                17753    17753    2213
     Sum        3809    3809    949               177509   177509   22119
 


     bravais-lattice index     =            1
     lattice parameter (alat)  =      20.0000  a.u.
     unit-cell volume          =    8000.0000 (a.u.)^3
     number of atoms/cell      =            5
     number of atomic types    =            1
     number of electrons       =        55.00
     number of Kohn-Sham states=           34
     kinetic-energy cutoff     =      30.0000  Ry
     charge density cutoff     =     120.0000  Ry
     convergence threshold     =      1.0E-08
     mixing beta               =       0.7000
     number of iterations used =            8  plain     mixing
     Exchange-correlation      = BLYP ( 1  3  1  3 0 0)
     nstep                     =           50


     celldm(1)=  20.000000  celldm(2)=   0.000000  celldm(3)=   0.000000
     celldm(4)=   0.000000  celldm(5)=   0.000000  celldm(6)=   0.000000

     crystal axes: (cart. coord. in units of alat)
               a(1) = (   1.000000   0.000000   0.000000 )  
               a(2) = (   0.000000   1.000000   0.000000 )  
               a(3) = (   0.000000   0.000000   1.000000 )  

     reciprocal axes: (cart. coord. in units 2 pi/alat)
               b(1) = (  1.000000  0.000000  0.000000 )  
               b(2) = (  0.000000  1.000000  0.000000 )  
               b(3) = (  0.000000  0.000000  1.000000 )  


     PseudoPot. # 1 for Au read from file:
     ./Au.blyp-d-hgh.UPF
     MD5 check sum: c10d8bae01f806c36a1643a1c69a8479
     Pseudo is Norm-conserving, Zval = 11.0
     Generated in analytical, separable form
     Using radial grid of 1279 points,  6 beta functions with: 
                l(1) =   0
                l(2) =   0
                l(3) =   1
                l(4) =   1
                l(5) =   2
                l(6) =   2

     atomic species   valence    mass     pseudopotential
        Au            11.00    28.08600     Au( 1.00)

     No symmetry found



   Cartesian axes

     site n.     atom                  positions (alat units)
         1           Au  tau(   1) = (  -0.0835728   0.0877050  -0.0546907  )
         2           Au  tau(   2) = (  -0.0351378   0.1915513   0.1803789  )
         3           Au  tau(   3) = (   0.1576932   0.0982311   0.0371580  )
         4           Au  tau(   4) = (   0.2010283   0.1688422   0.2938026  )
         5           Au  tau(   5) = (   0.3898375   0.0641918   0.1429870  )

     number of k points=     1  Marzari-Vanderbilt smearing, width (Ry)=  0.0250
                       cart. coord. in units 2pi/alat
        k(    1) = (   0.0000000   0.0000000   0.0000000), wk =   2.0000000

     Dense  grid:   177509 G-vectors     FFT dimensions: (  72,  72,  72)

     Estimated max dynamical RAM per process >      15.04Mb

     Estimated total allocated dynamical RAM >     150.39Mb

     Initial potential from superposition of free atoms
     Check: negative starting charge=   -0.006393

     starting charge   54.99940, renormalised to   55.00000

     negative rho (up, down):  6.393E-03 0.000E+00
     Starting wfc are   45 randomized atomic wfcs

     total cpu time spent up to now is        0.4 secs

     per-process dynamical memory:    41.0 Mb

     Self-consistent Calculation

     iteration #  1     ecut=    30.00 Ry     beta=0.70
     Davidson diagonalization with overlap
     ethr =  1.00E-02,  avg # of iterations =  3.0

     Threshold (ethr) on eigenvalues was too large:
     Diagonalizing with lowered threshold

     Davidson diagonalization with overlap
     ethr =  3.98E-04,  avg # of iterations =  8.0

     negative rho (up, down):  8.738E-04 0.000E+00

     total cpu time spent up to now is        1.0 secs

     total energy              =    -329.38281771 Ry
     Harris-Foulkes estimate   =    -329.54562762 Ry
     estimated scf accuracy    <       0.27278990 Ry

     iteration #  2     ecut=    30.00 Ry     beta=0.70
     Davidson diagonalization with overlap
     ethr =  4.96E-04,  avg # of iterations =  5.0

     negative rho (up, down):  3.607E-04 0.000E+00

     total cpu time spent up to now is        1.3 secs

     total energy              =    -329.43181549 Ry
     Harris-Foulkes estimate   =    -329.54704657 Ry
     estimated scf accuracy    <       0.22867602 Ry

     iteration #  3     ecut=    30.00 Ry     beta=0.70
     Davidson diagonalization with overlap
     ethr =  4.16E-04,  avg # of iterations =  2.0

     negative rho (up, down):  1.322E-04 0.000E+00

     total cpu time spent up to now is        1.6 secs

     total energy              =    -329.47856143 Ry
     Harris-Foulkes estimate   =    -329.49475372 Ry
     estimated scf accuracy    <       0.03822093 Ry

     iteration #  4     ecut=    30.00 Ry     beta=0.70
     Davidson diagonalization with overlap
     ethr =  6.95E-05,  avg # of iterations =  5.0

     negative rho (up, down):  3.419E-06 0.000E+00

     total cpu time spent up to now is        1.9 secs

     total energy              =    -329.48665491 Ry
     Harris-Foulkes estimate   =    -329.48791212 Ry
     estimated scf accuracy    <       0.00330373 Ry

     iteration #  5     ecut=    30.00 Ry     beta=0.70
     Davidson diagonalization with overlap
     ethr =  6.01E-06,  avg # of iterations = 12.0

     total cpu time spent up to now is        2.3 secs

     total energy              =    -329.48727495 Ry
     Harris-Foulkes estimate   =    -329.48791288 Ry
     estimated scf accuracy    <       0.00160682 Ry

     iteration #  6     ecut=    30.00 Ry     beta=0.70
     Davidson diagonalization with overlap
     ethr =  2.92E-06,  avg # of iterations =  2.0

     total cpu time spent up to now is        2.5 secs

     total energy              =    -329.48756194 Ry
     Harris-Foulkes estimate   =    -329.48764936 Ry
     estimated scf accuracy    <       0.00022232 Ry

     iteration #  7     ecut=    30.00 Ry     beta=0.70
     Davidson diagonalization with overlap
     ethr =  4.04E-07,  avg # of iterations =  2.0

     total cpu time spent up to now is        2.8 secs

     total energy              =    -329.48760744 Ry
     Harris-Foulkes estimate   =    -329.48761303 Ry
     estimated scf accuracy    <       0.00001199 Ry

     iteration #  8     ecut=    30.00 Ry     beta=0.70
     Davidson diagonalization with overlap
     ethr =  2.18E-08,  avg # of iterations =  3.0

     total cpu time spent up to now is        3.1 secs

     total energy              =    -329.48760963 Ry
     Harris-Foulkes estimate   =    -329.48761227 Ry
     estimated scf accuracy    <       0.00000514 Ry

     iteration #  9     ecut=    30.00 Ry     beta=0.70
     Davidson diagonalization with overlap
     ethr =  9.35E-09,  avg # of iterations =  2.0

     total cpu time spent up to now is        3.4 secs

     total energy              =    -329.48761030 Ry
     Harris-Foulkes estimate   =    -329.48761102 Ry
     estimated scf accuracy    <       0.00000088 Ry

     iteration # 10     ecut=    30.00 Ry     beta=0.70
     Davidson diagonalization with overlap
     ethr =  1.60E-09,  avg # of iterations =  2.0

     total cpu time spent up to now is        3.6 secs

     total energy              =    -329.48761033 Ry
     Harris-Foulkes estimate   =    -329.48761059 Ry
     estimated scf accuracy    <       0.00000031 Ry

     iteration # 11     ecut=    30.00 Ry     beta=0.70
     Davidson diagonalization with overlap
     ethr =  5.73E-10,  avg # of iterations =  2.0

     total cpu time spent up to now is        3.9 secs

     End of self-consistent calculation

          k = 0.0000 0.0000 0.0000 ( 22119 PWs)   bands (ev):

    -8.4606  -7.7473  -7.7293  -7.1732  -6.7957  -6.7188  -6.5599  -6.5004
    -6.2568  -6.0916  -5.8360  -5.7936  -5.6633  -5.6212  -5.5123  -5.3550
    -5.3091  -5.2636  -5.1961  -5.1736  -5.1622  -5.1107  -5.0244  -4.9767
    -4.8196  -4.7111  -4.5485  -3.7636  -2.5024  -2.2720  -0.5468  -0.1262
     0.4028   0.8631

     the Fermi energy is    -3.7237 ev

!    total energy              =    -329.48761035 Ry
     Harris-Foulkes estimate   =    -329.48761039 Ry
     estimated scf accuracy    <          7.7E-09 Ry

     The total energy is the sum of the following terms:

     one-electron contribution =    -604.02603561 Ry
     hartree contribution      =     323.46145623 Ry
     xc contribution           =     -51.38146621 Ry
     ewald contribution        =       2.46449495 Ry
     smearing contrib. (-TS)   =      -0.00605971 Ry

     convergence has been achieved in  11 iterations

     Forces acting on atoms (Ry/au):

     atom    1 type  1   force =     0.01096971    0.00464009    0.00659846
     atom    2 type  1   force =    -0.00459833    0.00303800    0.00549982
     atom    3 type  1   force =     0.00740836   -0.01229118   -0.00656116
     atom    4 type  1   force =     0.00207242   -0.00235191   -0.00497426
     atom    5 type  1   force =    -0.01585217    0.00696501   -0.00056286

     Total force =     0.028805     Total SCF correction =     0.000319

     BFGS Geometry Optimization

     number of scf cycles    =   1
     number of bfgs steps    =   0

     energy   new            =    -329.4876103456 Ry

     new trust radius        =       0.0173239550 bohr
     new conv_thr            =       0.0000000100 Ry


ATOMIC_POSITIONS (bohr)
Au      -1.660486288   1.758740086  -1.087216544
Au      -0.707353326   3.834064001   3.613076820
Au       3.161272364   1.952329819   0.736598844
Au       4.022637421   3.374493089   5.871078743
Au       7.780897830   1.290802006   2.859176137



     Writing output data file pwscf.save
     Check: negative starting charge=   -0.006393
     NEW-OLD atomic charge density approx. for the potential
     Check: negative starting charge=   -0.006401

     negative rho (up, down):  4.619E-05 0.000E+00

     total cpu time spent up to now is        4.2 secs

     per-process dynamical memory:    42.9 Mb

     Self-consistent Calculation

     iteration #  1     ecut=    30.00 Ry     beta=0.70
     Davidson diagonalization with overlap
     ethr =  1.00E-06,  avg # of iterations =  4.0

     negative rho (up, down):  1.471E-07 0.000E+00

     total cpu time spent up to now is        4.7 secs

     total energy              =    -329.48834888 Ry
     Harris-Foulkes estimate   =    -329.48836256 Ry
     estimated scf accuracy    <       0.00006508 Ry

     iteration #  2     ecut=    30.00 Ry     beta=0.70
     Davidson diagonalization with overlap
     ethr =  1.18E-07,  avg # of iterations =  3.0

     negative rho (up, down):  1.269E-08 0.000E+00

     total cpu time spent up to now is        4.9 secs

     total energy              =    -329.48834164 Ry
     Harris-Foulkes estimate   =    -329.48840829 Ry
     estimated scf accuracy    <       0.00016358 Ry

     iteration #  3     ecut=    30.00 Ry     beta=0.70
     Davidson diagonalization with overlap
     ethr =  1.18E-07,  avg # of iterations =  2.0

     total cpu time spent up to now is        5.2 secs

     total energy              =    -329.48837391 Ry
     Harris-Foulkes estimate   =    -329.48837853 Ry
     estimated scf accuracy    <       0.00001237 Ry

     iteration #  4     ecut=    30.00 Ry     beta=0.70
     Davidson diagonalization with overlap
     ethr =  2.25E-08,  avg # of iterations =  2.0

     total cpu time spent up to now is        5.5 secs

     total energy              =    -329.48837590 Ry
     Harris-Foulkes estimate   =    -329.48837716 Ry
     estimated scf accuracy    <       0.00000235 Ry

     iteration #  5     ecut=    30.00 Ry     beta=0.70
     Davidson diagonalization with overlap
     ethr =  4.28E-09,  avg # of iterations =  2.0

     total cpu time spent up to now is        5.7 secs

     total energy              =    -329.48837647 Ry
     Harris-Foulkes estimate   =    -329.48837668 Ry
     estimated scf accuracy    <       0.00000080 Ry

     iteration #  6     ecut=    30.00 Ry     beta=0.70
     Davidson diagonalization with overlap
     ethr =  1.45E-09,  avg # of iterations =  2.0

     total cpu time spent up to now is        6.0 secs

     total energy              =    -329.48837657 Ry
     Harris-Foulkes estimate   =    -329.48837664 Ry
     estimated scf accuracy    <       0.00000003 Ry

     iteration #  7     ecut=    30.00 Ry     beta=0.70
     Davidson diagonalization with overlap
     ethr =  4.82E-11,  avg # of iterations =  3.0

     total cpu time spent up to now is        6.3 secs

     total energy              =    -329.48837661 Ry
     Harris-Foulkes estimate   =    -329.48837658 Ry
     estimated scf accuracy    <       0.00000001 Ry

     iteration #  8     ecut=    30.00 Ry     beta=0.70
     Davidson diagonalization with overlap
     ethr =  2.68E-11,  avg # of iterations =  2.0

     total cpu time spent up to now is        6.5 secs

     End of self-consistent calculation

          k = 0.0000 0.0000 0.0000 ( 22119 PWs)   bands (ev):

    -8.4697  -7.7573  -7.7161  -7.1778  -6.8014  -6.7314  -6.5580  -6.5105
    -6.2605  -6.0968  -5.8501  -5.7934  -5.6717  -5.6273  -5.5120  -5.3537
    -5.3068  -5.2651  -5.1964  -5.1762  -5.1618  -5.1113  -5.0206  -4.9745
    -4.8160  -4.7150  -4.5437  -3.7611  -2.4954  -2.2689  -0.5472  -0.1306
     0.4069   0.8659

     the Fermi energy is    -3.7213 ev

!    total energy              =    -329.48837663 Ry
     Harris-Foulkes estimate   =    -329.48837662 Ry
     estimated scf accuracy    <          2.2E-09 Ry

     The total energy is the sum of the following terms:

     one-electron contribution =    -604.59384071 Ry
     hartree contribution      =     323.74204384 Ry
     xc contribution           =     -51.38336785 Ry
     ewald contribution        =       2.75283632 Ry
     smearing contrib. (-TS)   =      -0.00604822 Ry

     convergence has been achieved in   8 iterations

     Forces acting on atoms (Ry/au):

     atom    1 type  1   force =     0.01002563    0.00420357    0.00590331
     atom    2 type  1   force =    -0.00344833    0.00253378    0.00493794
     atom    3 type  1   force =     0.00507818   -0.01104934   -0.00619428
     atom    4 type  1   force =     0.00099847   -0.00186208   -0.00422014
     atom    5 type  1   force =    -0.01265394    0.00617408   -0.00042682

     Total force =     0.024549     Total SCF correction =     0.000129

     number of scf cycles    =   2
     number of bfgs steps    =   1

     energy   old            =    -329.4876103456 Ry
     energy   new            =    -329.4883766262 Ry

     CASE: energy  _new < energy  _old


     WARNING: bfgs curvature condition failed, Theta= 0.942
     new trust radius        =       0.0190563506 bohr
     new conv_thr            =       0.0000000008 Ry


ATOMIC_POSITIONS (bohr)
Au      -1.647074317   1.764368031  -1.079303719
Au      -0.712058599   3.837483291   3.619693463
Au       3.168272712   1.937525855   0.728336508
Au       4.024082625   3.371966918   5.865393311
Au       7.763745579   1.299084905   2.858594435



     Writing output data file pwscf.save
     Check: negative starting charge=   -0.006401
     NEW-OLD atomic charge density approx. for the potential
     Check: negative starting charge=   -0.006410

     negative rho (up, down):  7.152E-05 0.000E+00

     total cpu time spent up to now is        6.8 secs

     per-process dynamical memory:    50.6 Mb

     Self-consistent Calculation

     iteration #  1     ecut=    30.00 Ry     beta=0.70
     Davidson diagonalization with overlap
     ethr =  1.00E-06,  avg # of iterations =  4.0

     negative rho (up, down):  3.784E-07 0.000E+00

     total cpu time spent up to now is        7.2 secs

     total energy              =    -329.48907446 Ry
     Harris-Foulkes estimate   =    -329.48909045 Ry
     estimated scf accuracy    <       0.00008389 Ry

     iteration #  2     ecut=    30.00 Ry     beta=0.70
     Davidson diagonalization with overlap
     ethr =  1.53E-07,  avg # of iterations =  3.0

     negative rho (up, down):  4.631E-08 0.000E+00

     total cpu time spent up to now is        7.5 secs

     total energy              =    -329.48906631 Ry
     Harris-Foulkes estimate   =    -329.48914814 Ry
     estimated scf accuracy    <       0.00019803 Ry

     iteration #  3     ecut=    30.00 Ry     beta=0.70
     Davidson diagonalization with overlap
     ethr =  1.53E-07,  avg # of iterations =  2.0

     total cpu time spent up to now is        7.8 secs

     total energy              =    -329.48910616 Ry
     Harris-Foulkes estimate   =    -329.48911230 Ry
     estimated scf accuracy    <       0.00001728 Ry

     iteration #  4     ecut=    30.00 Ry     beta=0.70
     Davidson diagonalization with overlap
     ethr =  3.14E-08,  avg # of iterations =  2.0

     total cpu time spent up to now is        8.1 secs

     total energy              =    -329.48910891 Ry
     Harris-Foulkes estimate   =    -329.48911058 Ry
     estimated scf accuracy    <       0.00000297 Ry

     iteration #  5     ecut=    30.00 Ry     beta=0.70
     Davidson diagonalization with overlap
     ethr =  5.40E-09,  avg # of iterations =  2.0

     total cpu time spent up to now is        8.4 secs

     total energy              =    -329.48910949 Ry
     Harris-Foulkes estimate   =    -329.48910990 Ry
     estimated scf accuracy    <       0.00000108 Ry

     iteration #  6     ecut=    30.00 Ry     beta=0.70
     Davidson diagonalization with overlap
     ethr =  1.97E-09,  avg # of iterations =  2.0

     total cpu time spent up to now is        8.7 secs

     total energy              =    -329.48910955 Ry
     Harris-Foulkes estimate   =    -329.48910971 Ry
     estimated scf accuracy    <       0.00000003 Ry

     iteration #  7     ecut=    30.00 Ry     beta=0.70
     Davidson diagonalization with overlap
     ethr =  5.93E-11,  avg # of iterations =  3.0

     total cpu time spent up to now is        8.9 secs

     total energy              =    -329.48910950 Ry
     Harris-Foulkes estimate   =    -329.48910957 Ry
     estimated scf accuracy    <       0.00000002 Ry

     iteration #  8     ecut=    30.00 Ry     beta=0.70
     Davidson diagonalization with overlap
     ethr =  3.38E-11,  avg # of iterations =  2.0

     total cpu time spent up to now is        9.2 secs

     total energy              =    -329.48910947 Ry
     Harris-Foulkes estimate   =    -329.48910950 Ry
     estimated scf accuracy    <          3.1E-09 Ry

     iteration #  9     ecut=    30.00 Ry     beta=0.70
     Davidson diagonalization with overlap
     ethr =  5.70E-12,  avg # of iterations =  2.0

     total cpu time spent up to now is        9.5 secs

     End of self-consistent calculation

          k = 0.0000 0.0000 0.0000 ( 22119 PWs)   bands (ev):

    -8.4816  -7.7686  -7.7019  -7.1845  -6.8094  -6.7453  -6.5602  -6.5170
    -6.2646  -6.1020  -5.8658  -5.7937  -5.6817  -5.6341  -5.5104  -5.3526
    -5.3037  -5.2668  -5.1967  -5.1787  -5.1617  -5.1119  -5.0158  -4.9718
    -4.8136  -4.7179  -4.5379  -3.7588  -2.4872  -2.2651  -0.5478  -0.1359
     0.4120   0.8693

     the Fermi energy is    -3.7191 ev

!    total energy              =    -329.48910943 Ry
     Harris-Foulkes estimate   =    -329.48910947 Ry
     estimated scf accuracy    <          2.4E-10 Ry

     The total energy is the sum of the following terms:

     one-electron contribution =    -605.26062911 Ry
     hartree contribution      =     324.07166218 Ry
     xc contribution           =     -51.38575026 Ry
     ewald contribution        =       3.09162129 Ry
     smearing contrib. (-TS)   =      -0.00601354 Ry

     convergence has been achieved in   9 iterations

     Forces acting on atoms (Ry/au):

     atom    1 type  1   force =     0.00863768    0.00367679    0.00501306
     atom    2 type  1   force =    -0.00223933    0.00202915    0.00438338
     atom    3 type  1   force =     0.00290865   -0.00964255   -0.00577698
     atom    4 type  1   force =    -0.00014258   -0.00132875   -0.00340358
     atom    5 type  1   force =    -0.00916442    0.00526536   -0.00021589

     Total force =     0.020039     Total SCF correction =     0.000075

     number of scf cycles    =   3
     number of bfgs steps    =   2

     energy   old            =    -329.4883766262 Ry
     energy   new            =    -329.4891094339 Ry

     CASE: energy  _new < energy  _old

     new trust radius        =       0.0285845258 bohr
     new conv_thr            =       0.0000000007 Ry


ATOMIC_POSITIONS (bohr)
Au      -1.625947011   1.773334249  -1.066962314
Au      -0.718204929   3.842608158   3.630352193
Au       3.176773260   1.913975632   0.714545106
Au       4.024616503   3.368464051   5.856834314
Au       7.739730176   1.312046910   2.857944700



     Writing output data file pwscf.save
     Check: negative starting charge=   -0.006410
     NEW-OLD atomic charge density approx. for the potential
     Check: negative starting charge=   -0.006424

     negative rho (up, down):  2.152E-04 0.000E+00

     total cpu time spent up to now is        9.8 secs

     per-process dynamical memory:    50.7 Mb

     Self-consistent Calculation

     iteration #  1     ecut=    30.00 Ry     beta=0.70
     Davidson diagonalization with overlap
     ethr =  1.00E-06,  avg # of iterations =  4.0

     negative rho (up, down):  3.718E-06 0.000E+00

     total cpu time spent up to now is       10.3 secs

     total energy              =    -329.48986746 Ry
     Harris-Foulkes estimate   =    -329.48988109 Ry
     estimated scf accuracy    <       0.00018920 Ry

     iteration #  2     ecut=    30.00 Ry     beta=0.70
     Davidson diagonalization with overlap
     ethr =  3.44E-07,  avg # of iterations =  9.0

     negative rho (up, down):  7.211E-07 0.000E+00

     total cpu time spent up to now is       10.7 secs

     total energy              =    -329.48985536 Ry
     Harris-Foulkes estimate   =    -329.49002523 Ry
     estimated scf accuracy    <       0.00040427 Ry

     iteration #  3     ecut=    30.00 Ry     beta=0.70
     Davidson diagonalization with overlap
     ethr =  3.44E-07,  avg # of iterations =  2.0

     total cpu time spent up to now is       11.0 secs

     total energy              =    -329.48993856 Ry
     Harris-Foulkes estimate   =    -329.48995336 Ry
     estimated scf accuracy    <       0.00004305 Ry

     iteration #  4     ecut=    30.00 Ry     beta=0.70
     Davidson diagonalization with overlap
     ethr =  7.83E-08,  avg # of iterations =  2.0

     total cpu time spent up to now is       11.3 secs

     total energy              =    -329.48994617 Ry
     Harris-Foulkes estimate   =    -329.48994923 Ry
     estimated scf accuracy    <       0.00000641 Ry

     iteration #  5     ecut=    30.00 Ry     beta=0.70
     Davidson diagonalization with overlap
     ethr =  1.17E-08,  avg # of iterations =  2.0

     total cpu time spent up to now is       11.6 secs

     total energy              =    -329.48994715 Ry
     Harris-Foulkes estimate   =    -329.48994835 Ry
     estimated scf accuracy    <       0.00000246 Ry

     iteration #  6     ecut=    30.00 Ry     beta=0.70
     Davidson diagonalization with overlap
     ethr =  4.48E-09,  avg # of iterations =  2.0

     total cpu time spent up to now is       12.0 secs

     total energy              =    -329.48994757 Ry
     Harris-Foulkes estimate   =    -329.48994765 Ry
     estimated scf accuracy    <       0.00000007 Ry

     iteration #  7     ecut=    30.00 Ry     beta=0.70
     Davidson diagonalization with overlap
     ethr =  1.34E-10,  avg # of iterations =  3.0

     total cpu time spent up to now is       12.5 secs

     total energy              =    -329.48994753 Ry
     Harris-Foulkes estimate   =    -329.48994760 Ry
     estimated scf accuracy    <       0.00000004 Ry

     iteration #  8     ecut=    30.00 Ry     beta=0.70
     Davidson diagonalization with overlap
     ethr =  6.91E-11,  avg # of iterations =  2.0

     total cpu time spent up to now is       12.8 secs

     total energy              =    -329.48994758 Ry
     Harris-Foulkes estimate   =    -329.48994755 Ry
     estimated scf accuracy    <          7.7E-09 Ry

     iteration #  9     ecut=    30.00 Ry     beta=0.70
     Davidson diagonalization with overlap
     ethr =  1.39E-11,  avg # of iterations =  2.0

     total cpu time spent up to now is       13.1 secs

     End of self-consistent calculation

          k = 0.0000 0.0000 0.0000 ( 22119 PWs)   bands (ev):

    -8.5008  -7.7843  -7.6832  -7.1959  -6.8230  -6.7655  -6.5733  -6.5163
    -6.2702  -6.1082  -5.8885  -5.7950  -5.6969  -5.6436  -5.5056  -5.3520
    -5.2988  -5.2690  -5.1973  -5.1820  -5.1621  -5.1129  -5.0078  -4.9672
    -4.8138  -4.7193  -4.5286  -3.7563  -2.4747  -2.2588  -0.5487  -0.1441
     0.4202   0.8728

     the Fermi energy is    -3.7170 ev

!    total energy              =    -329.48994752 Ry
     Harris-Foulkes estimate   =    -329.48994758 Ry
     estimated scf accuracy    <          5.4E-10 Ry

     The total energy is the sum of the following terms:

     one-electron contribution =    -606.26149321 Ry
     hartree contribution      =     324.56677340 Ry
     xc contribution           =     -51.38961666 Ry
     ewald contribution        =       3.60030624 Ry
     smearing contrib. (-TS)   =      -0.00591729 Ry

     convergence has been achieved in   9 iterations

     Forces acting on atoms (Ry/au):

     atom    1 type  1   force =     0.00620208    0.00304786    0.00355600
     atom    2 type  1   force =    -0.00069515    0.00135909    0.00366801
     atom    3 type  1   force =     0.00044061   -0.00770310   -0.00518305
     atom    4 type  1   force =    -0.00171297   -0.00058421   -0.00215162
     atom    5 type  1   force =    -0.00423456    0.00388036    0.00011065

     Total force =     0.014265     Total SCF correction =     0.000112

     number of scf cycles    =   4
     number of bfgs steps    =   3

     energy   old            =    -329.4891094339 Ry
     energy   new            =    -329.4899475165 Ry

     CASE: energy  _new < energy  _old

     new trust radius        =       0.0428767887 bohr
     new conv_thr            =       0.0000000008 Ry


ATOMIC_POSITIONS (bohr)
Au      -1.595374589   1.787116810  -1.049171658
Au      -0.725421896   3.849865993   3.646806272
Au       3.186089858   1.878343693   0.692590950
Au       4.022363904   3.364078324   5.844978096
Au       7.709310723   1.331024180   2.857510339



     Writing output data file pwscf.save
     Check: negative starting charge=   -0.006424
     NEW-OLD atomic charge density approx. for the potential
     Check: negative starting charge=   -0.006443

     negative rho (up, down):  4.729E-04 0.000E+00

     total cpu time spent up to now is       13.5 secs

     per-process dynamical memory:    50.7 Mb

     Self-consistent Calculation

     iteration #  1     ecut=    30.00 Ry     beta=0.70
     Davidson diagonalization with overlap
     ethr =  1.00E-06,  avg # of iterations =  5.0

     negative rho (up, down):  1.710E-05 0.000E+00

     total cpu time spent up to now is       14.0 secs

     total energy              =    -329.49050402 Ry
     Harris-Foulkes estimate   =    -329.49041559 Ry
     estimated scf accuracy    <       0.00038366 Ry

     iteration #  2     ecut=    30.00 Ry     beta=0.70
     Davidson diagonalization with overlap
     ethr =  6.98E-07,  avg # of iterations =  4.0

     negative rho (up, down):  4.362E-06 0.000E+00

     total cpu time spent up to now is       14.4 secs

     total energy              =    -329.49049124 Ry
     Harris-Foulkes estimate   =    -329.49080544 Ry
     estimated scf accuracy    <       0.00072904 Ry

     iteration #  3     ecut=    30.00 Ry     beta=0.70
     Davidson diagonalization with overlap
     ethr =  6.98E-07,  avg # of iterations =  2.0

     negative rho (up, down):  9.646E-08 0.000E+00

     total cpu time spent up to now is       14.7 secs

     total energy              =    -329.49064417 Ry
     Harris-Foulkes estimate   =    -329.49067726 Ry
     estimated scf accuracy    <       0.00009630 Ry

     iteration #  4     ecut=    30.00 Ry     beta=0.70
     Davidson diagonalization with overlap
     ethr =  1.75E-07,  avg # of iterations =  2.0

     total cpu time spent up to now is       15.0 secs

     total energy              =    -329.49066264 Ry
     Harris-Foulkes estimate   =    -329.49066742 Ry
     estimated scf accuracy    <       0.00001255 Ry

     iteration #  5     ecut=    30.00 Ry     beta=0.70
     Davidson diagonalization with overlap
     ethr =  2.28E-08,  avg # of iterations =  2.0

     total cpu time spent up to now is       15.3 secs

     total energy              =    -329.49066495 Ry
     Harris-Foulkes estimate   =    -329.49066694 Ry
     estimated scf accuracy    <       0.00000496 Ry

     iteration #  6     ecut=    30.00 Ry     beta=0.70
     Davidson diagonalization with overlap
     ethr =  9.02E-09,  avg # of iterations =  2.0

     total cpu time spent up to now is       15.6 secs

     total energy              =    -329.49066571 Ry
     Harris-Foulkes estimate   =    -329.49066595 Ry
     estimated scf accuracy    <       0.00000014 Ry

     iteration #  7     ecut=    30.00 Ry     beta=0.70
     Davidson diagonalization with overlap
     ethr =  2.49E-10,  avg # of iterations =  3.0

     total cpu time spent up to now is       15.9 secs

     total energy              =    -329.49066570 Ry
     Harris-Foulkes estimate   =    -329.49066578 Ry
     estimated scf accuracy    <       0.00000007 Ry

     iteration #  8     ecut=    30.00 Ry     beta=0.70
     Davidson diagonalization with overlap
     ethr =  1.23E-10,  avg # of iterations =  2.0

     total cpu time spent up to now is       16.1 secs

     total energy              =    -329.49066567 Ry
     Harris-Foulkes estimate   =    -329.49066572 Ry
     estimated scf accuracy    <       0.00000002 Ry

     iteration #  9     ecut=    30.00 Ry     beta=0.70
     Davidson diagonalization with overlap
     ethr =  3.24E-11,  avg # of iterations =  2.0

     total cpu time spent up to now is       16.4 secs

     total energy              =    -329.49066569 Ry
     Harris-Foulkes estimate   =    -329.49066568 Ry
     estimated scf accuracy    <          1.0E-09 Ry

     iteration # 10     ecut=    30.00 Ry     beta=0.70
     Davidson diagonalization with overlap
     ethr =  1.86E-12,  avg # of iterations =  3.0

     total cpu time spent up to now is       16.7 secs

     End of self-consistent calculation

          k = 0.0000 0.0000 0.0000 ( 22119 PWs)   bands (ev):

    -8.5277  -7.8033  -7.6614  -7.2116  -6.8425  -6.7932  -6.5991  -6.5068
    -6.2769  -6.1136  -5.9182  -5.7976  -5.7181  -5.6557  -5.4936  -5.3528
    -5.2936  -5.2695  -5.1982  -5.1858  -5.1634  -5.1146  -4.9954  -4.9600
    -4.8203  -4.7168  -4.5142  -3.7552  -2.4574  -2.2492  -0.5499  -0.1564
     0.4327   0.8773

     the Fermi energy is    -3.7169 ev

!    total energy              =    -329.49066568 Ry
     Harris-Foulkes estimate   =    -329.49066569 Ry
     estimated scf accuracy    <          2.6E-10 Ry

     The total energy is the sum of the following terms:

     one-electron contribution =    -607.59609758 Ry
     hartree contribution      =     325.22746383 Ry
     xc contribution           =     -51.39528224 Ry
     ewald contribution        =       4.27893611 Ry
     smearing contrib. (-TS)   =      -0.00568580 Ry

     convergence has been achieved in  10 iterations

     Forces acting on atoms (Ry/au):

     atom    1 type  1   force =     0.00268750    0.00268133    0.00157233
     atom    2 type  1   force =     0.00094862    0.00053284    0.00270885
     atom    3 type  1   force =    -0.00178309   -0.00552957   -0.00421001
     atom    4 type  1   force =    -0.00368951    0.00033913   -0.00048384
     atom    5 type  1   force =     0.00183649    0.00197626    0.00041267

     Total force =     0.009914     Total SCF correction =     0.000080

     number of scf cycles    =   5
     number of bfgs steps    =   4

     energy   old            =    -329.4899475165 Ry
     energy   new            =    -329.4906656756 Ry

     CASE: energy  _new < energy  _old

     new trust radius        =       0.0439767950 bohr
     new conv_thr            =       0.0000000006 Ry


ATOMIC_POSITIONS (bohr)
Au      -1.567270831   1.802237644  -1.032725040
Au      -0.730087051   3.856504592   3.663920770
Au       3.191688504   1.841643480   0.669017489
Au       4.015347232   3.361008417   5.834786864
Au       7.687290146   1.349034868   2.857713916



     Writing output data file pwscf.save
     Check: negative starting charge=   -0.006443
     NEW-OLD atomic charge density approx. for the potential
     Check: negative starting charge=   -0.006455

     negative rho (up, down):  4.356E-04 0.000E+00

     total cpu time spent up to now is       17.0 secs

     per-process dynamical memory:    50.7 Mb

     Self-consistent Calculation

     iteration #  1     ecut=    30.00 Ry     beta=0.70
     Davidson diagonalization with overlap
     ethr =  1.00E-06,  avg # of iterations =  5.0

     negative rho (up, down):  1.503E-05 0.000E+00

     total cpu time spent up to now is       17.6 secs

     total energy              =    -329.49085166 Ry
     Harris-Foulkes estimate   =    -329.49077834 Ry
     estimated scf accuracy    <       0.00033979 Ry

     iteration #  2     ecut=    30.00 Ry     beta=0.70
     Davidson diagonalization with overlap
     ethr =  6.18E-07,  avg # of iterations =  9.0

     negative rho (up, down):  3.269E-06 0.000E+00

     total cpu time spent up to now is       17.9 secs

     total energy              =    -329.49085552 Ry
     Harris-Foulkes estimate   =    -329.49109038 Ry
     estimated scf accuracy    <       0.00052206 Ry

     iteration #  3     ecut=    30.00 Ry     beta=0.70
     Davidson diagonalization with overlap
     ethr =  6.18E-07,  avg # of iterations =  2.0

     negative rho (up, down):  7.855E-08 0.000E+00

     total cpu time spent up to now is       18.2 secs

     total energy              =    -329.49096683 Ry
     Harris-Foulkes estimate   =    -329.49100111 Ry
     estimated scf accuracy    <       0.00009616 Ry

     iteration #  4     ecut=    30.00 Ry     beta=0.70
     Davidson diagonalization with overlap
     ethr =  1.75E-07,  avg # of iterations =  2.0

     total cpu time spent up to now is       18.5 secs

     total energy              =    -329.49098539 Ry
     Harris-Foulkes estimate   =    -329.49098947 Ry
     estimated scf accuracy    <       0.00001079 Ry

     iteration #  5     ecut=    30.00 Ry     beta=0.70
     Davidson diagonalization with overlap
     ethr =  1.96E-08,  avg # of iterations =  3.0

     total cpu time spent up to now is       18.8 secs

     total energy              =    -329.49098729 Ry
     Harris-Foulkes estimate   =    -329.49098896 Ry
     estimated scf accuracy    <       0.00000392 Ry

     iteration #  6     ecut=    30.00 Ry     beta=0.70
     Davidson diagonalization with overlap
     ethr =  7.12E-09,  avg # of iterations =  2.0

     total cpu time spent up to now is       19.1 secs

     total energy              =    -329.49098770 Ry
     Harris-Foulkes estimate   =    -329.49098809 Ry
     estimated scf accuracy    <       0.00000011 Ry

     iteration #  7     ecut=    30.00 Ry     beta=0.70
     Davidson diagonalization with overlap
     ethr =  1.93E-10,  avg # of iterations =  3.0

     total cpu time spent up to now is       19.6 secs

     total energy              =    -329.49098742 Ry
     Harris-Foulkes estimate   =    -329.49098775 Ry
     estimated scf accuracy    <       0.00000002 Ry

     iteration #  8     ecut=    30.00 Ry     beta=0.70
     Davidson diagonalization with overlap
     ethr =  3.69E-11,  avg # of iterations =  2.0

     total cpu time spent up to now is       20.0 secs

     total energy              =    -329.49098735 Ry
     Harris-Foulkes estimate   =    -329.49098743 Ry
     estimated scf accuracy    <          7.9E-09 Ry

     iteration #  9     ecut=    30.00 Ry     beta=0.70
     Davidson diagonalization with overlap
     ethr =  1.44E-11,  avg # of iterations =  2.0

     total cpu time spent up to now is       20.3 secs

     total energy              =    -329.49098736 Ry
     Harris-Foulkes estimate   =    -329.49098735 Ry
     estimated scf accuracy    <          1.9E-09 Ry

     iteration # 10     ecut=    30.00 Ry     beta=0.70
     Davidson diagonalization with overlap
     ethr =  3.52E-12,  avg # of iterations =  2.0

     total cpu time spent up to now is       20.7 secs

     End of self-consistent calculation

          k = 0.0000 0.0000 0.0000 ( 22119 PWs)   bands (ev):

    -8.5472  -7.8138  -7.6474  -7.2213  -6.8575  -6.8192  -6.6196  -6.4968
    -6.2815  -6.1139  -5.9414  -5.7991  -5.7369  -5.6650  -5.4765  -5.3557
    -5.2943  -5.2641  -5.1995  -5.1875  -5.1654  -5.1171  -4.9837  -4.9522
    -4.8304  -4.7128  -4.4996  -3.7580  -2.4430  -2.2395  -0.5505  -0.1688
     0.4453   0.8795

     the Fermi energy is    -3.7212 ev

!    total energy              =    -329.49098735 Ry
     Harris-Foulkes estimate   =    -329.49098736 Ry
     estimated scf accuracy    <          2.2E-10 Ry

     The total energy is the sum of the following terms:

     one-electron contribution =    -608.61064951 Ry
     hartree contribution      =     325.73100125 Ry
     xc contribution           =     -51.40026388 Ry
     ewald contribution        =       4.79425287 Ry
     smearing contrib. (-TS)   =      -0.00532808 Ry

     convergence has been achieved in  10 iterations

     Forces acting on atoms (Ry/au):

     atom    1 type  1   force =    -0.00064838    0.00272111   -0.00024205
     atom    2 type  1   force =     0.00182941   -0.00000885    0.00168764
     atom    3 type  1   force =    -0.00203212   -0.00419403   -0.00254088
     atom    4 type  1   force =    -0.00486416    0.00094773    0.00060350
     atom    5 type  1   force =     0.00571525    0.00053404    0.00049179

     Total force =     0.010018     Total SCF correction =     0.000074

     number of scf cycles    =   6
     number of bfgs steps    =   5

     energy   old            =    -329.4906656756 Ry
     energy   new            =    -329.4909873507 Ry

     CASE: energy  _new < energy  _old

     new trust radius        =       0.0272255221 bohr
     new conv_thr            =       0.0000000003 Ry


ATOMIC_POSITIONS (bohr)
Au      -1.554426124   1.813020450  -1.024988852
Au      -0.730507847   3.859831347   3.674266393
Au       3.192849363   1.818501968   0.654722320
Au       4.006428792   3.360531719   5.830389412
Au       7.682623816   1.358543517   2.858324728



     Writing output data file pwscf.save
     Check: negative starting charge=   -0.006455
     NEW-OLD atomic charge density approx. for the potential
     Check: negative starting charge=   -0.006458

     negative rho (up, down):  1.207E-04 0.000E+00

     total cpu time spent up to now is       21.1 secs

     per-process dynamical memory:    50.7 Mb

     Self-consistent Calculation

     iteration #  1     ecut=    30.00 Ry     beta=0.70
     Davidson diagonalization with overlap
     ethr =  1.00E-06,  avg # of iterations =  4.0

     negative rho (up, down):  1.145E-06 0.000E+00

     total cpu time spent up to now is       21.7 secs

     total energy              =    -329.49109534 Ry
     Harris-Foulkes estimate   =    -329.49111128 Ry
     estimated scf accuracy    <       0.00010893 Ry

     iteration #  2     ecut=    30.00 Ry     beta=0.70
     Davidson diagonalization with overlap
     ethr =  1.98E-07,  avg # of iterations =  2.0

     negative rho (up, down):  8.821E-08 0.000E+00

     total cpu time spent up to now is       21.9 secs

     total energy              =    -329.49110289 Ry
     Harris-Foulkes estimate   =    -329.49116175 Ry
     estimated scf accuracy    <       0.00012262 Ry

     iteration #  3     ecut=    30.00 Ry     beta=0.70
     Davidson diagonalization with overlap
     ethr =  1.98E-07,  avg # of iterations =  2.0

     total cpu time spent up to now is       22.2 secs

     total energy              =    -329.49112770 Ry
     Harris-Foulkes estimate   =    -329.49114030 Ry
     estimated scf accuracy    <       0.00003160 Ry

     iteration #  4     ecut=    30.00 Ry     beta=0.70
     Davidson diagonalization with overlap
     ethr =  5.75E-08,  avg # of iterations =  2.0

     total cpu time spent up to now is       22.6 secs

     total energy              =    -329.49113320 Ry
     Harris-Foulkes estimate   =    -329.49113554 Ry
     estimated scf accuracy    <       0.00000381 Ry

     iteration #  5     ecut=    30.00 Ry     beta=0.70
     Davidson diagonalization with overlap
     ethr =  6.93E-09,  avg # of iterations =  2.0

     total cpu time spent up to now is       22.9 secs

     total energy              =    -329.49113351 Ry
     Harris-Foulkes estimate   =    -329.49113422 Ry
     estimated scf accuracy    <       0.00000085 Ry

     iteration #  6     ecut=    30.00 Ry     beta=0.70
     Davidson diagonalization with overlap
     ethr =  1.54E-09,  avg # of iterations =  2.0

     total cpu time spent up to now is       23.2 secs

     total energy              =    -329.49113360 Ry
     Harris-Foulkes estimate   =    -329.49113369 Ry
     estimated scf accuracy    <       0.00000005 Ry

     iteration #  7     ecut=    30.00 Ry     beta=0.70
     Davidson diagonalization with overlap
     ethr =  8.20E-11,  avg # of iterations =  2.0

     total cpu time spent up to now is       23.4 secs

     total energy              =    -329.49113359 Ry
     Harris-Foulkes estimate   =    -329.49113361 Ry
     estimated scf accuracy    <       0.00000002 Ry

     iteration #  8     ecut=    30.00 Ry     beta=0.70
     Davidson diagonalization with overlap
     ethr =  2.95E-11,  avg # of iterations =  2.0

     total cpu time spent up to now is       23.7 secs

     total energy              =    -329.49113359 Ry
     Harris-Foulkes estimate   =    -329.49113360 Ry
     estimated scf accuracy    <          5.8E-09 Ry

     iteration #  9     ecut=    30.00 Ry     beta=0.70
     Davidson diagonalization with overlap
     ethr =  1.06E-11,  avg # of iterations =  2.0

     total cpu time spent up to now is       23.9 secs

     End of self-consistent calculation

          k = 0.0000 0.0000 0.0000 ( 22119 PWs)   bands (ev):

    -8.5491  -7.8108  -7.6432  -7.2216  -6.8604  -6.8327  -6.6235  -6.4899
    -6.2839  -6.1096  -5.9492  -5.7974  -5.7452  -5.6686  -5.4645  -5.3589
    -5.2977  -5.2590  -5.2011  -5.1864  -5.1672  -5.1190  -4.9787  -4.9471
    -4.8357  -4.7128  -4.4915  -3.7630  -2.4385  -2.2338  -0.5502  -0.1762
     0.4523   0.8807

     the Fermi energy is    -3.7275 ev

!    total energy              =    -329.49113362 Ry
     Harris-Foulkes estimate   =    -329.49113360 Ry
     estimated scf accuracy    <          3.0E-10 Ry

     The total energy is the sum of the following terms:

     one-electron contribution =    -608.84823170 Ry
     hartree contribution      =     325.85027716 Ry
     xc contribution           =     -51.40191279 Ry
     ewald contribution        =       4.91375867 Ry
     smearing contrib. (-TS)   =      -0.00502496 Ry

     convergence has been achieved in   9 iterations

     Forces acting on atoms (Ry/au):

     atom    1 type  1   force =    -0.00244089    0.00290148   -0.00111861
     atom    2 type  1   force =     0.00184007   -0.00020289    0.00086036
     atom    3 type  1   force =    -0.00089496   -0.00380107   -0.00086637
     atom    4 type  1   force =    -0.00453030    0.00087212    0.00059387
     atom    5 type  1   force =     0.00602608    0.00023036    0.00053075

     Total force =     0.009699     Total SCF correction =     0.000074

     number of scf cycles    =   7
     number of bfgs steps    =   6

     energy   old            =    -329.4909873507 Ry
     energy   new            =    -329.4911336197 Ry

     CASE: energy  _new < energy  _old

     new trust radius        =       0.0299480743 bohr
     new conv_thr            =       0.0000000001 Ry


ATOMIC_POSITIONS (bohr)
Au      -1.545324162   1.826686762  -1.019030971
Au      -0.728996825   3.862780573   3.684904404
Au       3.193620374   1.792099962   0.640607549
Au       3.993118549   3.360946634   5.826728765
Au       7.684550064   1.367915070   2.859504253



     Writing output data file pwscf.save
     Check: negative starting charge=   -0.006458
     NEW-OLD atomic charge density approx. for the potential
     Check: negative starting charge=   -0.006456

     negative rho (up, down):  1.464E-04 0.000E+00

     total cpu time spent up to now is       24.4 secs

     per-process dynamical memory:    50.7 Mb

     Self-consistent Calculation

     iteration #  1     ecut=    30.00 Ry     beta=0.70
     Davidson diagonalization with overlap
     ethr =  1.00E-06,  avg # of iterations =  4.0

     negative rho (up, down):  1.643E-06 0.000E+00

     total cpu time spent up to now is       24.9 secs

     total energy              =    -329.49125567 Ry
     Harris-Foulkes estimate   =    -329.49127666 Ry
     estimated scf accuracy    <       0.00013286 Ry

     iteration #  2     ecut=    30.00 Ry     beta=0.70
     Davidson diagonalization with overlap
     ethr =  2.42E-07,  avg # of iterations =  2.0

     negative rho (up, down):  1.038E-07 0.000E+00

     total cpu time spent up to now is       25.1 secs

     total energy              =    -329.49126908 Ry
     Harris-Foulkes estimate   =    -329.49133405 Ry
     estimated scf accuracy    <       0.00013377 Ry

     iteration #  3     ecut=    30.00 Ry     beta=0.70
     Davidson diagonalization with overlap
     ethr =  2.42E-07,  avg # of iterations =  2.0

     total cpu time spent up to now is       25.4 secs

     total energy              =    -329.49129416 Ry
     Harris-Foulkes estimate   =    -329.49131006 Ry
     estimated scf accuracy    <       0.00003737 Ry

     iteration #  4     ecut=    30.00 Ry     beta=0.70
     Davidson diagonalization with overlap
     ethr =  6.79E-08,  avg # of iterations =  2.0

     total cpu time spent up to now is       25.7 secs

     total energy              =    -329.49130130 Ry
     Harris-Foulkes estimate   =    -329.49130392 Ry
     estimated scf accuracy    <       0.00000517 Ry

     iteration #  5     ecut=    30.00 Ry     beta=0.70
     Davidson diagonalization with overlap
     ethr =  9.40E-09,  avg # of iterations =  2.0

     total cpu time spent up to now is       26.0 secs

     total energy              =    -329.49130181 Ry
     Harris-Foulkes estimate   =    -329.49130238 Ry
     estimated scf accuracy    <       0.00000053 Ry

     iteration #  6     ecut=    30.00 Ry     beta=0.70
     Davidson diagonalization with overlap
     ethr =  9.65E-10,  avg # of iterations =  2.0

     total cpu time spent up to now is       26.4 secs

     total energy              =    -329.49130168 Ry
     Harris-Foulkes estimate   =    -329.49130196 Ry
     estimated scf accuracy    <       0.00000005 Ry

     iteration #  7     ecut=    30.00 Ry     beta=0.70
     Davidson diagonalization with overlap
     ethr =  9.79E-11,  avg # of iterations =  2.0

     total cpu time spent up to now is       26.8 secs

     total energy              =    -329.49130161 Ry
     Harris-Foulkes estimate   =    -329.49130170 Ry
     estimated scf accuracy    <       0.00000001 Ry

     iteration #  8     ecut=    30.00 Ry     beta=0.70
     Davidson diagonalization with overlap
     ethr =  2.68E-11,  avg # of iterations =  2.0

     total cpu time spent up to now is       27.1 secs

     total energy              =    -329.49130162 Ry
     Harris-Foulkes estimate   =    -329.49130161 Ry
     estimated scf accuracy    <          4.5E-09 Ry

     iteration #  9     ecut=    30.00 Ry     beta=0.70
     Davidson diagonalization with overlap
     ethr =  8.23E-12,  avg # of iterations =  2.0

     total cpu time spent up to now is       27.5 secs

     total energy              =    -329.49130160 Ry
     Harris-Foulkes estimate   =    -329.49130163 Ry
     estimated scf accuracy    <          3.8E-10 Ry

     iteration # 10     ecut=    30.00 Ry     beta=0.70
     Davidson diagonalization with overlap
     ethr =  6.89E-13,  avg # of iterations =  2.0

     total cpu time spent up to now is       27.8 secs

     End of self-consistent calculation

          k = 0.0000 0.0000 0.0000 ( 22119 PWs)   bands (ev):

    -8.5424  -7.8001  -7.6417  -7.2184  -6.8616  -6.8414  -6.6208  -6.4815
    -6.2871  -6.1011  -5.9525  -5.7932  -5.7504  -5.6709  -5.4516  -5.3632
    -5.3028  -5.2529  -5.2034  -5.1837  -5.1695  -5.1212  -4.9759  -4.9412
    -4.8395  -4.7156  -4.4831  -3.7707  -2.4378  -2.2274  -0.5494  -0.1838
     0.4590   0.8818

     the Fermi energy is    -3.7369 ev

!    total energy              =    -329.49130159 Ry
     Harris-Foulkes estimate   =    -329.49130160 Ry
     estimated scf accuracy    <          4.7E-11 Ry

     The total energy is the sum of the following terms:

     one-electron contribution =    -608.79330117 Ry
     hartree contribution      =     325.82558741 Ry
     xc contribution           =     -51.40252872 Ry
     ewald contribution        =       4.88356570 Ry
     smearing contrib. (-TS)   =      -0.00462480 Ry

     convergence has been achieved in  10 iterations

     Forces acting on atoms (Ry/au):

     atom    1 type  1   force =    -0.00391282    0.00321728   -0.00172378
     atom    2 type  1   force =     0.00138804   -0.00035864   -0.00024679
     atom    3 type  1   force =     0.00070664   -0.00362838    0.00117421
     atom    4 type  1   force =    -0.00316621    0.00047114    0.00015890
     atom    5 type  1   force =     0.00498434    0.00029860    0.00063746

     Total force =     0.009022     Total SCF correction =     0.000036

     number of scf cycles    =   8
     number of bfgs steps    =   7

     energy   old            =    -329.4911336197 Ry
     energy   new            =    -329.4913015865 Ry

     CASE: energy  _new < energy  _old

     new trust radius        =       0.0449221114 bohr
     new conv_thr            =       0.0000000002 Ry


ATOMIC_POSITIONS (bohr)
Au      -1.539042633   1.850254685  -1.013579531
Au      -0.724880906   3.866190914   3.698819698
Au       3.195688276   1.750671039   0.623363297
Au       3.970455051   3.362164486   5.821944276
Au       7.694748212   1.381147876   2.862166259



     Writing output data file pwscf.save
     Check: negative starting charge=   -0.006456
     NEW-OLD atomic charge density approx. for the potential
     Check: negative starting charge=   -0.006452

     negative rho (up, down):  3.819E-04 0.000E+00

     total cpu time spent up to now is       28.1 secs

     per-process dynamical memory:    50.7 Mb

     Self-consistent Calculation

     iteration #  1     ecut=    30.00 Ry     beta=0.70
     Davidson diagonalization with overlap
     ethr =  1.00E-06,  avg # of iterations =  4.0

     negative rho (up, down):  1.092E-05 0.000E+00

     total cpu time spent up to now is       28.8 secs

     total energy              =    -329.49139261 Ry
     Harris-Foulkes estimate   =    -329.49138303 Ry
     estimated scf accuracy    <       0.00032742 Ry

     iteration #  2     ecut=    30.00 Ry     beta=0.70
     Davidson diagonalization with overlap
     ethr =  5.95E-07,  avg # of iterations =  8.0

     negative rho (up, down):  1.376E-06 0.000E+00

     total cpu time spent up to now is       29.2 secs

     total energy              =    -329.49143284 Ry
     Harris-Foulkes estimate   =    -329.49158727 Ry
     estimated scf accuracy    <       0.00032223 Ry

     iteration #  3     ecut=    30.00 Ry     beta=0.70
     Davidson diagonalization with overlap
     ethr =  5.86E-07,  avg # of iterations =  2.0

     negative rho (up, down):  4.225E-08 0.000E+00

     total cpu time spent up to now is       29.4 secs

     total energy              =    -329.49149430 Ry
     Harris-Foulkes estimate   =    -329.49152943 Ry
     estimated scf accuracy    <       0.00008886 Ry

     iteration #  4     ecut=    30.00 Ry     beta=0.70
     Davidson diagonalization with overlap
     ethr =  1.62E-07,  avg # of iterations =  2.0

     total cpu time spent up to now is       29.7 secs

     total energy              =    -329.49151278 Ry
     Harris-Foulkes estimate   =    -329.49151790 Ry
     estimated scf accuracy    <       0.00001279 Ry

     iteration #  5     ecut=    30.00 Ry     beta=0.70
     Davidson diagonalization with overlap
     ethr =  2.33E-08,  avg # of iterations =  2.0

     total cpu time spent up to now is       29.9 secs

     total energy              =    -329.49151461 Ry
     Harris-Foulkes estimate   =    -329.49151529 Ry
     estimated scf accuracy    <       0.00000075 Ry

     iteration #  6     ecut=    30.00 Ry     beta=0.70
     Davidson diagonalization with overlap
     ethr =  1.37E-09,  avg # of iterations =  2.0

     total cpu time spent up to now is       30.3 secs

     total energy              =    -329.49151453 Ry
     Harris-Foulkes estimate   =    -329.49151482 Ry
     estimated scf accuracy    <       0.00000006 Ry

     iteration #  7     ecut=    30.00 Ry     beta=0.70
     Davidson diagonalization with overlap
     ethr =  1.16E-10,  avg # of iterations =  3.0

     total cpu time spent up to now is       30.6 secs

     total energy              =    -329.49151439 Ry
     Harris-Foulkes estimate   =    -329.49151457 Ry
     estimated scf accuracy    <       0.00000004 Ry

     iteration #  8     ecut=    30.00 Ry     beta=0.70
     Davidson diagonalization with overlap
     ethr =  7.74E-11,  avg # of iterations =  2.0

     total cpu time spent up to now is       30.9 secs

     total energy              =    -329.49151445 Ry
     Harris-Foulkes estimate   =    -329.49151440 Ry
     estimated scf accuracy    <          6.1E-09 Ry

     iteration #  9     ecut=    30.00 Ry     beta=0.70
     Davidson diagonalization with overlap
     ethr =  1.12E-11,  avg # of iterations =  3.0

     total cpu time spent up to now is       31.3 secs

     total energy              =    -329.49151442 Ry
     Harris-Foulkes estimate   =    -329.49151445 Ry
     estimated scf accuracy    <          1.4E-09 Ry

     iteration # 10     ecut=    30.00 Ry     beta=0.70
     Davidson diagonalization with overlap
     ethr =  2.58E-12,  avg # of iterations =  2.0

     total cpu time spent up to now is       31.7 secs

     total energy              =    -329.49151442 Ry
     Harris-Foulkes estimate   =    -329.49151442 Ry
     estimated scf accuracy    <          2.2E-10 Ry

     iteration # 11     ecut=    30.00 Ry     beta=0.70
     Davidson diagonalization with overlap
     ethr =  4.02E-13,  avg # of iterations =  2.0

     total cpu time spent up to now is       32.0 secs

     End of self-consistent calculation

          k = 0.0000 0.0000 0.0000 ( 22119 PWs)   bands (ev):

    -8.5224  -7.7771  -7.6421  -7.2118  -6.8726  -6.8347  -6.6107  -6.4683
    -6.2934  -6.0845  -5.9520  -5.7852  -5.7503  -5.6729  -5.4338  -5.3701
    -5.3113  -5.2435  -5.2069  -5.1787  -5.1721  -5.1241  -4.9758  -4.9312
    -4.8419  -4.7229  -4.4713  -3.7837  -2.4422  -2.2172  -0.5479  -0.1940
     0.4676   0.8802

     the Fermi energy is    -3.7529 ev

!    total energy              =    -329.49151442 Ry
     Harris-Foulkes estimate   =    -329.49151442 Ry
     estimated scf accuracy    <          1.1E-11 Ry

     The total energy is the sum of the following terms:

     one-electron contribution =    -608.37994007 Ry
     hartree contribution      =     325.62555294 Ry
     xc contribution           =     -51.40230011 Ry
     ewald contribution        =       4.66911660 Ry
     smearing contrib. (-TS)   =      -0.00394378 Ry

     convergence has been achieved in  11 iterations

     Forces acting on atoms (Ry/au):

     atom    1 type  1   force =    -0.00512323    0.00361095   -0.00206570
     atom    2 type  1   force =     0.00009085   -0.00059556   -0.00207008
     atom    3 type  1   force =     0.00253848   -0.00327536    0.00397205
     atom    4 type  1   force =     0.00021641   -0.00031385   -0.00074972
     atom    5 type  1   force =     0.00227749    0.00057382    0.00091345

     Total force =     0.009392     Total SCF correction =     0.000016

     number of scf cycles    =   9
     number of bfgs steps    =   8

     energy   old            =    -329.4913015865 Ry
     energy   new            =    -329.4915144229 Ry

     CASE: energy  _new < energy  _old

     new trust radius        =       0.0321237392 bohr
     new conv_thr            =       0.0000000002 Ry


ATOMIC_POSITIONS (bohr)
Au      -1.543760932   1.871052581  -1.013854137
Au      -0.720795732   3.867147516   3.704946991
Au       3.198508965   1.719242539   0.617344348
Au       3.953882751   3.363261303   5.818799072
Au       7.709132949   1.389725061   2.865477727



     Writing output data file pwscf.save
     Check: negative starting charge=   -0.006452
     NEW-OLD atomic charge density approx. for the potential
     Check: negative starting charge=   -0.006446

     negative rho (up, down):  2.078E-04 0.000E+00

     total cpu time spent up to now is       32.4 secs

     per-process dynamical memory:    50.7 Mb

     Self-consistent Calculation

     iteration #  1     ecut=    30.00 Ry     beta=0.70
     Davidson diagonalization with overlap
     ethr =  1.00E-06,  avg # of iterations =  4.0

     negative rho (up, down):  3.171E-06 0.000E+00

     total cpu time spent up to now is       33.1 secs

     total energy              =    -329.49158705 Ry
     Harris-Foulkes estimate   =    -329.49163120 Ry
     estimated scf accuracy    <       0.00020326 Ry

     iteration #  2     ecut=    30.00 Ry     beta=0.70
     Davidson diagonalization with overlap
     ethr =  3.70E-07,  avg # of iterations =  3.0

     negative rho (up, down):  2.610E-07 0.000E+00

     total cpu time spent up to now is       33.4 secs

     total energy              =    -329.49161546 Ry
     Harris-Foulkes estimate   =    -329.49170767 Ry
     estimated scf accuracy    <       0.00019351 Ry

     iteration #  3     ecut=    30.00 Ry     beta=0.70
     Davidson diagonalization with overlap
     ethr =  3.52E-07,  avg # of iterations =  2.0

     total cpu time spent up to now is       33.6 secs

     total energy              =    -329.49165154 Ry
     Harris-Foulkes estimate   =    -329.49167087 Ry
     estimated scf accuracy    <       0.00004684 Ry

     iteration #  4     ecut=    30.00 Ry     beta=0.70
     Davidson diagonalization with overlap
     ethr =  8.52E-08,  avg # of iterations =  2.0

     total cpu time spent up to now is       33.8 secs

     total energy              =    -329.49166176 Ry
     Harris-Foulkes estimate   =    -329.49166507 Ry
     estimated scf accuracy    <       0.00000892 Ry

     iteration #  5     ecut=    30.00 Ry     beta=0.70
     Davidson diagonalization with overlap
     ethr =  1.62E-08,  avg # of iterations =  2.0

     total cpu time spent up to now is       34.2 secs

     total energy              =    -329.49166304 Ry
     Harris-Foulkes estimate   =    -329.49166336 Ry
     estimated scf accuracy    <       0.00000039 Ry

     iteration #  6     ecut=    30.00 Ry     beta=0.70
     Davidson diagonalization with overlap
     ethr =  7.02E-10,  avg # of iterations =  3.0

     total cpu time spent up to now is       34.5 secs

     total energy              =    -329.49166322 Ry
     Harris-Foulkes estimate   =    -329.49166318 Ry
     estimated scf accuracy    <       0.00000007 Ry

     iteration #  7     ecut=    30.00 Ry     beta=0.70
     Davidson diagonalization with overlap
     ethr =  1.21E-10,  avg # of iterations =  3.0

     total cpu time spent up to now is       34.9 secs

     total energy              =    -329.49166326 Ry
     Harris-Foulkes estimate   =    -329.49166325 Ry
     estimated scf accuracy    <       0.00000003 Ry

     iteration #  8     ecut=    30.00 Ry     beta=0.70
     Davidson diagonalization with overlap
     ethr =  5.89E-11,  avg # of iterations =  2.0

     total cpu time spent up to now is       35.2 secs

     total energy              =    -329.49166323 Ry
     Harris-Foulkes estimate   =    -329.49166327 Ry
     estimated scf accuracy    <          3.2E-09 Ry

     iteration #  9     ecut=    30.00 Ry     beta=0.70
     Davidson diagonalization with overlap
     ethr =  5.84E-12,  avg # of iterations =  3.0

     total cpu time spent up to now is       35.4 secs

     total energy              =    -329.49166322 Ry
     Harris-Foulkes estimate   =    -329.49166323 Ry
     estimated scf accuracy    <          6.0E-10 Ry

     iteration # 10     ecut=    30.00 Ry     beta=0.70
     Davidson diagonalization with overlap
     ethr =  1.09E-12,  avg # of iterations =  2.0

     total cpu time spent up to now is       35.7 secs

     End of self-consistent calculation

          k = 0.0000 0.0000 0.0000 ( 22119 PWs)   bands (ev):

    -8.4990  -7.7560  -7.6436  -7.2082  -6.8785  -6.8193  -6.5993  -6.4593
    -6.2995  -6.0700  -5.9470  -5.7785  -5.7429  -5.6733  -5.4259  -5.3745
    -5.3174  -5.2379  -5.2092  -5.1769  -5.1715  -5.1257  -4.9810  -4.9242
    -4.8407  -4.7309  -4.4649  -3.7924  -2.4516  -2.2100  -0.5465  -0.1989
     0.4710   0.8768

     the Fermi energy is    -3.7636 ev

!    total energy              =    -329.49166322 Ry
     Harris-Foulkes estimate   =    -329.49166322 Ry
     estimated scf accuracy    <          9.7E-11 Ry

     The total energy is the sum of the following terms:

     one-electron contribution =    -607.77636633 Ry
     hartree contribution      =     325.32987030 Ry
     xc contribution           =     -51.40070273 Ry
     ewald contribution        =       4.35903765 Ry
     smearing contrib. (-TS)   =      -0.00350210 Ry

     convergence has been achieved in  10 iterations

     Forces acting on atoms (Ry/au):

     atom    1 type  1   force =    -0.00448050    0.00359032   -0.00166246
     atom    2 type  1   force =    -0.00112122   -0.00079439   -0.00336094
     atom    3 type  1   force =     0.00271441   -0.00254372    0.00529965
     atom    4 type  1   force =     0.00329916   -0.00099787   -0.00145776
     atom    5 type  1   force =    -0.00041186    0.00074565    0.00118151

     Total force =     0.010342     Total SCF correction =     0.000043

     number of scf cycles    =  10
     number of bfgs steps    =   9

     energy   old            =    -329.4915144229 Ry
     energy   new            =    -329.4916632210 Ry

     CASE: energy  _new < energy  _old

     new trust radius        =       0.0235495753 bohr
     new conv_thr            =       0.0000000001 Ry


ATOMIC_POSITIONS (bohr)
Au      -1.558882497   1.888139945  -1.019680179
Au      -0.717774687   3.865235540   3.701574976
Au       3.201363979   1.700303532   0.624144206
Au       3.946716148   3.363668838   5.817027875
Au       7.725545058   1.393081145   2.869647122



     Writing output data file pwscf.save
     Check: negative starting charge=   -0.006446
     NEW-OLD atomic charge density approx. for the potential
     Check: negative starting charge=   -0.006440

     negative rho (up, down):  1.078E-04 0.000E+00

     total cpu time spent up to now is       36.0 secs

     per-process dynamical memory:    50.7 Mb

     Self-consistent Calculation

     iteration #  1     ecut=    30.00 Ry     beta=0.70
     Davidson diagonalization with overlap
     ethr =  1.00E-06,  avg # of iterations =  4.0

     negative rho (up, down):  9.158E-07 0.000E+00

     total cpu time spent up to now is       36.5 secs

     total energy              =    -329.49178264 Ry
     Harris-Foulkes estimate   =    -329.49180957 Ry
     estimated scf accuracy    <       0.00011621 Ry

     iteration #  2     ecut=    30.00 Ry     beta=0.70
     Davidson diagonalization with overlap
     ethr =  2.11E-07,  avg # of iterations =  3.0

     negative rho (up, down):  5.881E-08 0.000E+00

     total cpu time spent up to now is       36.8 secs

     total energy              =    -329.49179759 Ry
     Harris-Foulkes estimate   =    -329.49185198 Ry
     estimated scf accuracy    <       0.00011736 Ry

     iteration #  3     ecut=    30.00 Ry     beta=0.70
     Davidson diagonalization with overlap
     ethr =  2.11E-07,  avg # of iterations =  2.0

     total cpu time spent up to now is       37.0 secs

     total energy              =    -329.49182177 Ry
     Harris-Foulkes estimate   =    -329.49183072 Ry
     estimated scf accuracy    <       0.00002520 Ry

     iteration #  4     ecut=    30.00 Ry     beta=0.70
     Davidson diagonalization with overlap
     ethr =  4.58E-08,  avg # of iterations =  2.0

     total cpu time spent up to now is       37.3 secs

     total energy              =    -329.49182840 Ry
     Harris-Foulkes estimate   =    -329.49182938 Ry
     estimated scf accuracy    <       0.00000581 Ry

     iteration #  5     ecut=    30.00 Ry     beta=0.70
     Davidson diagonalization with overlap
     ethr =  1.06E-08,  avg # of iterations =  2.0

     total cpu time spent up to now is       37.5 secs

     total energy              =    -329.49182925 Ry
     Harris-Foulkes estimate   =    -329.49182957 Ry
     estimated scf accuracy    <       0.00000058 Ry

     iteration #  6     ecut=    30.00 Ry     beta=0.70
     Davidson diagonalization with overlap
     ethr =  1.05E-09,  avg # of iterations =  2.0

     total cpu time spent up to now is       37.8 secs

     total energy              =    -329.49182944 Ry
     Harris-Foulkes estimate   =    -329.49182939 Ry
     estimated scf accuracy    <       0.00000004 Ry

     iteration #  7     ecut=    30.00 Ry     beta=0.70
     Davidson diagonalization with overlap
     ethr =  8.14E-11,  avg # of iterations =  2.0

     total cpu time spent up to now is       38.1 secs

     total energy              =    -329.49182953 Ry
     Harris-Foulkes estimate   =    -329.49182946 Ry
     estimated scf accuracy    <       0.00000003 Ry

     iteration #  8     ecut=    30.00 Ry     beta=0.70
     Davidson diagonalization with overlap
     ethr =  5.30E-11,  avg # of iterations =  2.0

     total cpu time spent up to now is       38.4 secs

     total energy              =    -329.49182954 Ry
     Harris-Foulkes estimate   =    -329.49182953 Ry
     estimated scf accuracy    <          2.3E-09 Ry

     iteration #  9     ecut=    30.00 Ry     beta=0.70
     Davidson diagonalization with overlap
     ethr =  4.12E-12,  avg # of iterations =  3.0

     total cpu time spent up to now is       38.7 secs

     total energy              =    -329.49182951 Ry
     Harris-Foulkes estimate   =    -329.49182954 Ry
     estimated scf accuracy    <          2.7E-10 Ry

     iteration # 10     ecut=    30.00 Ry     beta=0.70
     Davidson diagonalization with overlap
     ethr =  4.84E-13,  avg # of iterations =  2.0

     total cpu time spent up to now is       39.0 secs

     End of self-consistent calculation

          k = 0.0000 0.0000 0.0000 ( 22119 PWs)   bands (ev):

    -8.4772  -7.7419  -7.6452  -7.2106  -6.8737  -6.8027  -6.5907  -6.4569
    -6.3044  -6.0603  -5.9403  -5.7718  -5.7337  -5.6732  -5.4306  -5.3753
    -5.3201  -5.2377  -5.2105  -5.1779  -5.1699  -5.1258  -4.9909  -4.9223
    -4.8380  -4.7382  -4.4662  -3.7946  -2.4649  -2.2072  -0.5459  -0.1974
     0.4690   0.8711

     the Fermi energy is    -3.7659 ev

!    total energy              =    -329.49182950 Ry
     Harris-Foulkes estimate   =    -329.49182951 Ry
     estimated scf accuracy    <          1.8E-11 Ry

     The total energy is the sum of the following terms:

     one-electron contribution =    -607.13446064 Ry
     hartree contribution      =     325.01181997 Ry
     xc contribution           =     -51.39779522 Ry
     ewald contribution        =       4.03210093 Ry
     smearing contrib. (-TS)   =      -0.00349455 Ry

     convergence has been achieved in  10 iterations

     Forces acting on atoms (Ry/au):

     atom    1 type  1   force =    -0.00214337    0.00326810   -0.00074591
     atom    2 type  1   force =    -0.00162778   -0.00075803   -0.00374311
     atom    3 type  1   force =     0.00140375   -0.00196629    0.00487214
     atom    4 type  1   force =     0.00487343   -0.00139225   -0.00170080
     atom    5 type  1   force =    -0.00250602    0.00084847    0.00131768

     Total force =     0.009998     Total SCF correction =     0.000019

     number of scf cycles    =  11
     number of bfgs steps    =  10

     energy   old            =    -329.4916632210 Ry
     energy   new            =    -329.4918295009 Ry

     CASE: energy  _new < energy  _old

     new trust radius        =       0.0259045329 bohr
     new conv_thr            =       0.0000000002 Ry


ATOMIC_POSITIONS (bohr)
Au      -1.577221503   1.904736857  -1.027378764
Au      -0.716710228   3.861771180   3.691591235
Au       3.204058431   1.686648702   0.638959424
Au       3.948171032   3.362537567   5.814620228
Au       7.738670268   1.394734694   2.874921877



     Writing output data file pwscf.save
     Check: negative starting charge=   -0.006440
     NEW-OLD atomic charge density approx. for the potential
     Check: negative starting charge=   -0.006436

     negative rho (up, down):  1.125E-04 0.000E+00

     total cpu time spent up to now is       39.3 secs

     per-process dynamical memory:    50.7 Mb

     Self-consistent Calculation

     iteration #  1     ecut=    30.00 Ry     beta=0.70
     Davidson diagonalization with overlap
     ethr =  1.00E-06,  avg # of iterations =  4.0

     negative rho (up, down):  1.047E-06 0.000E+00

     total cpu time spent up to now is       39.8 secs

     total energy              =    -329.49195570 Ry
     Harris-Foulkes estimate   =    -329.49196888 Ry
     estimated scf accuracy    <       0.00010169 Ry

     iteration #  2     ecut=    30.00 Ry     beta=0.70
     Davidson diagonalization with overlap
     ethr =  1.85E-07,  avg # of iterations =  2.0

     negative rho (up, down):  5.843E-08 0.000E+00

     total cpu time spent up to now is       40.1 secs

     total energy              =    -329.49196981 Ry
     Harris-Foulkes estimate   =    -329.49201237 Ry
     estimated scf accuracy    <       0.00009358 Ry

     iteration #  3     ecut=    30.00 Ry     beta=0.70
     Davidson diagonalization with overlap
     ethr =  1.70E-07,  avg # of iterations =  2.0

     total cpu time spent up to now is       40.4 secs

     total energy              =    -329.49199086 Ry
     Harris-Foulkes estimate   =    -329.49199683 Ry
     estimated scf accuracy    <       0.00001982 Ry

     iteration #  4     ecut=    30.00 Ry     beta=0.70
     Davidson diagonalization with overlap
     ethr =  3.60E-08,  avg # of iterations =  2.0

     total cpu time spent up to now is       40.6 secs

     total energy              =    -329.49199646 Ry
     Harris-Foulkes estimate   =    -329.49199760 Ry
     estimated scf accuracy    <       0.00000666 Ry

     iteration #  5     ecut=    30.00 Ry     beta=0.70
     Davidson diagonalization with overlap
     ethr =  1.21E-08,  avg # of iterations =  2.0

     total cpu time spent up to now is       40.9 secs

     total energy              =    -329.49199757 Ry
     Harris-Foulkes estimate   =    -329.49199778 Ry
     estimated scf accuracy    <       0.00000052 Ry

     iteration #  6     ecut=    30.00 Ry     beta=0.70
     Davidson diagonalization with overlap
     ethr =  9.37E-10,  avg # of iterations =  2.0

     total cpu time spent up to now is       41.2 secs

     total energy              =    -329.49199775 Ry
     Harris-Foulkes estimate   =    -329.49199770 Ry
     estimated scf accuracy    <       0.00000004 Ry

     iteration #  7     ecut=    30.00 Ry     beta=0.70
     Davidson diagonalization with overlap
     ethr =  6.75E-11,  avg # of iterations =  2.0

     total cpu time spent up to now is       41.5 secs

     total energy              =    -329.49199764 Ry
     Harris-Foulkes estimate   =    -329.49199776 Ry
     estimated scf accuracy    <       0.00000002 Ry

     iteration #  8     ecut=    30.00 Ry     beta=0.70
     Davidson diagonalization with overlap
     ethr =  3.43E-11,  avg # of iterations =  2.0

     total cpu time spent up to now is       41.8 secs

     total energy              =    -329.49199762 Ry
     Harris-Foulkes estimate   =    -329.49199764 Ry
     estimated scf accuracy    <          2.8E-09 Ry

     iteration #  9     ecut=    30.00 Ry     beta=0.70
     Davidson diagonalization with overlap
     ethr =  5.10E-12,  avg # of iterations =  2.0

     total cpu time spent up to now is       42.0 secs

     total energy              =    -329.49199763 Ry
     Harris-Foulkes estimate   =    -329.49199762 Ry
     estimated scf accuracy    <          3.1E-10 Ry

     iteration # 10     ecut=    30.00 Ry     beta=0.70
     Davidson diagonalization with overlap
     ethr =  5.67E-13,  avg # of iterations =  2.0

     total cpu time spent up to now is       42.3 secs

     End of self-consistent calculation

          k = 0.0000 0.0000 0.0000 ( 22119 PWs)   bands (ev):

    -8.4635  -7.7388  -7.6464  -7.2187  -6.8639  -6.7904  -6.5918  -6.4605
    -6.3080  -6.0557  -5.9380  -5.7660  -5.7261  -5.6742  -5.4427  -5.3733
    -5.3201  -5.2409  -5.2102  -5.1793  -5.1701  -5.1249  -5.0019  -4.9236
    -4.8357  -4.7426  -4.4716  -3.7907  -2.4779  -2.2062  -0.5462  -0.1920
     0.4647   0.8632

     the Fermi energy is    -3.7605 ev

!    total energy              =    -329.49199763 Ry
     Harris-Foulkes estimate   =    -329.49199763 Ry
     estimated scf accuracy    <          2.2E-11 Ry

     The total energy is the sum of the following terms:

     one-electron contribution =    -606.74756831 Ry
     hartree contribution      =     324.81739748 Ry
     xc contribution           =     -51.39525942 Ry
     ewald contribution        =       3.83723603 Ry
     smearing contrib. (-TS)   =      -0.00380341 Ry

     convergence has been achieved in  10 iterations

     Forces acting on atoms (Ry/au):

     atom    1 type  1   force =     0.00072982    0.00263063    0.00009038
     atom    2 type  1   force =    -0.00141815   -0.00041945   -0.00316637
     atom    3 type  1   force =    -0.00069425   -0.00158659    0.00330291
     atom    4 type  1   force =     0.00467460   -0.00130194   -0.00137389
     atom    5 type  1   force =    -0.00329202    0.00067736    0.00114698

     Total force =     0.008463     Total SCF correction =     0.000012

     number of scf cycles    =  12
     number of bfgs steps    =  11

     energy   old            =    -329.4918295009 Ry
     energy   new            =    -329.4919976298 Ry

     CASE: energy  _new < energy  _old

     new trust radius        =       0.0236845774 bohr
     new conv_thr            =       0.0000000002 Ry


ATOMIC_POSITIONS (bohr)
Au      -1.589946653   1.923956793  -1.032821543
Au      -0.717998872   3.858771231   3.679802188
Au       3.205849676   1.669739068   0.654792717
Au       3.955251131   3.359552654   5.809908424
Au       7.743812719   1.398409255   2.881032214



     Writing output data file pwscf.save
     Check: negative starting charge=   -0.006436
     NEW-OLD atomic charge density approx. for the potential
     Check: negative starting charge=   -0.006435

     negative rho (up, down):  1.212E-04 0.000E+00

     total cpu time spent up to now is       42.6 secs

     per-process dynamical memory:    50.7 Mb

     Self-consistent Calculation

     iteration #  1     ecut=    30.00 Ry     beta=0.70
     Davidson diagonalization with overlap
     ethr =  1.00E-06,  avg # of iterations =  4.0

     negative rho (up, down):  1.259E-06 0.000E+00

     total cpu time spent up to now is       43.1 secs

     total energy              =    -329.49208509 Ry
     Harris-Foulkes estimate   =    -329.49210629 Ry
     estimated scf accuracy    <       0.00011484 Ry

     iteration #  2     ecut=    30.00 Ry     beta=0.70
     Davidson diagonalization with overlap
     ethr =  2.09E-07,  avg # of iterations =  2.0

     negative rho (up, down):  6.352E-08 0.000E+00

     total cpu time spent up to now is       43.4 secs

     total energy              =    -329.49210503 Ry
     Harris-Foulkes estimate   =    -329.49214766 Ry
     estimated scf accuracy    <       0.00009151 Ry

     iteration #  3     ecut=    30.00 Ry     beta=0.70
     Davidson diagonalization with overlap
     ethr =  1.66E-07,  avg # of iterations =  2.0

     total cpu time spent up to now is       43.7 secs

     total energy              =    -329.49212394 Ry
     Harris-Foulkes estimate   =    -329.49212912 Ry
     estimated scf accuracy    <       0.00001369 Ry

     iteration #  4     ecut=    30.00 Ry     beta=0.70
     Davidson diagonalization with overlap
     ethr =  2.49E-08,  avg # of iterations =  2.0

     total cpu time spent up to now is       43.9 secs

     total energy              =    -329.49212792 Ry
     Harris-Foulkes estimate   =    -329.49213071 Ry
     estimated scf accuracy    <       0.00001125 Ry

     iteration #  5     ecut=    30.00 Ry     beta=0.70
     Davidson diagonalization with overlap
     ethr =  2.05E-08,  avg # of iterations =  2.0

     total cpu time spent up to now is       44.1 secs

     total energy              =    -329.49212972 Ry
     Harris-Foulkes estimate   =    -329.49212984 Ry
     estimated scf accuracy    <       0.00000036 Ry

     iteration #  6     ecut=    30.00 Ry     beta=0.70
     Davidson diagonalization with overlap
     ethr =  6.61E-10,  avg # of iterations =  3.0

     total cpu time spent up to now is       44.5 secs

     total energy              =    -329.49212988 Ry
     Harris-Foulkes estimate   =    -329.49212986 Ry
     estimated scf accuracy    <       0.00000005 Ry

     iteration #  7     ecut=    30.00 Ry     beta=0.70
     Davidson diagonalization with overlap
     ethr =  9.07E-11,  avg # of iterations =  3.0

     total cpu time spent up to now is       44.7 secs

     total energy              =    -329.49212995 Ry
     Harris-Foulkes estimate   =    -329.49212990 Ry
     estimated scf accuracy    <       0.00000002 Ry

     iteration #  8     ecut=    30.00 Ry     beta=0.70
[...]
Au      -0.714100684   3.880522923   3.658967929
Au       3.149375836   1.608565253   0.720052231
Au       3.981725679   3.356361789   5.817272888
Au       7.730800132   1.380392939   2.883056384



     Writing output data file pwscf.save
     Check: negative starting charge=   -0.006445
     NEW-OLD atomic charge density approx. for the potential
     Check: negative starting charge=   -0.006448

     negative rho (up, down):  3.773E-05 0.000E+00

     total cpu time spent up to now is       65.4 secs

     per-process dynamical memory:    50.7 Mb

     Self-consistent Calculation

     iteration #  1     ecut=    30.00 Ry     beta=0.70
     Davidson diagonalization with overlap
     ethr =  1.00E-06,  avg # of iterations =  4.0

     negative rho (up, down):  1.011E-07 0.000E+00

     total cpu time spent up to now is       65.9 secs

     total energy              =    -329.49241682 Ry
     Harris-Foulkes estimate   =    -329.49243999 Ry
     estimated scf accuracy    <       0.00006476 Ry

     iteration #  2     ecut=    30.00 Ry     beta=0.70
     Davidson diagonalization with overlap
     ethr =  1.18E-07,  avg # of iterations =  2.0

     total cpu time spent up to now is       66.1 secs

     total energy              =    -329.49242477 Ry
     Harris-Foulkes estimate   =    -329.49245785 Ry
     estimated scf accuracy    <       0.00007158 Ry

     iteration #  3     ecut=    30.00 Ry     beta=0.70
     Davidson diagonalization with overlap
     ethr =  1.18E-07,  avg # of iterations =  2.0

     total cpu time spent up to now is       66.4 secs

     total energy              =    -329.49243967 Ry
     Harris-Foulkes estimate   =    -329.49244381 Ry
     estimated scf accuracy    <       0.00001140 Ry

     iteration #  4     ecut=    30.00 Ry     beta=0.70
     Davidson diagonalization with overlap
     ethr =  2.07E-08,  avg # of iterations =  2.0

     total cpu time spent up to now is       66.7 secs

     total energy              =    -329.49244273 Ry
     Harris-Foulkes estimate   =    -329.49244355 Ry
     estimated scf accuracy    <       0.00000375 Ry

     iteration #  5     ecut=    30.00 Ry     beta=0.70
     Davidson diagonalization with overlap
     ethr =  6.82E-09,  avg # of iterations =  2.0

     total cpu time spent up to now is       66.9 secs

     total energy              =    -329.49244358 Ry
     Harris-Foulkes estimate   =    -329.49244349 Ry
     estimated scf accuracy    <       0.00000024 Ry

     iteration #  6     ecut=    30.00 Ry     beta=0.70
     Davidson diagonalization with overlap
     ethr =  4.35E-10,  avg # of iterations =  3.0

     total cpu time spent up to now is       67.2 secs

     total energy              =    -329.49244384 Ry
     Harris-Foulkes estimate   =    -329.49244365 Ry
     estimated scf accuracy    <       0.00000003 Ry

     iteration #  7     ecut=    30.00 Ry     beta=0.70
     Davidson diagonalization with overlap
     ethr =  4.73E-11,  avg # of iterations =  3.0

     total cpu time spent up to now is       67.5 secs

     total energy              =    -329.49244376 Ry
     Harris-Foulkes estimate   =    -329.49244385 Ry
     estimated scf accuracy    <       0.00000001 Ry

     iteration #  8     ecut=    30.00 Ry     beta=0.70
     Davidson diagonalization with overlap
     ethr =  2.44E-11,  avg # of iterations =  2.0

     total cpu time spent up to now is       67.7 secs

     total energy              =    -329.49244378 Ry
     Harris-Foulkes estimate   =    -329.49244377 Ry
     estimated scf accuracy    <          1.6E-09 Ry

     iteration #  9     ecut=    30.00 Ry     beta=0.70
     Davidson diagonalization with overlap
     ethr =  2.88E-12,  avg # of iterations =  3.0

     total cpu time spent up to now is       68.0 secs

     total energy              =    -329.49244377 Ry
     Harris-Foulkes estimate   =    -329.49244378 Ry
     estimated scf accuracy    <          2.4E-10 Ry

     iteration # 10     ecut=    30.00 Ry     beta=0.70
     Davidson diagonalization with overlap
     ethr =  4.29E-13,  avg # of iterations =  2.0

     total cpu time spent up to now is       68.3 secs

     End of self-consistent calculation

          k = 0.0000 0.0000 0.0000 ( 22119 PWs)   bands (ev):

    -8.5146  -7.7884  -7.6605  -7.2381  -6.8437  -6.8121  -6.6141  -6.4908
    -6.3030  -6.0849  -5.9498  -5.7690  -5.7294  -5.6898  -5.4733  -5.3549
    -5.3121  -5.2581  -5.2035  -5.1817  -5.1723  -5.1203  -5.0057  -4.9364
    -4.8354  -4.7280  -4.4909  -3.7678  -2.4642  -2.2162  -0.5506  -0.1740
     0.4643   0.8327

     the Fermi energy is    -3.7327 ev

!    total energy              =    -329.49244380 Ry
     Harris-Foulkes estimate   =    -329.49244377 Ry
     estimated scf accuracy    <          1.2E-11 Ry

     The total energy is the sum of the following terms:

     one-electron contribution =    -607.96418803 Ry
     hartree contribution      =     325.40858409 Ry
     xc contribution           =     -51.39819594 Ry
     ewald contribution        =       4.46629721 Ry
     smearing contrib. (-TS)   =      -0.00494113 Ry

     convergence has been achieved in  10 iterations

     Forces acting on atoms (Ry/au):

     atom    1 type  1   force =    -0.00080595   -0.00026873   -0.00101075
     atom    2 type  1   force =     0.00040427    0.00065547    0.00037119
     atom    3 type  1   force =     0.00297058   -0.00035310    0.00118635
     atom    4 type  1   force =    -0.00086922    0.00037373    0.00022410
     atom    5 type  1   force =    -0.00169967   -0.00040737   -0.00077089

     Total force =     0.004174     Total SCF correction =     0.000014

     number of scf cycles    =  20
     number of bfgs steps    =  19

     energy   old            =    -329.4924123375 Ry
     energy   new            =    -329.4924437968 Ry

     CASE: energy  _new < energy  _old

     new trust radius        =       0.0088527983 bohr
     new conv_thr            =            1.0E-10 Ry


ATOMIC_POSITIONS (bohr)
Au      -1.549212281   1.986927541  -1.095017738
Au      -0.711640301   3.884459444   3.660089878
Au       3.150173420   1.604680908   0.727144523
Au       3.979594522   3.357912553   5.820010089
Au       7.728052641   1.376448554   2.880487248



     Writing output data file pwscf.save
     Check: negative starting charge=   -0.006448
     NEW-OLD atomic charge density approx. for the potential
     Check: negative starting charge=   -0.006449

     negative rho (up, down):  4.163E-06 0.000E+00

     total cpu time spent up to now is       68.6 secs

     per-process dynamical memory:    50.7 Mb

     Self-consistent Calculation

     iteration #  1     ecut=    30.00 Ry     beta=0.70
     Davidson diagonalization with overlap
     ethr =  1.00E-06,  avg # of iterations =  3.0

     Threshold (ethr) on eigenvalues was too large:
     Diagonalizing with lowered threshold

     Davidson diagonalization with overlap
     ethr =  3.32E-08,  avg # of iterations =  1.0

     total cpu time spent up to now is       69.2 secs

     total energy              =    -329.49245786 Ry
     Harris-Foulkes estimate   =    -329.49246370 Ry
     estimated scf accuracy    <       0.00001925 Ry

     iteration #  2     ecut=    30.00 Ry     beta=0.70
     Davidson diagonalization with overlap
     ethr =  3.50E-08,  avg # of iterations =  2.0

     total cpu time spent up to now is       69.5 secs

     total energy              =    -329.49245794 Ry
     Harris-Foulkes estimate   =    -329.49247266 Ry
     estimated scf accuracy    <       0.00003454 Ry

     iteration #  3     ecut=    30.00 Ry     beta=0.70
     Davidson diagonalization with overlap
     ethr =  3.50E-08,  avg # of iterations =  2.0

     total cpu time spent up to now is       69.7 secs

     total energy              =    -329.49246489 Ry
     Harris-Foulkes estimate   =    -329.49246676 Ry
     estimated scf accuracy    <       0.00000502 Ry

     iteration #  4     ecut=    30.00 Ry     beta=0.70
     Davidson diagonalization with overlap
     ethr =  9.13E-09,  avg # of iterations =  2.0

     total cpu time spent up to now is       70.0 secs

     total energy              =    -329.49246616 Ry
     Harris-Foulkes estimate   =    -329.49246621 Ry
     estimated scf accuracy    <       0.00000073 Ry

     iteration #  5     ecut=    30.00 Ry     beta=0.70
     Davidson diagonalization with overlap
     ethr =  1.33E-09,  avg # of iterations =  2.0

     total cpu time spent up to now is       70.2 secs

     total energy              =    -329.49246646 Ry
     Harris-Foulkes estimate   =    -329.49246634 Ry
     estimated scf accuracy    <       0.00000008 Ry

     iteration #  6     ecut=    30.00 Ry     beta=0.70
     Davidson diagonalization with overlap
     ethr =  1.50E-10,  avg # of iterations =  2.0

     total cpu time spent up to now is       70.5 secs

     total energy              =    -329.49246650 Ry
     Harris-Foulkes estimate   =    -329.49246648 Ry
     estimated scf accuracy    <       0.00000002 Ry

     iteration #  7     ecut=    30.00 Ry     beta=0.70
     Davidson diagonalization with overlap
     ethr =  2.78E-11,  avg # of iterations =  2.0

     total cpu time spent up to now is       70.7 secs

     total energy              =    -329.49246642 Ry
     Harris-Foulkes estimate   =    -329.49246651 Ry
     estimated scf accuracy    <          3.4E-09 Ry

     iteration #  8     ecut=    30.00 Ry     beta=0.70
     Davidson diagonalization with overlap
     ethr =  6.19E-12,  avg # of iterations =  2.0

     total cpu time spent up to now is       71.0 secs

     total energy              =    -329.49246636 Ry
     Harris-Foulkes estimate   =    -329.49246642 Ry
     estimated scf accuracy    <          3.2E-10 Ry

     iteration #  9     ecut=    30.00 Ry     beta=0.70
     Davidson diagonalization with overlap
     ethr =  5.87E-13,  avg # of iterations =  3.0

     total cpu time spent up to now is       71.4 secs

     total energy              =    -329.49246636 Ry
     Harris-Foulkes estimate   =    -329.49246636 Ry
     estimated scf accuracy    <          1.1E-10 Ry

     iteration # 10     ecut=    30.00 Ry     beta=0.70
     Davidson diagonalization with overlap
     ethr =  1.98E-13,  avg # of iterations =  2.0

     total cpu time spent up to now is       71.6 secs

     End of self-consistent calculation

          k = 0.0000 0.0000 0.0000 ( 22119 PWs)   bands (ev):

    -8.5149  -7.7853  -7.6639  -7.2340  -6.8430  -6.8118  -6.6051  -6.4912
    -6.3022  -6.0867  -5.9443  -5.7690  -5.7288  -5.6901  -5.4723  -5.3545
    -5.3128  -5.2587  -5.2049  -5.1817  -5.1706  -5.1202  -5.0042  -4.9373
    -4.8337  -4.7293  -4.4920  -3.7706  -2.4610  -2.2188  -0.5504  -0.1747
     0.4647   0.8327

     the Fermi energy is    -3.7356 ev

!    total energy              =    -329.49246636 Ry
     Harris-Foulkes estimate   =    -329.49246636 Ry
     estimated scf accuracy    <          5.4E-12 Ry

     The total energy is the sum of the following terms:

     one-electron contribution =    -607.84395428 Ry
     hartree contribution      =     325.34940319 Ry
     xc contribution           =     -51.39778460 Ry
     ewald contribution        =       4.40476028 Ry
     smearing contrib. (-TS)   =      -0.00489095 Ry

     convergence has been achieved in  10 iterations

     Forces acting on atoms (Ry/au):

     atom    1 type  1   force =    -0.00007081   -0.00009196    0.00020902
     atom    2 type  1   force =     0.00009310    0.00026677   -0.00054706
     atom    3 type  1   force =     0.00157340   -0.00020012    0.00051777
     atom    4 type  1   force =    -0.00039607    0.00026043    0.00009888
     atom    5 type  1   force =    -0.00119963   -0.00023513   -0.00027861

     Total force =     0.002242     Total SCF correction =     0.000010

     number of scf cycles    =  21
     number of bfgs steps    =  20

     energy   old            =    -329.4924437968 Ry
     energy   new            =    -329.4924663592 Ry

     CASE: energy  _new < energy  _old

     new trust radius        =       0.0039878419 bohr
     new conv_thr            =            1.0E-10 Ry


ATOMIC_POSITIONS (bohr)
Au      -1.548857932   1.985327849  -1.095351366
Au      -0.711083694   3.885622853   3.660699423
Au       3.154108438   1.605150586   0.727589403
Au       3.977871839   3.358771822   5.820698199
Au       7.724929350   1.375555891   2.879078341



     Writing output data file pwscf.save
     Check: negative starting charge=   -0.006449
     NEW-OLD atomic charge density approx. for the potential
     Check: negative starting charge=   -0.006449

     negative rho (up, down):  1.676E-08 0.000E+00

     total cpu time spent up to now is       71.9 secs

     per-process dynamical memory:    50.7 Mb

     Self-consistent Calculation

     iteration #  1     ecut=    30.00 Ry     beta=0.70
     Davidson diagonalization with overlap
     ethr =  1.00E-06,  avg # of iterations =  3.0

     Threshold (ethr) on eigenvalues was too large:
     Diagonalizing with lowered threshold

     Davidson diagonalization with overlap
     ethr =  4.16E-09,  avg # of iterations =  2.0

     total cpu time spent up to now is       72.5 secs

     total energy              =    -329.49247261 Ry
     Harris-Foulkes estimate   =    -329.49247297 Ry
     estimated scf accuracy    <       0.00000233 Ry

     iteration #  2     ecut=    30.00 Ry     beta=0.70
     Davidson diagonalization with overlap
     ethr =  4.23E-09,  avg # of iterations =  3.0

     total cpu time spent up to now is       72.9 secs

     total energy              =    -329.49247237 Ry
     Harris-Foulkes estimate   =    -329.49247475 Ry
     estimated scf accuracy    <       0.00000634 Ry

     iteration #  3     ecut=    30.00 Ry     beta=0.70
     Davidson diagonalization with overlap
     ethr =  4.23E-09,  avg # of iterations =  2.0

     total cpu time spent up to now is       73.3 secs

     total energy              =    -329.49247353 Ry
     Harris-Foulkes estimate   =    -329.49247377 Ry
     estimated scf accuracy    <       0.00000048 Ry

     iteration #  4     ecut=    30.00 Ry     beta=0.70
     Davidson diagonalization with overlap
     ethr =  8.71E-10,  avg # of iterations =  2.0

     total cpu time spent up to now is       73.6 secs

     total energy              =    -329.49247383 Ry
     Harris-Foulkes estimate   =    -329.49247366 Ry
     estimated scf accuracy    <       0.00000008 Ry

     iteration #  5     ecut=    30.00 Ry     beta=0.70
     Davidson diagonalization with overlap
     ethr =  1.37E-10,  avg # of iterations =  2.0

     total cpu time spent up to now is       74.0 secs

     total energy              =    -329.49247376 Ry
     Harris-Foulkes estimate   =    -329.49247385 Ry
     estimated scf accuracy    <          7.6E-09 Ry

     iteration #  6     ecut=    30.00 Ry     beta=0.70
     Davidson diagonalization with overlap
     ethr =  1.38E-11,  avg # of iterations =  2.0

     total cpu time spent up to now is       74.4 secs

     total energy              =    -329.49247372 Ry
     Harris-Foulkes estimate   =    -329.49247376 Ry
     estimated scf accuracy    <          1.2E-09 Ry

     iteration #  7     ecut=    30.00 Ry     beta=0.70
     Davidson diagonalization with overlap
     ethr =  2.18E-12,  avg # of iterations =  3.0

     total cpu time spent up to now is       74.8 secs

     total energy              =    -329.49247371 Ry
     Harris-Foulkes estimate   =    -329.49247372 Ry
     estimated scf accuracy    <          2.8E-10 Ry

     iteration #  8     ecut=    30.00 Ry     beta=0.70
     Davidson diagonalization with overlap
     ethr =  5.11E-13,  avg # of iterations =  3.0

     total cpu time spent up to now is       75.1 secs

     End of self-consistent calculation

          k = 0.0000 0.0000 0.0000 ( 22119 PWs)   bands (ev):

    -8.5160  -7.7849  -7.6646  -7.2329  -6.8444  -6.8128  -6.6036  -6.4909
    -6.3022  -6.0871  -5.9438  -5.7693  -5.7289  -5.6905  -5.4708  -5.3548
    -5.3132  -5.2581  -5.2055  -5.1822  -5.1697  -5.1203  -5.0030  -4.9370
    -4.8334  -4.7295  -4.4913  -3.7718  -2.4591  -2.2190  -0.5503  -0.1756
     0.4656   0.8335

     the Fermi energy is    -3.7370 ev

!    total energy              =    -329.49247370 Ry
     Harris-Foulkes estimate   =    -329.49247371 Ry
     estimated scf accuracy    <          3.9E-11 Ry

     The total energy is the sum of the following terms:

     one-electron contribution =    -607.87048134 Ry
     hartree contribution      =     325.36286152 Ry
     xc contribution           =     -51.39799264 Ry
     ewald contribution        =       4.41798014 Ry
     smearing contrib. (-TS)   =      -0.00484137 Ry

     convergence has been achieved in   8 iterations

     Forces acting on atoms (Ry/au):

     atom    1 type  1   force =     0.00032872    0.00000721    0.00057615
     atom    2 type  1   force =    -0.00001103    0.00009849   -0.00089031
     atom    3 type  1   force =     0.00036241   -0.00011812    0.00010310
     atom    4 type  1   force =    -0.00025075    0.00025402    0.00015854
     atom    5 type  1   force =    -0.00042935   -0.00024161    0.00005251

     Total force =     0.001340     Total SCF correction =     0.000025

     bfgs converged in  22 scf cycles and  21 bfgs steps
     (criteria: energy <  1.0E-04, force <  1.0E-03)

     End of BFGS Geometry Optimization

     Final energy   =    -329.4924736967 Ry
Begin final coordinates

ATOMIC_POSITIONS (bohr)
Au      -1.548857932   1.985327849  -1.095351366
Au      -0.711083694   3.885622853   3.660699423
Au       3.154108438   1.605150586   0.727589403
Au       3.977871839   3.358771822   5.820698199
Au       7.724929350   1.375555891   2.879078341
End final coordinates



     Writing output data file pwscf.save
 
     init_run     :      0.20s CPU      0.23s WALL (       1 calls)
     electrons    :     65.18s CPU     69.02s WALL (      22 calls)
     update_pot   :      1.90s CPU      2.48s WALL (      21 calls)
     forces       :      1.12s CPU      1.15s WALL (      22 calls)

     Called by init_run:
     wfcinit      :      0.07s CPU      0.08s WALL (       1 calls)
     potinit      :      0.08s CPU      0.08s WALL (       1 calls)

     Called by electrons:
     c_bands      :     48.08s CPU     49.01s WALL (     220 calls)
     sum_band     :      6.16s CPU      6.30s WALL (     220 calls)
     v_of_rho     :      5.92s CPU      6.02s WALL (     235 calls)
     mix_rho      :      3.07s CPU      4.51s WALL (     220 calls)

     Called by c_bands:
     init_us_2    :      0.68s CPU      0.71s WALL (     441 calls)
     cegterg      :     43.99s CPU     44.76s WALL (     220 calls)

     Called by sum_band:

     Called by *egterg:
     h_psi        :     33.54s CPU     34.10s WALL (     783 calls)
     g_psi        :      0.25s CPU      0.25s WALL (     562 calls)
     cdiaghg      :      2.54s CPU      2.57s WALL (     754 calls)

     Called by h_psi:
     h_psi:pot    :     33.18s CPU     33.73s WALL (     783 calls)
     h_psi:calbec :      4.06s CPU      4.16s WALL (     783 calls)
     vloc_psi     :     27.57s CPU     28.01s WALL (     783 calls)
     add_vuspsi   :      1.54s CPU      1.55s WALL (     783 calls)

     General routines
     calbec       :      4.42s CPU      4.53s WALL (     871 calls)
     fft          :      3.78s CPU      3.84s WALL (    2642 calls)
     fftw         :     29.59s CPU     30.25s WALL (   48560 calls)
     davcio       :      0.30s CPU      1.53s WALL (    2219 calls)
 
     Parallel routines
     fft_scatter  :     13.91s CPU     14.03s WALL (   51202 calls)
 
     PWSCF        :  1m 9.79s CPU     1m15.53s WALL

 
   This run was terminated on:   1:10:36  29Jul2017            

=------------------------------------------------------------------------------=
   JOB DONE.
=------------------------------------------------------------------------------=
