
     Program PWSCF v.6.0 (svn rev. 13079) starts on 29Jul2017 at  1:27:10 

     This program is part of the open-source Quantum ESPRESSO suite
     for quantum simulation of materials; please cite
         "P. Giannozzi et al., J. Phys.:Condens. Matter 21 395502 (2009);
          URL http://www.quantum-espresso.org", 
     in publications or presentations arising from this work. More details at
     http://www.quantum-espresso.org/quote

     Parallel version (MPI), running on    10 processors
     R & G space division:  proc/nbgrp/npool/nimage =      10
     Reading input from input/dftmin-Gold5-multi-20.in

     Current dimensions of program PWSCF are:
     Max number of different atomic species (ntypx) = 10
     Max number of k-points (npk) =  40000
     Max angular momentum in pseudopotentials (lmaxx) =  3
     Message from routine iosys:
     pot_extrapolation='second-order' not available, using 'atomic'
     Message from routine iosys:
     wfc_extrapolation='second-order' not available, using 'atomic'

     Subspace diagonalization in iterative solution of the eigenvalue problem:
     a serial algorithm will be used

 
     Parallelization info
     --------------------
     sticks:   dense  smooth     PW     G-vecs:    dense   smooth      PW
     Min         380     380     94                17748    17748    2208
     Max         381     381     95                17753    17753    2213
     Sum        3809    3809    949               177509   177509   22119
 


     bravais-lattice index     =            1
     lattice parameter (alat)  =      20.0000  a.u.
     unit-cell volume          =    8000.0000 (a.u.)^3
     number of atoms/cell      =            5
     number of atomic types    =            1
     number of electrons       =        55.00
     number of Kohn-Sham states=           34
     kinetic-energy cutoff     =      30.0000  Ry
     charge density cutoff     =     120.0000  Ry
     convergence threshold     =      1.0E-08
     mixing beta               =       0.7000
     number of iterations used =            8  plain     mixing
     Exchange-correlation      = BLYP ( 1  3  1  3 0 0)
     nstep                     =           50


     celldm(1)=  20.000000  celldm(2)=   0.000000  celldm(3)=   0.000000
     celldm(4)=   0.000000  celldm(5)=   0.000000  celldm(6)=   0.000000

     crystal axes: (cart. coord. in units of alat)
               a(1) = (   1.000000   0.000000   0.000000 )  
               a(2) = (   0.000000   1.000000   0.000000 )  
               a(3) = (   0.000000   0.000000   1.000000 )  

     reciprocal axes: (cart. coord. in units 2 pi/alat)
               b(1) = (  1.000000  0.000000  0.000000 )  
               b(2) = (  0.000000  1.000000  0.000000 )  
               b(3) = (  0.000000  0.000000  1.000000 )  


     PseudoPot. # 1 for Au read from file:
     ./Au.blyp-d-hgh.UPF
     MD5 check sum: c10d8bae01f806c36a1643a1c69a8479
     Pseudo is Norm-conserving, Zval = 11.0
     Generated in analytical, separable form
     Using radial grid of 1279 points,  6 beta functions with: 
                l(1) =   0
                l(2) =   0
                l(3) =   1
                l(4) =   1
                l(5) =   2
                l(6) =   2

     atomic species   valence    mass     pseudopotential
        Au            11.00    28.08600     Au( 1.00)

     No symmetry found



   Cartesian axes

     site n.     atom                  positions (alat units)
         1           Au  tau(   1) = (  -0.0853421   0.1792615  -0.0518544  )
         2           Au  tau(   2) = (  -0.0390917   0.1936035   0.2061752  )
         3           Au  tau(   3) = (   0.1442476   0.1076459   0.0409927  )
         4           Au  tau(   4) = (   0.2089449   0.1766834   0.2887827  )
         5           Au  tau(   5) = (   0.3853056   0.0702250   0.1248338  )

     number of k points=     1  Marzari-Vanderbilt smearing, width (Ry)=  0.0250
                       cart. coord. in units 2pi/alat
        k(    1) = (   0.0000000   0.0000000   0.0000000), wk =   2.0000000

     Dense  grid:   177509 G-vectors     FFT dimensions: (  72,  72,  72)

     Estimated max dynamical RAM per process >      15.04Mb

     Estimated total allocated dynamical RAM >     150.39Mb

     Initial potential from superposition of free atoms
     Check: negative starting charge=   -0.006465

     starting charge   54.99940, renormalised to   55.00000

     negative rho (up, down):  6.465E-03 0.000E+00
     Starting wfc are   45 randomized atomic wfcs

     total cpu time spent up to now is        0.4 secs

     per-process dynamical memory:    41.0 Mb

     Self-consistent Calculation

     iteration #  1     ecut=    30.00 Ry     beta=0.70
     Davidson diagonalization with overlap
     ethr =  1.00E-02,  avg # of iterations =  3.0

     Threshold (ethr) on eigenvalues was too large:
     Diagonalizing with lowered threshold

     Davidson diagonalization with overlap
     ethr =  3.88E-04,  avg # of iterations =  5.0

     negative rho (up, down):  8.899E-04 0.000E+00

     total cpu time spent up to now is        0.9 secs

     total energy              =    -329.38664650 Ry
     Harris-Foulkes estimate   =    -329.54461896 Ry
     estimated scf accuracy    <       0.26661139 Ry

     iteration #  2     ecut=    30.00 Ry     beta=0.70
     Davidson diagonalization with overlap
     ethr =  4.85E-04,  avg # of iterations =  3.0

     negative rho (up, down):  3.596E-04 0.000E+00

     total cpu time spent up to now is        1.2 secs

     total energy              =    -329.43658970 Ry
     Harris-Foulkes estimate   =    -329.54244792 Ry
     estimated scf accuracy    <       0.20843987 Ry

     iteration #  3     ecut=    30.00 Ry     beta=0.70
     Davidson diagonalization with overlap
     ethr =  3.79E-04,  avg # of iterations =  2.0

     negative rho (up, down):  1.254E-04 0.000E+00

     total cpu time spent up to now is        1.5 secs

     total energy              =    -329.47982241 Ry
     Harris-Foulkes estimate   =    -329.49346357 Ry
     estimated scf accuracy    <       0.03148386 Ry

     iteration #  4     ecut=    30.00 Ry     beta=0.70
     Davidson diagonalization with overlap
     ethr =  5.72E-05,  avg # of iterations = 12.0

     negative rho (up, down):  2.125E-06 0.000E+00

     total cpu time spent up to now is        1.9 secs

     total energy              =    -329.48675382 Ry
     Harris-Foulkes estimate   =    -329.48790556 Ry
     estimated scf accuracy    <       0.00313411 Ry

     iteration #  5     ecut=    30.00 Ry     beta=0.70
     Davidson diagonalization with overlap
     ethr =  5.70E-06,  avg # of iterations =  6.0

     total cpu time spent up to now is        2.2 secs

     total energy              =    -329.48732626 Ry
     Harris-Foulkes estimate   =    -329.48782389 Ry
     estimated scf accuracy    <       0.00122987 Ry

     iteration #  6     ecut=    30.00 Ry     beta=0.70
     Davidson diagonalization with overlap
     ethr =  2.24E-06,  avg # of iterations =  2.0

     total cpu time spent up to now is        2.5 secs

     total energy              =    -329.48755661 Ry
     Harris-Foulkes estimate   =    -329.48762729 Ry
     estimated scf accuracy    <       0.00017759 Ry

     iteration #  7     ecut=    30.00 Ry     beta=0.70
     Davidson diagonalization with overlap
     ethr =  3.23E-07,  avg # of iterations =  2.0

     total cpu time spent up to now is        2.8 secs

     total energy              =    -329.48759400 Ry
     Harris-Foulkes estimate   =    -329.48760037 Ry
     estimated scf accuracy    <       0.00001401 Ry

     iteration #  8     ecut=    30.00 Ry     beta=0.70
     Davidson diagonalization with overlap
     ethr =  2.55E-08,  avg # of iterations =  2.0

     total cpu time spent up to now is        3.1 secs

     total energy              =    -329.48759654 Ry
     Harris-Foulkes estimate   =    -329.48759821 Ry
     estimated scf accuracy    <       0.00000302 Ry

     iteration #  9     ecut=    30.00 Ry     beta=0.70
     Davidson diagonalization with overlap
     ethr =  5.50E-09,  avg # of iterations =  2.0

     total cpu time spent up to now is        3.4 secs

     total energy              =    -329.48759713 Ry
     Harris-Foulkes estimate   =    -329.48759737 Ry
     estimated scf accuracy    <       0.00000047 Ry

     iteration # 10     ecut=    30.00 Ry     beta=0.70
     Davidson diagonalization with overlap
     ethr =  8.55E-10,  avg # of iterations =  2.0

     total cpu time spent up to now is        3.6 secs

     total energy              =    -329.48759708 Ry
     Harris-Foulkes estimate   =    -329.48759733 Ry
     estimated scf accuracy    <       0.00000033 Ry

     iteration # 11     ecut=    30.00 Ry     beta=0.70
     Davidson diagonalization with overlap
     ethr =  6.01E-10,  avg # of iterations =  1.0

     total cpu time spent up to now is        3.9 secs

     End of self-consistent calculation

          k = 0.0000 0.0000 0.0000 ( 22119 PWs)   bands (ev):

    -8.4520  -7.7469  -7.7461  -7.1597  -6.7909  -6.6814  -6.5628  -6.5509
    -6.2365  -6.0803  -5.8365  -5.7846  -5.6709  -5.6331  -5.5014  -5.3544
    -5.3136  -5.2772  -5.1952  -5.1685  -5.1514  -5.1056  -5.0273  -4.9868
    -4.7638  -4.7386  -4.5428  -3.7583  -2.4904  -2.2798  -0.5295  -0.1450
     0.4219   0.7646

     the Fermi energy is    -3.7183 ev

!    total energy              =    -329.48759708 Ry
     Harris-Foulkes estimate   =    -329.48759713 Ry
     estimated scf accuracy    <          4.6E-09 Ry

     The total energy is the sum of the following terms:

     one-electron contribution =    -604.21526516 Ry
     hartree contribution      =     323.56038369 Ry
     xc contribution           =     -51.38223565 Ry
     ewald contribution        =       2.55560473 Ry
     smearing contrib. (-TS)   =      -0.00608469 Ry

     convergence has been achieved in  11 iterations

     Forces acting on atoms (Ry/au):

     atom    1 type  1   force =     0.00916146   -0.00487052    0.00957349
     atom    2 type  1   force =    -0.00231692    0.00484500    0.00019641
     atom    3 type  1   force =     0.00732679    0.00045770   -0.01271358
     atom    4 type  1   force =     0.00256385   -0.00324215    0.00099482
     atom    5 type  1   force =    -0.01673518    0.00280996    0.00194885

     Total force =     0.027451     Total SCF correction =     0.000228

     BFGS Geometry Optimization

     number of scf cycles    =   1
     number of bfgs steps    =   0

     energy   new            =    -329.4875970833 Ry

     new trust radius        =       0.0170809875 bohr
     new conv_thr            =       0.0000000100 Ry


ATOMIC_POSITIONS (bohr)
Au      -1.697680540   3.580359483  -1.027514505
Au      -0.784150920   3.876915003   4.123699414
Au       2.892277791   2.153376701   0.807140425
Au       4.181460848   3.530425848   5.776647818
Au       7.689376821   1.407309965   2.498624848



     Writing output data file pwscf.save
     Check: negative starting charge=   -0.006465
     NEW-OLD atomic charge density approx. for the potential
     Check: negative starting charge=   -0.006462

     negative rho (up, down):  3.837E-05 0.000E+00

     total cpu time spent up to now is        4.2 secs

     per-process dynamical memory:    42.9 Mb

     Self-consistent Calculation

     iteration #  1     ecut=    30.00 Ry     beta=0.70
     Davidson diagonalization with overlap
     ethr =  1.00E-06,  avg # of iterations =  4.0

     negative rho (up, down):  1.458E-07 0.000E+00

     total cpu time spent up to now is        4.6 secs

     total energy              =    -329.48827084 Ry
     Harris-Foulkes estimate   =    -329.48828328 Ry
     estimated scf accuracy    <       0.00006173 Ry

     iteration #  2     ecut=    30.00 Ry     beta=0.70
     Davidson diagonalization with overlap
     ethr =  1.12E-07,  avg # of iterations =  3.0

     negative rho (up, down):  1.886E-08 0.000E+00

     total cpu time spent up to now is        5.0 secs

     total energy              =    -329.48826387 Ry
     Harris-Foulkes estimate   =    -329.48832924 Ry
     estimated scf accuracy    <       0.00016161 Ry

     iteration #  3     ecut=    30.00 Ry     beta=0.70
     Davidson diagonalization with overlap
     ethr =  1.12E-07,  avg # of iterations =  2.0

     total cpu time spent up to now is        5.2 secs

     total energy              =    -329.48829541 Ry
     Harris-Foulkes estimate   =    -329.48829936 Ry
     estimated scf accuracy    <       0.00001051 Ry

     iteration #  4     ecut=    30.00 Ry     beta=0.70
     Davidson diagonalization with overlap
     ethr =  1.91E-08,  avg # of iterations =  2.0

     total cpu time spent up to now is        5.5 secs

     total energy              =    -329.48829652 Ry
     Harris-Foulkes estimate   =    -329.48829826 Ry
     estimated scf accuracy    <       0.00000216 Ry

     iteration #  5     ecut=    30.00 Ry     beta=0.70
     Davidson diagonalization with overlap
     ethr =  3.93E-09,  avg # of iterations =  2.0

     total cpu time spent up to now is        5.8 secs

     total energy              =    -329.48829664 Ry
     Harris-Foulkes estimate   =    -329.48829722 Ry
     estimated scf accuracy    <       0.00000068 Ry

     iteration #  6     ecut=    30.00 Ry     beta=0.70
     Davidson diagonalization with overlap
     ethr =  1.24E-09,  avg # of iterations =  2.0

     total cpu time spent up to now is        6.0 secs

     total energy              =    -329.48829682 Ry
     Harris-Foulkes estimate   =    -329.48829678 Ry
     estimated scf accuracy    <       0.00000002 Ry

     iteration #  7     ecut=    30.00 Ry     beta=0.70
     Davidson diagonalization with overlap
     ethr =  3.34E-11,  avg # of iterations =  3.0

     total cpu time spent up to now is        6.4 secs

     End of self-consistent calculation

          k = 0.0000 0.0000 0.0000 ( 22119 PWs)   bands (ev):

    -8.4626  -7.7552  -7.7299  -7.1653  -6.7988  -6.6935  -6.5618  -6.5538
    -6.2399  -6.0857  -5.8505  -5.7841  -5.6795  -5.6393  -5.5016  -5.3562
    -5.3100  -5.2767  -5.1953  -5.1690  -5.1537  -5.1066  -5.0235  -4.9847
    -4.7664  -4.7379  -4.5387  -3.7552  -2.4840  -2.2767  -0.5300  -0.1491
     0.4253   0.7662

     the Fermi energy is    -3.7152 ev

!    total energy              =    -329.48829679 Ry
     Harris-Foulkes estimate   =    -329.48829683 Ry
     estimated scf accuracy    <          6.8E-09 Ry

     The total energy is the sum of the following terms:

     one-electron contribution =    -604.72828902 Ry
     hartree contribution      =     323.81382568 Ry
     xc contribution           =     -51.38402231 Ry
     ewald contribution        =       2.81627985 Ry
     smearing contrib. (-TS)   =      -0.00609098 Ry

     convergence has been achieved in   7 iterations

     Forces acting on atoms (Ry/au):

     atom    1 type  1   force =     0.00807871   -0.00441275    0.00832835
     atom    2 type  1   force =    -0.00121289    0.00450514    0.00031457
     atom    3 type  1   force =     0.00603986    0.00086853   -0.01150401
     atom    4 type  1   force =     0.00113057   -0.00284807    0.00111750
     atom    5 type  1   force =    -0.01403625    0.00188714    0.00174359

     Total force =     0.023660     Total SCF correction =     0.000427

     number of scf cycles    =   2
     number of bfgs steps    =   1

     energy   old            =    -329.4875970833 Ry
     energy   new            =    -329.4882967886 Ry

     CASE: energy  _new < energy  _old


     WARNING: bfgs curvature condition failed, Theta= 0.931
     new trust radius        =       0.0187890862 bohr
     new conv_thr            =       0.0000000007 Ry


ATOMIC_POSITIONS (bohr)
Au      -1.687104801   3.574599180  -1.016596170
Au      -0.785854040   3.882780296   4.124091576
Au       2.900242995   2.154449092   0.792121365
Au       4.183097886   3.526695964   5.778077345
Au       7.670901960   1.409862468   2.500903884



     Writing output data file pwscf.save
     Check: negative starting charge=   -0.006462
     NEW-OLD atomic charge density approx. for the potential
     Check: negative starting charge=   -0.006458

     negative rho (up, down):  5.740E-05 0.000E+00

     total cpu time spent up to now is        6.6 secs

     per-process dynamical memory:    50.6 Mb

     Self-consistent Calculation

     iteration #  1     ecut=    30.00 Ry     beta=0.70
     Davidson diagonalization with overlap
     ethr =  1.00E-06,  avg # of iterations =  4.0

     negative rho (up, down):  3.206E-07 0.000E+00

     total cpu time spent up to now is        7.1 secs

     total energy              =    -329.48893548 Ry
     Harris-Foulkes estimate   =    -329.48895123 Ry
     estimated scf accuracy    <       0.00007795 Ry

     iteration #  2     ecut=    30.00 Ry     beta=0.70
     Davidson diagonalization with overlap
     ethr =  1.42E-07,  avg # of iterations =  3.0

     negative rho (up, down):  4.227E-08 0.000E+00

     total cpu time spent up to now is        7.5 secs

     total energy              =    -329.48892755 Ry
     Harris-Foulkes estimate   =    -329.48900695 Ry
     estimated scf accuracy    <       0.00019405 Ry

     iteration #  3     ecut=    30.00 Ry     beta=0.70
     Davidson diagonalization with overlap
     ethr =  1.42E-07,  avg # of iterations =  2.0

     total cpu time spent up to now is        7.7 secs

     total energy              =    -329.48896618 Ry
     Harris-Foulkes estimate   =    -329.48897119 Ry
     estimated scf accuracy    <       0.00001440 Ry

     iteration #  4     ecut=    30.00 Ry     beta=0.70
     Davidson diagonalization with overlap
     ethr =  2.62E-08,  avg # of iterations =  2.0

     total cpu time spent up to now is        8.0 secs

     total energy              =    -329.48896809 Ry
     Harris-Foulkes estimate   =    -329.48896998 Ry
     estimated scf accuracy    <       0.00000267 Ry

     iteration #  5     ecut=    30.00 Ry     beta=0.70
     Davidson diagonalization with overlap
     ethr =  4.85E-09,  avg # of iterations =  2.0

     total cpu time spent up to now is        8.3 secs

     total energy              =    -329.48896838 Ry
     Harris-Foulkes estimate   =    -329.48896897 Ry
     estimated scf accuracy    <       0.00000090 Ry

     iteration #  6     ecut=    30.00 Ry     beta=0.70
     Davidson diagonalization with overlap
     ethr =  1.64E-09,  avg # of iterations =  2.0

     total cpu time spent up to now is        8.5 secs

     total energy              =    -329.48896844 Ry
     Harris-Foulkes estimate   =    -329.48896856 Ry
     estimated scf accuracy    <       0.00000002 Ry

     iteration #  7     ecut=    30.00 Ry     beta=0.70
     Davidson diagonalization with overlap
     ethr =  4.07E-11,  avg # of iterations =  3.0

     total cpu time spent up to now is        8.8 secs

     total energy              =    -329.48896840 Ry
     Harris-Foulkes estimate   =    -329.48896845 Ry
     estimated scf accuracy    <          7.1E-09 Ry

     iteration #  8     ecut=    30.00 Ry     beta=0.70
     Davidson diagonalization with overlap
     ethr =  1.28E-11,  avg # of iterations =  2.0

     total cpu time spent up to now is        9.1 secs

     total energy              =    -329.48896838 Ry
     Harris-Foulkes estimate   =    -329.48896840 Ry
     estimated scf accuracy    <          8.0E-10 Ry

     iteration #  9     ecut=    30.00 Ry     beta=0.70
     Davidson diagonalization with overlap
     ethr =  1.46E-12,  avg # of iterations =  3.0

     total cpu time spent up to now is        9.4 secs

     End of self-consistent calculation

          k = 0.0000 0.0000 0.0000 ( 22119 PWs)   bands (ev):

    -8.4752  -7.7645  -7.7129  -7.1725  -6.8080  -6.7078  -6.5733  -6.5442
    -6.2437  -6.0907  -5.8659  -5.7840  -5.6892  -5.6457  -5.5005  -5.3582
    -5.3061  -5.2760  -5.1954  -5.1696  -5.1563  -5.1074  -5.0187  -4.9820
    -4.7735  -4.7329  -4.5337  -3.7523  -2.4765  -2.2728  -0.5308  -0.1540
     0.4298   0.7680

     the Fermi energy is    -3.7124 ev

!    total energy              =    -329.48896835 Ry
     Harris-Foulkes estimate   =    -329.48896838 Ry
     estimated scf accuracy    <          2.3E-10 Ry

     The total energy is the sum of the following terms:

     one-electron contribution =    -605.31707456 Ry
     hartree contribution      =     324.10495718 Ry
     xc contribution           =     -51.38614519 Ry
     ewald contribution        =       3.11536542 Ry
     smearing contrib. (-TS)   =      -0.00607121 Ry

     convergence has been achieved in   9 iterations

     Forces acting on atoms (Ry/au):

     atom    1 type  1   force =     0.00672941   -0.00383113    0.00691990
     atom    2 type  1   force =    -0.00008601    0.00415273    0.00050406
     atom    3 type  1   force =     0.00489593    0.00121685   -0.01018835
     atom    4 type  1   force =    -0.00023680   -0.00247054    0.00123623
     atom    5 type  1   force =    -0.01130253    0.00093208    0.00152816

     Total force =     0.019830     Total SCF correction =     0.000053

     number of scf cycles    =   3
     number of bfgs steps    =   2

     energy   old            =    -329.4882967886 Ry
     energy   new            =    -329.4889683499 Ry

     CASE: energy  _new < energy  _old

     new trust radius        =       0.0281836293 bohr
     new conv_thr            =       0.0000000007 Ry


ATOMIC_POSITIONS (bohr)
Au      -1.670812160   3.565453659  -0.999800913
Au      -0.786870347   3.892518580   4.125120660
Au       2.912294742   2.156958068   0.767916783
Au       4.183574050   3.520773879   5.780812513
Au       7.643097715   1.412682814   2.504548957



     Writing output data file pwscf.save
     Check: negative starting charge=   -0.006458
     NEW-OLD atomic charge density approx. for the potential
     Check: negative starting charge=   -0.006447

     negative rho (up, down):  1.859E-04 0.000E+00

     total cpu time spent up to now is        9.7 secs

     per-process dynamical memory:    50.6 Mb

     Self-consistent Calculation

     iteration #  1     ecut=    30.00 Ry     beta=0.70
     Davidson diagonalization with overlap
     ethr =  1.00E-06,  avg # of iterations =  4.0

     negative rho (up, down):  3.174E-06 0.000E+00

     total cpu time spent up to now is       10.2 secs

     total energy              =    -329.48971210 Ry
     Harris-Foulkes estimate   =    -329.48973663 Ry
     estimated scf accuracy    <       0.00018311 Ry

     iteration #  2     ecut=    30.00 Ry     beta=0.70
     Davidson diagonalization with overlap
     ethr =  3.33E-07,  avg # of iterations =  3.0

     negative rho (up, down):  6.542E-07 0.000E+00

     total cpu time spent up to now is       10.5 secs

     total energy              =    -329.48969939 Ry
     Harris-Foulkes estimate   =    -329.48987193 Ry
     estimated scf accuracy    <       0.00041523 Ry

     iteration #  3     ecut=    30.00 Ry     beta=0.70
     Davidson diagonalization with overlap
     ethr =  3.33E-07,  avg # of iterations =  2.0

     total cpu time spent up to now is       10.7 secs

     total energy              =    -329.48978320 Ry
     Harris-Foulkes estimate   =    -329.48979649 Ry
     estimated scf accuracy    <       0.00003757 Ry

     iteration #  4     ecut=    30.00 Ry     beta=0.70
     Davidson diagonalization with overlap
     ethr =  6.83E-08,  avg # of iterations =  2.0

     total cpu time spent up to now is       11.0 secs

     total energy              =    -329.48979001 Ry
     Harris-Foulkes estimate   =    -329.48979290 Ry
     estimated scf accuracy    <       0.00000633 Ry

     iteration #  5     ecut=    30.00 Ry     beta=0.70
     Davidson diagonalization with overlap
     ethr =  1.15E-08,  avg # of iterations =  2.0

     total cpu time spent up to now is       11.3 secs

     total energy              =    -329.48979083 Ry
     Harris-Foulkes estimate   =    -329.48979207 Ry
     estimated scf accuracy    <       0.00000217 Ry

     iteration #  6     ecut=    30.00 Ry     beta=0.70
     Davidson diagonalization with overlap
     ethr =  3.94E-09,  avg # of iterations =  2.0

     total cpu time spent up to now is       11.5 secs

     total energy              =    -329.48979115 Ry
     Harris-Foulkes estimate   =    -329.48979127 Ry
     estimated scf accuracy    <       0.00000006 Ry

     iteration #  7     ecut=    30.00 Ry     beta=0.70
     Davidson diagonalization with overlap
     ethr =  1.03E-10,  avg # of iterations =  3.0

     total cpu time spent up to now is       11.8 secs

     total energy              =    -329.48979105 Ry
     Harris-Foulkes estimate   =    -329.48979118 Ry
     estimated scf accuracy    <       0.00000002 Ry

     iteration #  8     ecut=    30.00 Ry     beta=0.70
     Davidson diagonalization with overlap
     ethr =  3.24E-11,  avg # of iterations =  2.0

     total cpu time spent up to now is       12.1 secs

     total energy              =    -329.48979102 Ry
     Harris-Foulkes estimate   =    -329.48979105 Ry
     estimated scf accuracy    <          1.7E-09 Ry

     iteration #  9     ecut=    30.00 Ry     beta=0.70
     Davidson diagonalization with overlap
     ethr =  3.03E-12,  avg # of iterations =  3.0

     total cpu time spent up to now is       12.4 secs

     End of self-consistent calculation

          k = 0.0000 0.0000 0.0000 ( 22119 PWs)   bands (ev):

    -8.4948  -7.7784  -7.6898  -7.1844  -6.8225  -6.7306  -6.5907  -6.5304
    -6.2490  -6.0965  -5.8889  -5.7845  -5.7039  -5.6547  -5.4963  -5.3612
    -5.3006  -5.2745  -5.1958  -5.1704  -5.1603  -5.1086  -5.0109  -4.9773
    -4.7870  -4.7233  -4.5252  -3.7492  -2.4647  -2.2661  -0.5320  -0.1620
     0.4373   0.7707

     the Fermi energy is    -3.7096 ev

!    total energy              =    -329.48979100 Ry
     Harris-Foulkes estimate   =    -329.48979103 Ry
     estimated scf accuracy    <          3.8E-10 Ry

     The total energy is the sum of the following terms:

     one-electron contribution =    -606.22075522 Ry
     hartree contribution      =     324.55186608 Ry
     xc contribution           =     -51.38972740 Ry
     ewald contribution        =       3.57481806 Ry
     smearing contrib. (-TS)   =      -0.00599252 Ry

     convergence has been achieved in   9 iterations

     Forces acting on atoms (Ry/au):

     atom    1 type  1   force =     0.00446208   -0.00293192    0.00489725
     atom    2 type  1   force =     0.00149913    0.00367727    0.00085808
     atom    3 type  1   force =     0.00361774    0.00155456   -0.00842942
     atom    4 type  1   force =    -0.00179776   -0.00196733    0.00141429
     atom    5 type  1   force =    -0.00778120   -0.00033259    0.00125980

     Total force =     0.015063     Total SCF correction =     0.000084

     number of scf cycles    =   4
     number of bfgs steps    =   3

     energy   old            =    -329.4889683499 Ry
     energy   new            =    -329.4897909999 Ry

     CASE: energy  _new < energy  _old

     new trust radius        =       0.0422754440 bohr
     new conv_thr            =       0.0000000008 Ry


ATOMIC_POSITIONS (bohr)
Au      -1.647420350   3.551594804  -0.975074840
Au      -0.785510132   3.908218024   4.127569505
Au       2.930376576   2.161902117   0.730024610
Au       4.181336347   3.511644361   5.785830326
Au       7.602501559   1.415027694   2.510248400



     Writing output data file pwscf.save
     Check: negative starting charge=   -0.006447
     NEW-OLD atomic charge density approx. for the potential
     Check: negative starting charge=   -0.006431

     negative rho (up, down):  4.542E-04 0.000E+00

     total cpu time spent up to now is       12.7 secs

     per-process dynamical memory:    50.7 Mb

     Self-consistent Calculation

     iteration #  1     ecut=    30.00 Ry     beta=0.70
     Davidson diagonalization with overlap
     ethr =  1.00E-06,  avg # of iterations =  4.0

     negative rho (up, down):  1.666E-05 0.000E+00

     total cpu time spent up to now is       13.2 secs

     total energy              =    -329.49044145 Ry
     Harris-Foulkes estimate   =    -329.49037979 Ry
     estimated scf accuracy    <       0.00040928 Ry

     iteration #  2     ecut=    30.00 Ry     beta=0.70
     Davidson diagonalization with overlap
     ethr =  7.44E-07,  avg # of iterations =  7.0

     negative rho (up, down):  4.496E-06 0.000E+00

     total cpu time spent up to now is       13.6 secs

     total energy              =    -329.49042569 Ry
     Harris-Foulkes estimate   =    -329.49078025 Ry
     estimated scf accuracy    <       0.00083831 Ry

     iteration #  3     ecut=    30.00 Ry     beta=0.70
     Davidson diagonalization with overlap
     ethr =  7.44E-07,  avg # of iterations =  2.0

     negative rho (up, down):  1.127E-07 0.000E+00

     total cpu time spent up to now is       13.8 secs

     total energy              =    -329.49059958 Ry
     Harris-Foulkes estimate   =    -329.49063065 Ry
     estimated scf accuracy    <       0.00009367 Ry

     iteration #  4     ecut=    30.00 Ry     beta=0.70
     Davidson diagonalization with overlap
     ethr =  1.70E-07,  avg # of iterations =  2.0

     total cpu time spent up to now is       14.1 secs

     total energy              =    -329.49061693 Ry
     Harris-Foulkes estimate   =    -329.49062312 Ry
     estimated scf accuracy    <       0.00001405 Ry

     iteration #  5     ecut=    30.00 Ry     beta=0.70
     Davidson diagonalization with overlap
     ethr =  2.55E-08,  avg # of iterations =  2.0

     total cpu time spent up to now is       14.4 secs

     total energy              =    -329.49061930 Ry
     Harris-Foulkes estimate   =    -329.49062155 Ry
     estimated scf accuracy    <       0.00000494 Ry

     iteration #  6     ecut=    30.00 Ry     beta=0.70
     Davidson diagonalization with overlap
     ethr =  8.98E-09,  avg # of iterations =  2.0

     total cpu time spent up to now is       14.6 secs

     total energy              =    -329.49062020 Ry
     Harris-Foulkes estimate   =    -329.49062031 Ry
     estimated scf accuracy    <       0.00000013 Ry

     iteration #  7     ecut=    30.00 Ry     beta=0.70
     Davidson diagonalization with overlap
     ethr =  2.39E-10,  avg # of iterations =  3.0

     total cpu time spent up to now is       15.0 secs

     total energy              =    -329.49062021 Ry
     Harris-Foulkes estimate   =    -329.49062026 Ry
     estimated scf accuracy    <       0.00000004 Ry

     iteration #  8     ecut=    30.00 Ry     beta=0.70
     Davidson diagonalization with overlap
     ethr =  6.60E-11,  avg # of iterations =  2.0

     total cpu time spent up to now is       15.2 secs

     total energy              =    -329.49062021 Ry
     Harris-Foulkes estimate   =    -329.49062022 Ry
     estimated scf accuracy    <          3.6E-09 Ry

     iteration #  9     ecut=    30.00 Ry     beta=0.70
     Davidson diagonalization with overlap
     ethr =  6.56E-12,  avg # of iterations =  3.0

     total cpu time spent up to now is       15.5 secs

     End of self-consistent calculation

          k = 0.0000 0.0000 0.0000 ( 22119 PWs)   bands (ev):

    -8.5234  -7.7978  -7.6618  -7.2011  -6.8444  -6.7648  -6.6169  -6.5132
    -6.2554  -6.1017  -5.9218  -5.7864  -5.7242  -5.6661  -5.4845  -5.3656
    -5.2959  -5.2695  -5.1967  -5.1715  -5.1663  -5.1107  -4.9981  -4.9696
    -4.8077  -4.7096  -4.5114  -3.7473  -2.4468  -2.2552  -0.5340  -0.1747
     0.4496   0.7744

     the Fermi energy is    -3.7086 ev

!    total energy              =    -329.49062020 Ry
     Harris-Foulkes estimate   =    -329.49062021 Ry
     estimated scf accuracy    <          7.3E-10 Ry

     The total energy is the sum of the following terms:

     one-electron contribution =    -607.52927152 Ry
     hartree contribution      =     325.19955856 Ry
     xc contribution           =     -51.39557282 Ry
     ewald contribution        =       4.24044393 Ry
     smearing contrib. (-TS)   =      -0.00577836 Ry

     convergence has been achieved in   9 iterations

     Forces acting on atoms (Ry/au):

     atom    1 type  1   force =     0.00083116   -0.00179512    0.00244871
     atom    2 type  1   force =     0.00326251    0.00306606    0.00145970
     atom    3 type  1   force =     0.00192229    0.00189891   -0.00664902
     atom    4 type  1   force =    -0.00355442   -0.00131222    0.00168277
     atom    5 type  1   force =    -0.00246154   -0.00185763    0.00105784

     Total force =     0.010555     Total SCF correction =     0.000122

     number of scf cycles    =   5
     number of bfgs steps    =   4

     energy   old            =    -329.4897909999 Ry
     energy   new            =    -329.4906202010 Ry

     CASE: energy  _new < energy  _old

     new trust radius        =       0.0595705603 bohr
     new conv_thr            =       0.0000000007 Ry


ATOMIC_POSITIONS (bohr)
Au      -1.620210332   3.533037805  -0.943081801
Au      -0.778804154   3.930975677   4.132849006
Au       2.954069127   2.170473657   0.676044582
Au       4.173289054   3.499172746   5.794275098
Au       7.552940306   1.414727115   2.518511115



     Writing output data file pwscf.save
     Check: negative starting charge=   -0.006431
     NEW-OLD atomic charge density approx. for the potential
     Check: negative starting charge=   -0.006413

     negative rho (up, down):  7.753E-04 0.000E+00

     total cpu time spent up to now is       15.9 secs

     per-process dynamical memory:    50.7 Mb

     Self-consistent Calculation

     iteration #  1     ecut=    30.00 Ry     beta=0.70
     Davidson diagonalization with overlap
     ethr =  1.00E-06,  avg # of iterations =  6.0

     negative rho (up, down):  4.213E-05 0.000E+00

     total cpu time spent up to now is       16.5 secs

     total energy              =    -329.49076924 Ry
     Harris-Foulkes estimate   =    -329.49048858 Ry
     estimated scf accuracy    <       0.00072113 Ry

     iteration #  2     ecut=    30.00 Ry     beta=0.70
     Davidson diagonalization with overlap
     ethr =  1.31E-06,  avg # of iterations =  7.0

     negative rho (up, down):  1.302E-05 0.000E+00

     total cpu time spent up to now is       16.8 secs

     total energy              =    -329.49075936 Ry
     Harris-Foulkes estimate   =    -329.49132457 Ry
     estimated scf accuracy    <       0.00130976 Ry

     iteration #  3     ecut=    30.00 Ry     beta=0.70
     Davidson diagonalization with overlap
     ethr =  1.31E-06,  avg # of iterations =  2.0

     negative rho (up, down):  6.468E-07 0.000E+00

     total cpu time spent up to now is       17.2 secs

     total energy              =    -329.49103359 Ry
     Harris-Foulkes estimate   =    -329.49109825 Ry
     estimated scf accuracy    <       0.00018817 Ry

     iteration #  4     ecut=    30.00 Ry     beta=0.70
     Davidson diagonalization with overlap
     ethr =  3.42E-07,  avg # of iterations =  2.0

     total cpu time spent up to now is       17.4 secs

     total energy              =    -329.49107050 Ry
     Harris-Foulkes estimate   =    -329.49107906 Ry
     estimated scf accuracy    <       0.00002362 Ry

     iteration #  5     ecut=    30.00 Ry     beta=0.70
     Davidson diagonalization with overlap
     ethr =  4.30E-08,  avg # of iterations =  3.0

     total cpu time spent up to now is       17.7 secs

     total energy              =    -329.49107453 Ry
     Harris-Foulkes estimate   =    -329.49107821 Ry
     estimated scf accuracy    <       0.00000804 Ry

     iteration #  6     ecut=    30.00 Ry     beta=0.70
     Davidson diagonalization with overlap
     ethr =  1.46E-08,  avg # of iterations =  2.0

     total cpu time spent up to now is       18.0 secs

     total energy              =    -329.49107574 Ry
     Harris-Foulkes estimate   =    -329.49107616 Ry
     estimated scf accuracy    <       0.00000020 Ry

     iteration #  7     ecut=    30.00 Ry     beta=0.70
     Davidson diagonalization with overlap
     ethr =  3.72E-10,  avg # of iterations =  3.0

     total cpu time spent up to now is       18.3 secs

     total energy              =    -329.49107556 Ry
     Harris-Foulkes estimate   =    -329.49107583 Ry
     estimated scf accuracy    <       0.00000005 Ry

     iteration #  8     ecut=    30.00 Ry     beta=0.70
     Davidson diagonalization with overlap
     ethr =  9.91E-11,  avg # of iterations =  2.0

     total cpu time spent up to now is       18.5 secs

     total energy              =    -329.49107557 Ry
     Harris-Foulkes estimate   =    -329.49107558 Ry
     estimated scf accuracy    <          6.9E-09 Ry

     iteration #  9     ecut=    30.00 Ry     beta=0.70
     Davidson diagonalization with overlap
     ethr =  1.25E-11,  avg # of iterations =  2.0

     total cpu time spent up to now is       18.8 secs

     total energy              =    -329.49107557 Ry
     Harris-Foulkes estimate   =    -329.49107558 Ry
     estimated scf accuracy    <          2.2E-09 Ry

     iteration # 10     ecut=    30.00 Ry     beta=0.70
     Davidson diagonalization with overlap
     ethr =  4.06E-12,  avg # of iterations =  2.0

     total cpu time spent up to now is       19.1 secs

     End of self-consistent calculation

          k = 0.0000 0.0000 0.0000 ( 22119 PWs)   bands (ev):

    -8.5543  -7.8169  -7.6379  -7.2147  -6.8715  -6.8074  -6.6497  -6.4964
    -6.2603  -6.1025  -5.9607  -5.7893  -5.7468  -5.6773  -5.4591  -5.3717
    -5.2970  -5.2570  -5.1985  -5.1737  -5.1714  -5.1152  -4.9802  -4.9578
    -4.8330  -4.6956  -4.4911  -3.7500  -2.4244  -2.2401  -0.5364  -0.1925
     0.4674   0.7787

     the Fermi energy is    -3.7133 ev

!    total energy              =    -329.49107551 Ry
     Harris-Foulkes estimate   =    -329.49107557 Ry
     estimated scf accuracy    <          6.0E-10 Ry

     The total energy is the sum of the following terms:

     one-electron contribution =    -609.00801035 Ry
     hartree contribution      =     325.93314528 Ry
     xc contribution           =     -51.40342847 Ry
     ewald contribution        =       4.99250933 Ry
     smearing contrib. (-TS)   =      -0.00529130 Ry

     convergence has been achieved in  10 iterations

     Forces acting on atoms (Ry/au):

     atom    1 type  1   force =    -0.00418884   -0.00063133   -0.00034359
     atom    2 type  1   force =     0.00396292    0.00206927    0.00220193
     atom    3 type  1   force =    -0.00024722    0.00230393   -0.00530636
     atom    4 type  1   force =    -0.00516494   -0.00079755    0.00181309
     atom    5 type  1   force =     0.00563807   -0.00294432    0.00163493

     Total force =     0.012254     Total SCF correction =     0.000073

     number of scf cycles    =   6
     number of bfgs steps    =   5

     energy   old            =    -329.4906202010 Ry
     energy   new            =    -329.4910755091 Ry

     CASE: energy  _new < energy  _old

     new trust radius        =       0.0169091652 bohr
     new conv_thr            =       0.0000000005 Ry


ATOMIC_POSITIONS (bohr)
Au      -1.619237916   3.528802646  -0.937149672
Au      -0.773884239   3.937390006   4.136058568
Au       2.958506189   2.174327590   0.660189629
Au       4.166894698   3.495924788   5.797660746
Au       7.549005267   1.411941970   2.521838730



     Writing output data file pwscf.save
     Check: negative starting charge=   -0.006413
     NEW-OLD atomic charge density approx. for the potential
     Check: negative starting charge=   -0.006406

     negative rho (up, down):  2.287E-05 0.000E+00

     total cpu time spent up to now is       19.4 secs

     per-process dynamical memory:    50.7 Mb

     Self-consistent Calculation

     iteration #  1     ecut=    30.00 Ry     beta=0.70
     Davidson diagonalization with overlap
     ethr =  1.00E-06,  avg # of iterations =  4.0

     Threshold (ethr) on eigenvalues was too large:
     Diagonalizing with lowered threshold

     Davidson diagonalization with overlap
     ethr =  7.23E-08,  avg # of iterations =  1.0

     negative rho (up, down):  3.441E-08 0.000E+00

     total cpu time spent up to now is       20.1 secs

     total energy              =    -329.49121152 Ry
     Harris-Foulkes estimate   =    -329.49122142 Ry
     estimated scf accuracy    <       0.00003994 Ry

     iteration #  2     ecut=    30.00 Ry     beta=0.70
     Davidson diagonalization with overlap
     ethr =  7.26E-08,  avg # of iterations =  2.0

     total cpu time spent up to now is       20.4 secs

     total energy              =    -329.49121628 Ry
     Harris-Foulkes estimate   =    -329.49123365 Ry
     estimated scf accuracy    <       0.00003549 Ry

     iteration #  3     ecut=    30.00 Ry     beta=0.70
     Davidson diagonalization with overlap
     ethr =  6.45E-08,  avg # of iterations =  2.0

     total cpu time spent up to now is       20.6 secs

     total energy              =    -329.49122255 Ry
     Harris-Foulkes estimate   =    -329.49122692 Ry
     estimated scf accuracy    <       0.00000886 Ry

     iteration #  4     ecut=    30.00 Ry     beta=0.70
     Davidson diagonalization with overlap
     ethr =  1.61E-08,  avg # of iterations =  2.0

     total cpu time spent up to now is       20.9 secs

     total energy              =    -329.49122367 Ry
     Harris-Foulkes estimate   =    -329.49122529 Ry
     estimated scf accuracy    <       0.00000221 Ry

     iteration #  5     ecut=    30.00 Ry     beta=0.70
     Davidson diagonalization with overlap
     ethr =  4.01E-09,  avg # of iterations =  2.0

     total cpu time spent up to now is       21.2 secs

     total energy              =    -329.49122389 Ry
     Harris-Foulkes estimate   =    -329.49122411 Ry
     estimated scf accuracy    <       0.00000020 Ry

     iteration #  6     ecut=    30.00 Ry     beta=0.70
     Davidson diagonalization with overlap
     ethr =  3.66E-10,  avg # of iterations =  2.0

     total cpu time spent up to now is       21.4 secs

     total energy              =    -329.49122393 Ry
     Harris-Foulkes estimate   =    -329.49122395 Ry
     estimated scf accuracy    <       0.00000002 Ry

     iteration #  7     ecut=    30.00 Ry     beta=0.70
     Davidson diagonalization with overlap
     ethr =  3.31E-11,  avg # of iterations =  2.0

     total cpu time spent up to now is       21.7 secs

     total energy              =    -329.49122386 Ry
     Harris-Foulkes estimate   =    -329.49122394 Ry
     estimated scf accuracy    <          6.3E-09 Ry

     iteration #  8     ecut=    30.00 Ry     beta=0.70
     Davidson diagonalization with overlap
     ethr =  1.14E-11,  avg # of iterations =  2.0

     total cpu time spent up to now is       22.0 secs

     total energy              =    -329.49122385 Ry
     Harris-Foulkes estimate   =    -329.49122386 Ry
     estimated scf accuracy    <          1.4E-09 Ry

     iteration #  9     ecut=    30.00 Ry     beta=0.70
     Davidson diagonalization with overlap
     ethr =  2.50E-12,  avg # of iterations =  2.0

     total cpu time spent up to now is       22.3 secs

     End of self-consistent calculation

          k = 0.0000 0.0000 0.0000 ( 22119 PWs)   bands (ev):

    -8.5492  -7.8102  -7.6348  -7.2129  -6.8725  -6.8132  -6.6488  -6.4905
    -6.2618  -6.0971  -5.9635  -5.7871  -5.7490  -5.6777  -5.4514  -5.3739
    -5.2994  -5.2534  -5.1998  -5.1734  -5.1723  -5.1170  -4.9784  -4.9545
    -4.8370  -4.6969  -4.4866  -3.7546  -2.4241  -2.2364  -0.5362  -0.1973
     0.4708   0.7783

     the Fermi energy is    -3.7188 ev

!    total energy              =    -329.49122386 Ry
     Harris-Foulkes estimate   =    -329.49122385 Ry
     estimated scf accuracy    <          1.1E-10 Ry

     The total energy is the sum of the following terms:

     one-electron contribution =    -608.91163188 Ry
     hartree contribution      =     325.88658714 Ry
     xc contribution           =     -51.40356537 Ry
     ewald contribution        =       4.94246781 Ry
     smearing contrib. (-TS)   =      -0.00508157 Ry

     convergence has been achieved in   9 iterations

     Forces acting on atoms (Ry/au):

     atom    1 type  1   force =    -0.00481300   -0.00035098   -0.00052379
     atom    2 type  1   force =     0.00352702    0.00173469    0.00184723
     atom    3 type  1   force =     0.00025269    0.00238614   -0.00439280
     atom    4 type  1   force =    -0.00438753   -0.00105321    0.00125463
     atom    5 type  1   force =     0.00542081   -0.00271664    0.00181473

     Total force =     0.011379     Total SCF correction =     0.000044

     number of scf cycles    =   7
     number of bfgs steps    =   6

     energy   old            =    -329.4910755091 Ry
     energy   new            =    -329.4912238631 Ry

     CASE: energy  _new < energy  _old


     WARNING: bfgs curvature condition failed, Theta= 0.950
     new trust radius        =       0.0186000817 bohr
     new conv_thr            =       0.0000000001 Ry


ATOMIC_POSITIONS (bohr)
Au      -1.621456404   3.524696571  -0.931810060
Au      -0.767472292   3.944347159   4.139973108
Au       2.963309520   2.179428835   0.642959761
Au       4.158821318   3.492013496   5.801265579
Au       7.548081857   1.407900940   2.526209611



     Writing output data file pwscf.save
     Check: negative starting charge=   -0.006406
     NEW-OLD atomic charge density approx. for the potential
     Check: negative starting charge=   -0.006396

     negative rho (up, down):  3.267E-05 0.000E+00

     total cpu time spent up to now is       22.6 secs

     per-process dynamical memory:    50.7 Mb

     Self-consistent Calculation

     iteration #  1     ecut=    30.00 Ry     beta=0.70
     Davidson diagonalization with overlap
     ethr =  1.00E-06,  avg # of iterations =  4.0

     Threshold (ethr) on eigenvalues was too large:
     Diagonalizing with lowered threshold

     Davidson diagonalization with overlap
     ethr =  8.95E-08,  avg # of iterations =  1.0

     negative rho (up, down):  7.476E-08 0.000E+00

     total cpu time spent up to now is       23.2 secs

     total energy              =    -329.49138787 Ry
     Harris-Foulkes estimate   =    -329.49139997 Ry
     estimated scf accuracy    <       0.00004929 Ry

     iteration #  2     ecut=    30.00 Ry     beta=0.70
     Davidson diagonalization with overlap
     ethr =  8.96E-08,  avg # of iterations =  2.0

     total cpu time spent up to now is       23.5 secs

     total energy              =    -329.49139546 Ry
     Harris-Foulkes estimate   =    -329.49141345 Ry
     estimated scf accuracy    <       0.00003544 Ry

     iteration #  3     ecut=    30.00 Ry     beta=0.70
     Davidson diagonalization with overlap
     ethr =  6.44E-08,  avg # of iterations =  2.0

     total cpu time spent up to now is       23.8 secs

     total energy              =    -329.49140172 Ry
     Harris-Foulkes estimate   =    -329.49140514 Ry
     estimated scf accuracy    <       0.00000618 Ry

     iteration #  4     ecut=    30.00 Ry     beta=0.70
     Davidson diagonalization with overlap
     ethr =  1.12E-08,  avg # of iterations =  2.0

     total cpu time spent up to now is       24.1 secs

     total energy              =    -329.49140275 Ry
     Harris-Foulkes estimate   =    -329.49140455 Ry
     estimated scf accuracy    <       0.00000426 Ry

     iteration #  5     ecut=    30.00 Ry     beta=0.70
     Davidson diagonalization with overlap
     ethr =  7.75E-09,  avg # of iterations =  2.0

     total cpu time spent up to now is       24.3 secs

     total energy              =    -329.49140329 Ry
     Harris-Foulkes estimate   =    -329.49140348 Ry
     estimated scf accuracy    <       0.00000014 Ry

     iteration #  6     ecut=    30.00 Ry     beta=0.70
     Davidson diagonalization with overlap
     ethr =  2.60E-10,  avg # of iterations =  3.0

     total cpu time spent up to now is       24.6 secs

     total energy              =    -329.49140329 Ry
     Harris-Foulkes estimate   =    -329.49140334 Ry
     estimated scf accuracy    <       0.00000002 Ry

     iteration #  7     ecut=    30.00 Ry     beta=0.70
     Davidson diagonalization with overlap
     ethr =  3.60E-11,  avg # of iterations =  2.0

     total cpu time spent up to now is       24.9 secs

     total energy              =    -329.49140325 Ry
     Harris-Foulkes estimate   =    -329.49140329 Ry
     estimated scf accuracy    <          6.2E-09 Ry

     iteration #  8     ecut=    30.00 Ry     beta=0.70
     Davidson diagonalization with overlap
     ethr =  1.12E-11,  avg # of iterations =  2.0

     total cpu time spent up to now is       25.2 secs

     total energy              =    -329.49140324 Ry
     Harris-Foulkes estimate   =    -329.49140326 Ry
     estimated scf accuracy    <          1.2E-09 Ry

     iteration #  9     ecut=    30.00 Ry     beta=0.70
     Davidson diagonalization with overlap
     ethr =  2.15E-12,  avg # of iterations =  2.0

     total cpu time spent up to now is       25.5 secs

     total energy              =    -329.49140326 Ry
     Harris-Foulkes estimate   =    -329.49140324 Ry
     estimated scf accuracy    <          1.8E-10 Ry

     iteration # 10     ecut=    30.00 Ry     beta=0.70
     Davidson diagonalization with overlap
     ethr =  3.36E-13,  avg # of iterations =  2.0

     total cpu time spent up to now is       25.8 secs

     End of self-consistent calculation

          k = 0.0000 0.0000 0.0000 ( 22119 PWs)   bands (ev):

    -8.5384  -7.7991  -7.6325  -7.2097  -6.8725  -6.8154  -6.6445  -6.4833
    -6.2640  -6.0893  -5.9638  -5.7837  -5.7493  -5.6772  -5.4435  -5.3765
    -5.3027  -5.2494  -5.2014  -5.1734  -5.1724  -5.1190  -4.9782  -4.9507
    -4.8399  -4.7001  -4.4820  -3.7606  -2.4262  -2.2323  -0.5358  -0.2024
     0.4736   0.7772

     the Fermi energy is    -3.7259 ev

!    total energy              =    -329.49140326 Ry
     Harris-Foulkes estimate   =    -329.49140326 Ry
     estimated scf accuracy    <          2.0E-11 Ry

     The total energy is the sum of the following terms:

     one-electron contribution =    -608.63063280 Ry
     hartree contribution      =     325.74900997 Ry
     xc contribution           =     -51.40300194 Ry
     ewald contribution        =       4.79804863 Ry
     smearing contrib. (-TS)   =      -0.00482711 Ry

     convergence has been achieved in  10 iterations

     Forces acting on atoms (Ry/au):

     atom    1 type  1   force =    -0.00501964   -0.00009502   -0.00043277
     atom    2 type  1   force =     0.00280424    0.00134786    0.00115747
     atom    3 type  1   force =     0.00086446    0.00247558   -0.00317595
     atom    4 type  1   force =    -0.00315128   -0.00141259    0.00052808
     atom    5 type  1   force =     0.00450223   -0.00231583    0.00192315

     Total force =     0.009742     Total SCF correction =     0.000017

     number of scf cycles    =   8
     number of bfgs steps    =   7

     energy   old            =    -329.4912238631 Ry
     energy   new            =    -329.4914032563 Ry

     CASE: energy  _new < energy  _old

     new trust radius        =       0.0279001226 bohr
     new conv_thr            =       0.0000000002 Ry


ATOMIC_POSITIONS (bohr)
Au      -1.628732362   3.519195416  -0.924719405
Au      -0.757030500   3.954668177   4.145677411
Au       2.971096170   2.188506864   0.617753128
Au       4.146272308   3.485194987   5.806040457
Au       7.549678385   1.400821557   2.533846409



     Writing output data file pwscf.save
     Check: negative starting charge=   -0.006396
     NEW-OLD atomic charge density approx. for the potential
     Check: negative starting charge=   -0.006381

     negative rho (up, down):  1.176E-04 0.000E+00

     total cpu time spent up to now is       26.2 secs

     per-process dynamical memory:    50.7 Mb

     Self-consistent Calculation

     iteration #  1     ecut=    30.00 Ry     beta=0.70
     Davidson diagonalization with overlap
     ethr =  1.00E-06,  avg # of iterations =  4.0

     negative rho (up, down):  1.142E-06 0.000E+00

     total cpu time spent up to now is       26.7 secs

     total energy              =    -329.49158903 Ry
     Harris-Foulkes estimate   =    -329.49161108 Ry
     estimated scf accuracy    <       0.00011956 Ry

     iteration #  2     ecut=    30.00 Ry     beta=0.70
     Davidson diagonalization with overlap
     ethr =  2.17E-07,  avg # of iterations =  2.0

     negative rho (up, down):  4.991E-08 0.000E+00

     total cpu time spent up to now is       27.0 secs

     total energy              =    -329.49161130 Ry
     Harris-Foulkes estimate   =    -329.49165159 Ry
     estimated scf accuracy    <       0.00008200 Ry

     iteration #  3     ecut=    30.00 Ry     beta=0.70
     Davidson diagonalization with overlap
     ethr =  1.49E-07,  avg # of iterations =  2.0

     total cpu time spent up to now is       27.3 secs

     total energy              =    -329.49162759 Ry
     Harris-Foulkes estimate   =    -329.49163206 Ry
     estimated scf accuracy    <       0.00000989 Ry

     iteration #  4     ecut=    30.00 Ry     beta=0.70
     Davidson diagonalization with overlap
     ethr =  1.80E-08,  avg # of iterations =  2.0

     total cpu time spent up to now is       27.6 secs

     total energy              =    -329.49162898 Ry
     Harris-Foulkes estimate   =    -329.49163350 Ry
     estimated scf accuracy    <       0.00001193 Ry

     iteration #  5     ecut=    30.00 Ry     beta=0.70
     Davidson diagonalization with overlap
     ethr =  1.80E-08,  avg # of iterations =  2.0

     total cpu time spent up to now is       27.8 secs

     total energy              =    -329.49163064 Ry
     Harris-Foulkes estimate   =    -329.49163099 Ry
     estimated scf accuracy    <       0.00000031 Ry

     iteration #  6     ecut=    30.00 Ry     beta=0.70
     Davidson diagonalization with overlap
     ethr =  5.66E-10,  avg # of iterations =  3.0

     total cpu time spent up to now is       28.1 secs

     total energy              =    -329.49163066 Ry
     Harris-Foulkes estimate   =    -329.49163077 Ry
     estimated scf accuracy    <       0.00000003 Ry

     iteration #  7     ecut=    30.00 Ry     beta=0.70
     Davidson diagonalization with overlap
     ethr =  6.31E-11,  avg # of iterations =  2.0

     total cpu time spent up to now is       28.4 secs

     total energy              =    -329.49163063 Ry
     Harris-Foulkes estimate   =    -329.49163067 Ry
     estimated scf accuracy    <          8.1E-09 Ry

     iteration #  8     ecut=    30.00 Ry     beta=0.70
     Davidson diagonalization with overlap
     ethr =  1.47E-11,  avg # of iterations =  2.0

     total cpu time spent up to now is       28.7 secs

     total energy              =    -329.49163061 Ry
     Harris-Foulkes estimate   =    -329.49163063 Ry
     estimated scf accuracy    <          2.3E-09 Ry

     iteration #  9     ecut=    30.00 Ry     beta=0.70
     Davidson diagonalization with overlap
     ethr =  4.17E-12,  avg # of iterations =  2.0

     total cpu time spent up to now is       28.9 secs

     total energy              =    -329.49163062 Ry
     Harris-Foulkes estimate   =    -329.49163061 Ry
     estimated scf accuracy    <          3.6E-10 Ry

     iteration # 10     ecut=    30.00 Ry     beta=0.70
     Davidson diagonalization with overlap
     ethr =  6.46E-13,  avg # of iterations =  2.0

     total cpu time spent up to now is       29.2 secs

     End of self-consistent calculation

          k = 0.0000 0.0000 0.0000 ( 22119 PWs)   bands (ev):

    -8.5178  -7.7798  -7.6302  -7.2050  -6.8743  -6.8116  -6.6360  -6.4726
    -6.2683  -6.0758  -5.9619  -5.7785  -5.7464  -5.6759  -5.4327  -5.3804
    -5.3081  -5.2435  -5.2036  -5.1749  -5.1705  -5.1220  -4.9797  -4.9443
    -4.8424  -4.7065  -4.4752  -3.7699  -2.4320  -2.2257  -0.5350  -0.2093
     0.4766   0.7748

     the Fermi energy is    -3.7369 ev

!    total energy              =    -329.49163060 Ry
     Harris-Foulkes estimate   =    -329.49163062 Ry
     estimated scf accuracy    <          6.0E-11 Ry

     The total energy is the sum of the following terms:

     one-electron contribution =    -608.07060547 Ry
     hartree contribution      =     325.47430271 Ry
     xc contribution           =     -51.40163054 Ry
     ewald contribution        =       4.51072232 Ry
     smearing contrib. (-TS)   =      -0.00441962 Ry

     convergence has been achieved in  10 iterations

     Forces acting on atoms (Ry/au):

     atom    1 type  1   force =    -0.00464222    0.00019778   -0.00006155
     atom    2 type  1   force =     0.00156625    0.00084385   -0.00024116
     atom    3 type  1   force =     0.00136058    0.00252680   -0.00098738
     atom    4 type  1   force =    -0.00097942   -0.00197128   -0.00056702
     atom    5 type  1   force =     0.00269481   -0.00159715    0.00185712

     Total force =     0.007243     Total SCF correction =     0.000031

     number of scf cycles    =   9
     number of bfgs steps    =   8

     energy   old            =    -329.4914032563 Ry
     energy   new            =    -329.4916305955 Ry

     CASE: energy  _new < energy  _old

     new trust radius        =       0.0376677972 bohr
     new conv_thr            =       0.0000000002 Ry


ATOMIC_POSITIONS (bohr)
Au      -1.646881697   3.513020170  -0.916597810
Au      -0.741024624   3.968795099   4.152177176
Au       2.982369548   2.204394813   0.585514223
Au       4.128764873   3.473316358   5.810967235
Au       7.558055900   1.388860560   2.546537176



     Writing output data file pwscf.save
     Check: negative starting charge=   -0.006381
     NEW-OLD atomic charge density approx. for the potential
     Check: negative starting charge=   -0.006364

     negative rho (up, down):  2.945E-04 0.000E+00

     total cpu time spent up to now is       29.5 secs

     per-process dynamical memory:    50.7 Mb

     Self-consistent Calculation

     iteration #  1     ecut=    30.00 Ry     beta=0.70
     Davidson diagonalization with overlap
     ethr =  1.00E-06,  avg # of iterations =  4.0

     negative rho (up, down):  6.926E-06 0.000E+00

     total cpu time spent up to now is       30.0 secs

     total energy              =    -329.49169264 Ry
     Harris-Foulkes estimate   =    -329.49169474 Ry
     estimated scf accuracy    <       0.00025977 Ry

     iteration #  2     ecut=    30.00 Ry     beta=0.70
     Davidson diagonalization with overlap
     ethr =  4.72E-07,  avg # of iterations =  3.0

     negative rho (up, down):  6.214E-07 0.000E+00

     total cpu time spent up to now is       30.3 secs

     total energy              =    -329.49174312 Ry
     Harris-Foulkes estimate   =    -329.49183272 Ry
     estimated scf accuracy    <       0.00019010 Ry

     iteration #  3     ecut=    30.00 Ry     beta=0.70
     Davidson diagonalization with overlap
     ethr =  3.46E-07,  avg # of iterations =  2.0

     total cpu time spent up to now is       30.6 secs

     total energy              =    -329.49178035 Ry
     Harris-Foulkes estimate   =    -329.49179169 Ry
     estimated scf accuracy    <       0.00002615 Ry

     iteration #  4     ecut=    30.00 Ry     beta=0.70
     Davidson diagonalization with overlap
     ethr =  4.75E-08,  avg # of iterations =  2.0

     total cpu time spent up to now is       30.9 secs

     total energy              =    -329.49178646 Ry
     Harris-Foulkes estimate   =    -329.49179380 Ry
     estimated scf accuracy    <       0.00002292 Ry

     iteration #  5     ecut=    30.00 Ry     beta=0.70
     Davidson diagonalization with overlap
     ethr =  4.17E-08,  avg # of iterations =  2.0

     total cpu time spent up to now is       31.2 secs

     total energy              =    -329.49178999 Ry
     Harris-Foulkes estimate   =    -329.49179033 Ry
     estimated scf accuracy    <       0.00000063 Ry

     iteration #  6     ecut=    30.00 Ry     beta=0.70
     Davidson diagonalization with overlap
     ethr =  1.15E-09,  avg # of iterations =  3.0

     total cpu time spent up to now is       31.5 secs

     total energy              =    -329.49179030 Ry
     Harris-Foulkes estimate   =    -329.49179025 Ry
     estimated scf accuracy    <       0.00000012 Ry

     iteration #  7     ecut=    30.00 Ry     beta=0.70
     Davidson diagonalization with overlap
     ethr =  2.17E-10,  avg # of iterations =  2.0

     total cpu time spent up to now is       31.7 secs

     total energy              =    -329.49179038 Ry
     Harris-Foulkes estimate   =    -329.49179034 Ry
     estimated scf accuracy    <       0.00000006 Ry

     iteration #  8     ecut=    30.00 Ry     beta=0.70
     Davidson diagonalization with overlap
     ethr =  1.05E-10,  avg # of iterations =  2.0

     total cpu time spent up to now is       32.0 secs

     total energy              =    -329.49179045 Ry
     Harris-Foulkes estimate   =    -329.49179040 Ry
     estimated scf accuracy    <          3.3E-09 Ry

     iteration #  9     ecut=    30.00 Ry     beta=0.70
     Davidson diagonalization with overlap
     ethr =  6.00E-12,  avg # of iterations =  2.0

     total cpu time spent up to now is       32.3 secs

     total energy              =    -329.49179041 Ry
     Harris-Foulkes estimate   =    -329.49179045 Ry
     estimated scf accuracy    <          3.1E-10 Ry

     iteration # 10     ecut=    30.00 Ry     beta=0.70
     Davidson diagonalization with overlap
     ethr =  5.66E-13,  avg # of iterations =  3.0

     total cpu time spent up to now is       32.5 secs

     End of self-consistent calculation

          k = 0.0000 0.0000 0.0000 ( 22119 PWs)   bands (ev):

    -8.4816  -7.7494  -7.6296  -7.2004  -6.8784  -6.7940  -6.6210  -6.4587
    -6.2768  -6.0545  -5.9551  -5.7709  -5.7363  -5.6732  -5.4220  -5.3853
    -5.3158  -5.2360  -5.2062  -5.1769  -5.1672  -5.1251  -4.9863  -4.9348
    -4.8422  -4.7180  -4.4668  -3.7823  -2.4458  -2.2155  -0.5338  -0.2167
     0.4780   0.7700

     the Fermi energy is    -3.7519 ev

!    total energy              =    -329.49179041 Ry
     Harris-Foulkes estimate   =    -329.49179041 Ry
     estimated scf accuracy    <          1.1E-10 Ry

     The total energy is the sum of the following terms:

     one-electron contribution =    -607.07959330 Ry
     hartree contribution      =     324.98740675 Ry
     xc contribution           =     -51.39879305 Ry
     ewald contribution        =       4.00303963 Ry
     smearing contrib. (-TS)   =      -0.00385045 Ry

     convergence has been achieved in  10 iterations

     Forces acting on atoms (Ry/au):

     atom    1 type  1   force =    -0.00263836    0.00035486    0.00088387
     atom    2 type  1   force =    -0.00016089    0.00049033   -0.00254426
     atom    3 type  1   force =     0.00099567    0.00236679    0.00238849
     atom    4 type  1   force =     0.00252344   -0.00287490   -0.00187308
     atom    5 type  1   force =    -0.00071986   -0.00033708    0.00114499

     Total force =     0.006855     Total SCF correction =     0.000041

     number of scf cycles    =  10
     number of bfgs steps    =   9

     energy   old            =    -329.4916305955 Ry
     energy   new            =    -329.4917904116 Ry

     CASE: energy  _new < energy  _old

     new trust radius        =       0.0058406354 bohr
     new conv_thr            =       0.0000000002 Ry


ATOMIC_POSITIONS (bohr)
Au      -1.652582814   3.514058147  -0.917327802
Au      -0.739990468   3.969003701   4.150057237
Au       2.982237057   2.207371831   0.588639985
Au       4.129860926   3.470573061   5.809258897
Au       7.561759299   1.387380260   2.547969682



     Writing output data file pwscf.save
     Check: negative starting charge=   -0.006364
     NEW-OLD atomic charge density approx. for the potential
     Check: negative starting charge=   -0.006367

     negative rho (up, down):  3.411E-07 0.000E+00

     total cpu time spent up to now is       32.9 secs

     per-process dynamical memory:    50.7 Mb

     Self-consistent Calculation

     iteration #  1     ecut=    30.00 Ry     beta=0.70
     Davidson diagonalization with overlap
     ethr =  1.00E-06,  avg # of iterations =  3.0

     Threshold (ethr) on eigenvalues was too large:
     Diagonalizing with lowered threshold

     Davidson diagonalization with overlap
     ethr =  8.02E-09,  avg # of iterations =  2.0

     total cpu time spent up to now is       33.5 secs

     total energy              =    -329.49182978 Ry
     Harris-Foulkes estimate   =    -329.49182581 Ry
     estimated scf accuracy    <       0.00000485 Ry

     iteration #  2     ecut=    30.00 Ry     beta=0.70
     Davidson diagonalization with overlap
     ethr =  8.82E-09,  avg # of iterations =  3.0

     total cpu time spent up to now is       33.8 secs

     total energy              =    -329.49182986 Ry
     Harris-Foulkes estimate   =    -329.49183290 Ry
     estimated scf accuracy    <       0.00000734 Ry

     iteration #  3     ecut=    30.00 Ry     beta=0.70
     Davidson diagonalization with overlap
     ethr =  8.82E-09,  avg # of iterations =  2.0

     total cpu time spent up to now is       34.1 secs

     total energy              =    -329.49183215 Ry
     Harris-Foulkes estimate   =    -329.49183198 Ry
     estimated scf accuracy    <       0.00000150 Ry

     iteration #  4     ecut=    30.00 Ry     beta=0.70
     Davidson diagonalization with overlap
     ethr =  2.73E-09,  avg # of iterations =  2.0

     total cpu time spent up to now is       34.3 secs

     total energy              =    -329.49183299 Ry
     Harris-Foulkes estimate   =    -329.49183252 Ry
     estimated scf accuracy    <       0.00000020 Ry

     iteration #  5     ecut=    30.00 Ry     beta=0.70
     Davidson diagonalization with overlap
     ethr =  3.66E-10,  avg # of iterations =  2.0

     total cpu time spent up to now is       34.6 secs

     total energy              =    -329.49183316 Ry
     Harris-Foulkes estimate   =    -329.49183305 Ry
     estimated scf accuracy    <       0.00000004 Ry

     iteration #  6     ecut=    30.00 Ry     beta=0.70
     Davidson diagonalization with overlap
     ethr =  8.10E-11,  avg # of iterations =  2.0

     total cpu time spent up to now is       34.9 secs

     total energy              =    -329.49183328 Ry
     Harris-Foulkes estimate   =    -329.49183317 Ry
     estimated scf accuracy    <          2.4E-09 Ry

     iteration #  7     ecut=    30.00 Ry     beta=0.70
     Davidson diagonalization with overlap
     ethr =  4.43E-12,  avg # of iterations =  3.0

     total cpu time spent up to now is       35.2 secs

     total energy              =    -329.49183332 Ry
     Harris-Foulkes estimate   =    -329.49183328 Ry
     estimated scf accuracy    <          1.7E-09 Ry

     iteration #  8     ecut=    30.00 Ry     beta=0.70
     Davidson diagonalization with overlap
     ethr =  3.02E-12,  avg # of iterations =  2.0

     total cpu time spent up to now is       35.4 secs

     End of self-consistent calculation

          k = 0.0000 0.0000 0.0000 ( 22119 PWs)   bands (ev):

    -8.4792  -7.7500  -7.6317  -7.2042  -6.8758  -6.7914  -6.6209  -6.4610
    -6.2788  -6.0540  -5.9539  -5.7698  -5.7347  -5.6735  -5.4265  -5.3847
    -5.3156  -5.2372  -5.2062  -5.1770  -5.1674  -5.1244  -4.9895  -4.9352
    -4.8406  -4.7192  -4.4686  -3.7807  -2.4494  -2.2147  -0.5342  -0.2147
     0.4763   0.7686

     the Fermi energy is    -3.7498 ev

!    total energy              =    -329.49183335 Ry
     Harris-Foulkes estimate   =    -329.49183332 Ry
     estimated scf accuracy    <          1.5E-10 Ry

     The total energy is the sum of the following terms:

     one-electron contribution =    -607.04210155 Ry
     hartree contribution      =     324.96776595 Ry
     xc contribution           =     -51.39826803 Ry
     ewald contribution        =       3.98472663 Ry
     smearing contrib. (-TS)   =      -0.00395634 Ry

     convergence has been achieved in   8 iterations

     Forces acting on atoms (Ry/au):

     atom    1 type  1   force =    -0.00182383    0.00022546    0.00108455
     atom    2 type  1   force =    -0.00025691    0.00056739   -0.00229067
     atom    3 type  1   force =     0.00086198    0.00231461    0.00196711
     atom    4 type  1   force =     0.00242033   -0.00284959   -0.00154710
     atom    5 type  1   force =    -0.00120157   -0.00025786    0.00078612

     Total force =     0.006218     Total SCF correction =     0.000032

     number of scf cycles    =  11
     number of bfgs steps    =  10

     energy   old            =    -329.4917904116 Ry
     energy   new            =    -329.4918333468 Ry

     CASE: energy  _new < energy  _old

     new trust radius        =       0.0064246990 bohr
     new conv_thr            =            1.0E-10 Ry


ATOMIC_POSITIONS (bohr)
Au      -1.658849677   3.514321896  -0.915937251
Au      -0.738279015   3.970921936   4.147058603
Au       2.983666433   2.212700651   0.589767940
Au       4.131418770   3.465176260   5.807249525
Au       7.563327489   1.385266256   2.550459183



     Writing output data file pwscf.save
     Check: negative starting charge=   -0.006367
     NEW-OLD atomic charge density approx. for the potential
     Check: negative starting charge=   -0.006370

     negative rho (up, down):  1.341E-06 0.000E+00

     total cpu time spent up to now is       35.8 secs

     per-process dynamical memory:    50.7 Mb

     Self-consistent Calculation

     iteration #  1     ecut=    30.00 Ry     beta=0.70
     Davidson diagonalization with overlap
     ethr =  1.00E-06,  avg # of iterations =  3.0

     Threshold (ethr) on eigenvalues was too large:
     Diagonalizing with lowered threshold

     Davidson diagonalization with overlap
     ethr =  1.66E-08,  avg # of iterations =  2.0

     total cpu time spent up to now is       36.5 secs

     total energy              =    -329.49188193 Ry
     Harris-Foulkes estimate   =    -329.49188232 Ry
     estimated scf accuracy    <       0.00000970 Ry

     iteration #  2     ecut=    30.00 Ry     beta=0.70
     Davidson diagonalization with overlap
     ethr =  1.76E-08,  avg # of iterations =  2.0

     total cpu time spent up to now is       36.8 secs

     total energy              =    -329.49188358 Ry
     Harris-Foulkes estimate   =    -329.49188722 Ry
     estimated scf accuracy    <       0.00000850 Ry

     iteration #  3     ecut=    30.00 Ry     beta=0.70
     Davidson diagonalization with overlap
     ethr =  1.55E-08,  avg # of iterations =  2.0

     total cpu time spent up to now is       37.1 secs

     total energy              =    -329.49188564 Ry
     Harris-Foulkes estimate   =    -329.49188607 Ry
     estimated scf accuracy    <       0.00000204 Ry

     iteration #  4     ecut=    30.00 Ry     beta=0.70
     Davidson diagonalization with overlap
     ethr =  3.72E-09,  avg # of iterations =  2.0

     total cpu time spent up to now is       37.3 secs

     total energy              =    -329.49188661 Ry
     Harris-Foulkes estimate   =    -329.49188636 Ry
     estimated scf accuracy    <       0.00000072 Ry

     iteration #  5     ecut=    30.00 Ry     beta=0.70
     Davidson diagonalization with overlap
     ethr =  1.30E-09,  avg # of iterations =  2.0

     total cpu time spent up to now is       37.5 secs

     total energy              =    -329.49188686 Ry
     Harris-Foulkes estimate   =    -329.49188674 Ry
     estimated scf accuracy    <       0.00000003 Ry

     iteration #  6     ecut=    30.00 Ry     beta=0.70
     Davidson diagonalization with overlap
     ethr =  5.96E-11,  avg # of iterations =  3.0

     total cpu time spent up to now is       37.9 secs

     total energy              =    -329.49188687 Ry
     Harris-Foulkes estimate   =    -329.49188687 Ry
     estimated scf accuracy    <          4.9E-09 Ry

     iteration #  7     ecut=    30.00 Ry     beta=0.70
     Davidson diagonalization with overlap
     ethr =  8.96E-12,  avg # of iterations =  3.0

     total cpu time spent up to now is       38.2 secs

     total energy              =    -329.49188693 Ry
     Harris-Foulkes estimate   =    -329.49188688 Ry
     estimated scf accuracy    <          1.9E-09 Ry

     iteration #  8     ecut=    30.00 Ry     beta=0.70
     Davidson diagonalization with overlap
     ethr =  3.50E-12,  avg # of iterations =  2.0

     total cpu time spent up to now is       38.5 secs

     total energy              =    -329.49188694 Ry
     Harris-Foulkes estimate   =    -329.49188693 Ry
     estimated scf accuracy    <          2.4E-10 Ry

     iteration #  9     ecut=    30.00 Ry     beta=0.70
     Davidson diagonalization with overlap
     ethr =  4.34E-13,  avg # of iterations =  3.0

     total cpu time spent up to now is       38.8 secs

     End of self-consistent calculation

          k = 0.0000 0.0000 0.0000 ( 22119 PWs)   bands (ev):

    -8.4785  -7.7532  -7.6341  -7.2098  -6.8744  -6.7901  -6.6244  -6.4640
    -6.2817  -6.0536  -5.9552  -5.7690  -5.7333  -5.6746  -5.4308  -5.3839
    -5.3155  -5.2379  -5.2057  -5.1770  -5.1682  -5.1238  -4.9926  -4.9349
    -4.8394  -4.7200  -4.4695  -3.7783  -2.4529  -2.2124  -0.5350  -0.2129
     0.4751   0.7668

     the Fermi energy is    -3.7470 ev

!    total energy              =    -329.49188694 Ry
     Harris-Foulkes estimate   =    -329.49188694 Ry
     estimated scf accuracy    <          4.7E-11 Ry

     The total energy is the sum of the following terms:

     one-electron contribution =    -607.11972866 Ry
     hartree contribution      =     325.00496746 Ry
     xc contribution           =     -51.39826650 Ry
     ewald contribution        =       4.02520473 Ry
     smearing contrib. (-TS)   =      -0.00406398 Ry

     convergence has been achieved in   9 iterations

     Forces acting on atoms (Ry/au):

     atom    1 type  1   force =    -0.00102271    0.00012029    0.00105132
     atom    2 type  1   force =    -0.00028168    0.00067008   -0.00185650
     atom    3 type  1   force =     0.00042443    0.00222606    0.00153353
     atom    4 type  1   force =     0.00211805   -0.00274169   -0.00105456
     atom    5 type  1   force =    -0.00123809   -0.00027475    0.00032622

     Total force =     0.005335     Total SCF correction =     0.000026

     number of scf cycles    =  12
     number of bfgs steps    =  11

     energy   old            =    -329.4918333468 Ry
     energy   new            =    -329.4918869383 Ry

     CASE: energy  _new < energy  _old

     new trust radius        =       0.0096370485 bohr
     new conv_thr            =            1.0E-10 Ry


ATOMIC_POSITIONS (bohr)
Au      -1.666751299   3.513970945  -0.912547200
Au      -0.735578547   3.974885666   4.142842539
Au       2.986297208   2.221430085   0.589354559
Au       4.133604187   3.456105969   5.804835717
Au       7.563712451   1.381994335   2.554112385



     Writing output data file pwscf.save
     Check: negative starting charge=   -0.006370
     NEW-OLD atomic charge density approx. for the potential
     Check: negative starting charge=   -0.006374

     negative rho (up, down):  1.026E-05 0.000E+00

     total cpu time spent up to now is       39.1 secs

     per-process dynamical memory:    50.7 Mb

     Self-consistent Calculation

     iteration #  1     ecut=    30.00 Ry     beta=0.70
     Davidson diagonalization with overlap
     ethr =  1.00E-06,  avg # of iterations =  4.0

     Threshold (ethr) on eigenvalues was too large:
     Diagonalizing with lowered threshold

     Davidson diagonalization with overlap
     ethr =  4.55E-08,  avg # of iterations =  1.0

     total cpu time spent up to now is       39.7 secs

     total energy              =    -329.49194184 Ry
     Harris-Foulkes estimate   =    -329.49195002 Ry
     estimated scf accuracy    <       0.00002588 Ry

     iteration #  2     ecut=    30.00 Ry     beta=0.70
     Davidson diagonalization with overlap
     ethr =  4.71E-08,  avg # of iterations =  2.0

     total cpu time spent up to now is       40.0 secs

     total energy              =    -329.49194618 Ry
     Harris-Foulkes estimate   =    -329.49195584 Ry
     estimated scf accuracy    <       0.00002015 Ry

     iteration #  3     ecut=    30.00 Ry     beta=0.70
     Davidson diagonalization with overlap
     ethr =  3.66E-08,  avg # of iterations =  2.0

     total cpu time spent up to now is       40.3 secs

     total energy              =    -329.49195070 Ry
     Harris-Foulkes estimate   =    -329.49195144 Ry
     estimated scf accuracy    <       0.00000302 Ry

     iteration #  4     ecut=    30.00 Ry     beta=0.70
     Davidson diagonalization with overlap
     ethr =  5.49E-09,  avg # of iterations =  2.0

     total cpu time spent up to now is       40.6 secs

     total energy              =    -329.49195168 Ry
     Harris-Foulkes estimate   =    -329.49195222 Ry
     estimated scf accuracy    <       0.00000252 Ry

     iteration #  5     ecut=    30.00 Ry     beta=0.70
     Davidson diagonalization with overlap
     ethr =  4.58E-09,  avg # of iterations =  2.0

     total cpu time spent up to now is       40.8 secs

     total energy              =    -329.49195224 Ry
     Harris-Foulkes estimate   =    -329.49195210 Ry
     estimated scf accuracy    <       0.00000006 Ry

     iteration #  6     ecut=    30.00 Ry     beta=0.70
     Davidson diagonalization with overlap
     ethr =  1.13E-10,  avg # of iterations =  3.0

     total cpu time spent up to now is       41.1 secs

     total energy              =    -329.49195216 Ry
     Harris-Foulkes estimate   =    -329.49195226 Ry
     estimated scf accuracy    <          8.2E-09 Ry

     iteration #  7     ecut=    30.00 Ry     beta=0.70
     Davidson diagonalization with overlap
     ethr =  1.49E-11,  avg # of iterations =  3.0

     total cpu time spent up to now is       41.4 secs

     total energy              =    -329.49195213 Ry
     Harris-Foulkes estimate   =    -329.49195217 Ry
     estimated scf accuracy    <          2.1E-09 Ry

     iteration #  8     ecut=    30.00 Ry     beta=0.70
     Davidson diagonalization with overlap
     ethr =  3.80E-12,  avg # of iterations =  3.0

     total cpu time spent up to now is       41.8 secs

     total energy              =    -329.49195213 Ry
     Harris-Foulkes estimate   =    -329.49195213 Ry
     estimated scf accuracy    <          7.0E-10 Ry

     iteration #  9     ecut=    30.00 Ry     beta=0.70
     Davidson diagonalization with overlap
     ethr =  1.28E-12,  avg # of iterations =  2.0

     total cpu time spent up to now is       42.0 secs

     End of self-consistent calculation

          k = 0.0000 0.0000 0.0000 ( 22119 PWs)   bands (ev):

    -8.4788  -7.7587  -7.6370  -7.2179  -6.8737  -6.7895  -6.6311  -6.4681
    -6.2858  -6.0532  -5.9587  -5.7682  -5.7317  -5.6764  -5.4359  -5.3828
    -5.3154  -5.2385  -5.2050  -5.1769  -5.1697  -5.1232  -4.9963  -4.9339
    -4.8385  -4.7204  -4.4701  -3.7749  -2.4569  -2.2086  -0.5362  -0.2107
     0.4741   0.7646

     the Fermi energy is    -3.7430 ev

!    total energy              =    -329.49195216 Ry
     Harris-Foulkes estimate   =    -329.49195213 Ry
     estimated scf accuracy    <          7.8E-11 Ry

     The total energy is the sum of the following terms:

     one-electron contribution =    -607.29353636 Ry
     hartree contribution      =     325.08940702 Ry
     xc contribution           =     -51.39864609 Ry
     ewald contribution        =       4.11501533 Ry
     smearing contrib. (-TS)   =      -0.00419206 Ry

     convergence has been achieved in   9 iterations

     Forces acting on atoms (Ry/au):

     atom    1 type  1   force =    -0.00014299    0.00001904    0.00080261
[...]

     CASE: energy  _new < energy  _old

     new trust radius        =       0.0071143024 bohr
     new conv_thr            =            1.0E-10 Ry


ATOMIC_POSITIONS (bohr)
Au      -1.720888583   3.571873724  -0.843208342
Au      -0.608587331   4.309785095   4.141858696
Au       2.988267751   2.399040940   0.567795810
Au       4.112381878   3.091787645   5.851511422
Au       7.510110285   1.175899596   2.460640414



     Writing output data file pwscf.save
     Check: negative starting charge=   -0.006367
     NEW-OLD atomic charge density approx. for the potential
     Check: negative starting charge=   -0.006368

     negative rho (up, down):  1.013E-06 0.000E+00

     total cpu time spent up to now is      121.7 secs

     per-process dynamical memory:    50.7 Mb

     Self-consistent Calculation

     iteration #  1     ecut=    30.00 Ry     beta=0.70
     Davidson diagonalization with overlap
     ethr =  1.00E-06,  avg # of iterations =  3.0

     Threshold (ethr) on eigenvalues was too large:
     Diagonalizing with lowered threshold

     Davidson diagonalization with overlap
     ethr =  1.79E-08,  avg # of iterations =  1.0

     total cpu time spent up to now is      122.3 secs

     total energy              =    -329.49288812 Ry
     Harris-Foulkes estimate   =    -329.49289334 Ry
     estimated scf accuracy    <       0.00001049 Ry

     iteration #  2     ecut=    30.00 Ry     beta=0.70
     Davidson diagonalization with overlap
     ethr =  1.91E-08,  avg # of iterations =  3.0

     total cpu time spent up to now is      122.7 secs

     total energy              =    -329.49288953 Ry
     Harris-Foulkes estimate   =    -329.49289516 Ry
     estimated scf accuracy    <       0.00001275 Ry

     iteration #  3     ecut=    30.00 Ry     beta=0.70
     Davidson diagonalization with overlap
     ethr =  1.91E-08,  avg # of iterations =  2.0

     total cpu time spent up to now is      122.9 secs

     total energy              =    -329.49289190 Ry
     Harris-Foulkes estimate   =    -329.49289229 Ry
     estimated scf accuracy    <       0.00000045 Ry

     iteration #  4     ecut=    30.00 Ry     beta=0.70
     Davidson diagonalization with overlap
     ethr =  8.24E-10,  avg # of iterations =  2.0

     total cpu time spent up to now is      123.3 secs

     total energy              =    -329.49289218 Ry
     Harris-Foulkes estimate   =    -329.49289224 Ry
     estimated scf accuracy    <       0.00000085 Ry

     iteration #  5     ecut=    30.00 Ry     beta=0.70
     Davidson diagonalization with overlap
     ethr =  8.24E-10,  avg # of iterations =  2.0

     total cpu time spent up to now is      123.5 secs

     total energy              =    -329.49289232 Ry
     Harris-Foulkes estimate   =    -329.49289233 Ry
     estimated scf accuracy    <       0.00000003 Ry

     iteration #  6     ecut=    30.00 Ry     beta=0.70
     Davidson diagonalization with overlap
     ethr =  4.75E-11,  avg # of iterations =  2.0

     total cpu time spent up to now is      123.8 secs

     total energy              =    -329.49289233 Ry
     Harris-Foulkes estimate   =    -329.49289233 Ry
     estimated scf accuracy    <          1.9E-09 Ry

     iteration #  7     ecut=    30.00 Ry     beta=0.70
     Davidson diagonalization with overlap
     ethr =  3.54E-12,  avg # of iterations =  3.0

     total cpu time spent up to now is      124.1 secs

     total energy              =    -329.49289236 Ry
     Harris-Foulkes estimate   =    -329.49289233 Ry
     estimated scf accuracy    <          1.4E-09 Ry

     iteration #  8     ecut=    30.00 Ry     beta=0.70
     Davidson diagonalization with overlap
     ethr =  2.54E-12,  avg # of iterations =  2.0

     total cpu time spent up to now is      124.3 secs

     total energy              =    -329.49289236 Ry
     Harris-Foulkes estimate   =    -329.49289236 Ry
     estimated scf accuracy    <          2.4E-10 Ry

     iteration #  9     ecut=    30.00 Ry     beta=0.70
     Davidson diagonalization with overlap
     ethr =  4.28E-13,  avg # of iterations =  2.0

     total cpu time spent up to now is      124.5 secs

     End of self-consistent calculation

          k = 0.0000 0.0000 0.0000 ( 22119 PWs)   bands (ev):

    -8.5026  -7.7763  -7.6609  -7.2349  -6.8559  -6.8126  -6.6078  -6.4795
    -6.3156  -6.0704  -5.9496  -5.7708  -5.7300  -5.6802  -5.4534  -5.3624
    -5.3154  -5.2451  -5.1997  -5.1741  -5.1737  -5.1242  -4.9957  -4.9151
    -4.8323  -4.7430  -4.4754  -3.7792  -2.4484  -2.1875  -0.5445  -0.2177
     0.4854   0.7841

     the Fermi energy is    -3.7469 ev

!    total energy              =    -329.49289236 Ry
     Harris-Foulkes estimate   =    -329.49289236 Ry
     estimated scf accuracy    <          1.6E-11 Ry

     The total energy is the sum of the following terms:

     one-electron contribution =    -607.28757209 Ry
     hartree contribution      =     325.07882463 Ry
     xc contribution           =     -51.40043948 Ry
     ewald contribution        =       4.12056887 Ry
     smearing contrib. (-TS)   =      -0.00427428 Ry

     convergence has been achieved in   9 iterations

     Forces acting on atoms (Ry/au):

     atom    1 type  1   force =    -0.00057746    0.00080628   -0.00085344
     atom    2 type  1   force =    -0.00002091    0.00040281    0.00028817
     atom    3 type  1   force =     0.00065179   -0.00026276    0.00052471
     atom    4 type  1   force =     0.00099505   -0.00077630   -0.00054071
     atom    5 type  1   force =    -0.00104847   -0.00017003    0.00058126

     Total force =     0.002465     Total SCF correction =     0.000020

     number of scf cycles    =  37
     number of bfgs steps    =  36

     energy   old            =    -329.4928834008 Ry
     energy   new            =    -329.4928923575 Ry

     CASE: energy  _new < energy  _old

     new trust radius        =       0.0078257327 bohr
     new conv_thr            =            1.0E-10 Ry


ATOMIC_POSITIONS (bohr)
Au      -1.718796259   3.579120849  -0.845292439
Au      -0.608335248   4.310880114   4.140747109
Au       2.989650984   2.397367546   0.569022694
Au       4.111619739   3.090993840   5.853605011
Au       7.507144785   1.170024651   2.460515626



     Writing output data file pwscf.save
     Check: negative starting charge=   -0.006368
     NEW-OLD atomic charge density approx. for the potential
     Check: negative starting charge=   -0.006370

     negative rho (up, down):  1.431E-06 0.000E+00

     total cpu time spent up to now is      124.8 secs

     per-process dynamical memory:    50.7 Mb

     Self-consistent Calculation

     iteration #  1     ecut=    30.00 Ry     beta=0.70
     Davidson diagonalization with overlap
     ethr =  1.00E-06,  avg # of iterations =  3.0

     Threshold (ethr) on eigenvalues was too large:
     Diagonalizing with lowered threshold

     Davidson diagonalization with overlap
     ethr =  2.12E-08,  avg # of iterations =  1.0

     total cpu time spent up to now is      125.5 secs

     total energy              =    -329.49289658 Ry
     Harris-Foulkes estimate   =    -329.49290265 Ry
     estimated scf accuracy    <       0.00001246 Ry

     iteration #  2     ecut=    30.00 Ry     beta=0.70
     Davidson diagonalization with overlap
     ethr =  2.27E-08,  avg # of iterations =  3.0

     total cpu time spent up to now is      125.8 secs

     total energy              =    -329.49289817 Ry
     Harris-Foulkes estimate   =    -329.49290512 Ry
     estimated scf accuracy    <       0.00001545 Ry

     iteration #  3     ecut=    30.00 Ry     beta=0.70
     Davidson diagonalization with overlap
     ethr =  2.27E-08,  avg # of iterations =  2.0

     total cpu time spent up to now is      126.1 secs

     total energy              =    -329.49290137 Ry
     Harris-Foulkes estimate   =    -329.49290146 Ry
     estimated scf accuracy    <       0.00000043 Ry

     iteration #  4     ecut=    30.00 Ry     beta=0.70
     Davidson diagonalization with overlap
     ethr =  7.78E-10,  avg # of iterations =  3.0

     total cpu time spent up to now is      126.4 secs

     total energy              =    -329.49290155 Ry
     Harris-Foulkes estimate   =    -329.49290169 Ry
     estimated scf accuracy    <       0.00000083 Ry

     iteration #  5     ecut=    30.00 Ry     beta=0.70
     Davidson diagonalization with overlap
     ethr =  7.78E-10,  avg # of iterations =  2.0

     total cpu time spent up to now is      126.7 secs

     total energy              =    -329.49290179 Ry
     Harris-Foulkes estimate   =    -329.49290171 Ry
     estimated scf accuracy    <       0.00000003 Ry

     iteration #  6     ecut=    30.00 Ry     beta=0.70
     Davidson diagonalization with overlap
     ethr =  5.54E-11,  avg # of iterations =  2.0

     total cpu time spent up to now is      127.0 secs

     total energy              =    -329.49290178 Ry
     Harris-Foulkes estimate   =    -329.49290180 Ry
     estimated scf accuracy    <          2.3E-09 Ry

     iteration #  7     ecut=    30.00 Ry     beta=0.70
     Davidson diagonalization with overlap
     ethr =  4.22E-12,  avg # of iterations =  3.0

     total cpu time spent up to now is      127.3 secs

     total energy              =    -329.49290174 Ry
     Harris-Foulkes estimate   =    -329.49290178 Ry
     estimated scf accuracy    <          1.6E-09 Ry

     iteration #  8     ecut=    30.00 Ry     beta=0.70
     Davidson diagonalization with overlap
     ethr =  2.93E-12,  avg # of iterations =  2.0

     total cpu time spent up to now is      127.6 secs

     total energy              =    -329.49290174 Ry
     Harris-Foulkes estimate   =    -329.49290174 Ry
     estimated scf accuracy    <          1.0E-10 Ry

     iteration #  9     ecut=    30.00 Ry     beta=0.70
     Davidson diagonalization with overlap
     ethr =  1.83E-13,  avg # of iterations =  3.0

     total cpu time spent up to now is      127.9 secs

     End of self-consistent calculation

          k = 0.0000 0.0000 0.0000 ( 22119 PWs)   bands (ev):

    -8.5027  -7.7758  -7.6602  -7.2337  -6.8555  -6.8128  -6.6068  -6.4790
    -6.3148  -6.0707  -5.9493  -5.7707  -5.7299  -5.6802  -5.4529  -5.3623
    -5.3154  -5.2451  -5.1998  -5.1739  -5.1736  -5.1242  -4.9953  -4.9154
    -4.8326  -4.7427  -4.4757  -3.7794  -2.4472  -2.1884  -0.5442  -0.2179
     0.4853   0.7830

     the Fermi energy is    -3.7472 ev

!    total energy              =    -329.49290175 Ry
     Harris-Foulkes estimate   =    -329.49290174 Ry
     estimated scf accuracy    <          1.5E-11 Ry

     The total energy is the sum of the following terms:

     one-electron contribution =    -607.23466922 Ry
     hartree contribution      =     325.05269338 Ry
     xc contribution           =     -51.40031893 Ry
     ewald contribution        =       4.09366730 Ry
     smearing contrib. (-TS)   =      -0.00427429 Ry

     convergence has been achieved in   9 iterations

     Forces acting on atoms (Ry/au):

     atom    1 type  1   force =    -0.00049160    0.00064440   -0.00075367
     atom    2 type  1   force =     0.00007165    0.00040841    0.00033866
     atom    3 type  1   force =     0.00008793   -0.00012112    0.00034979
     atom    4 type  1   force =     0.00105626   -0.00086416   -0.00061222
     atom    5 type  1   force =    -0.00072425   -0.00006752    0.00067743

     Total force =     0.002209     Total SCF correction =     0.000020

     number of scf cycles    =  38
     number of bfgs steps    =  37

     energy   old            =    -329.4928923575 Ry
     energy   new            =    -329.4929017530 Ry

     CASE: energy  _new < energy  _old

     new trust radius        =       0.0117385990 bohr
     new conv_thr            =            1.0E-10 Ry


ATOMIC_POSITIONS (bohr)
Au      -1.716388211   3.589970218  -0.849072281
Au      -0.607812702   4.312937610   4.139645766
Au       2.991187204   2.394994347   0.571022208
Au       4.111926201   3.088720833   5.855726203
Au       7.502371507   1.161763993   2.461276103



     Writing output data file pwscf.save
     Check: negative starting charge=   -0.006370
     NEW-OLD atomic charge density approx. for the potential
     Check: negative starting charge=   -0.006371

     negative rho (up, down):  8.500E-06 0.000E+00

     total cpu time spent up to now is      128.2 secs

     per-process dynamical memory:    50.7 Mb

     Self-consistent Calculation

     iteration #  1     ecut=    30.00 Ry     beta=0.70
     Davidson diagonalization with overlap
     ethr =  1.00E-06,  avg # of iterations =  4.0

     Threshold (ethr) on eigenvalues was too large:
     Diagonalizing with lowered threshold

     Davidson diagonalization with overlap
     ethr =  4.94E-08,  avg # of iterations =  1.0

     total cpu time spent up to now is      128.8 secs

     total energy              =    -329.49290287 Ry
     Harris-Foulkes estimate   =    -329.49291646 Ry
     estimated scf accuracy    <       0.00002773 Ry

     iteration #  2     ecut=    30.00 Ry     beta=0.70
     Davidson diagonalization with overlap
     ethr =  5.04E-08,  avg # of iterations =  3.0

     total cpu time spent up to now is      129.2 secs

     total energy              =    -329.49290588 Ry
     Harris-Foulkes estimate   =    -329.49292244 Ry
     estimated scf accuracy    <       0.00003740 Ry

     iteration #  3     ecut=    30.00 Ry     beta=0.70
     Davidson diagonalization with overlap
     ethr =  5.04E-08,  avg # of iterations =  2.0

     total cpu time spent up to now is      129.4 secs

     total energy              =    -329.49291336 Ry
     Harris-Foulkes estimate   =    -329.49291409 Ry
     estimated scf accuracy    <       0.00000206 Ry

     iteration #  4     ecut=    30.00 Ry     beta=0.70
     Davidson diagonalization with overlap
     ethr =  3.75E-09,  avg # of iterations =  2.0

     total cpu time spent up to now is      129.7 secs

     total energy              =    -329.49291369 Ry
     Harris-Foulkes estimate   =    -329.49291480 Ry
     estimated scf accuracy    <       0.00000328 Ry

     iteration #  5     ecut=    30.00 Ry     beta=0.70
     Davidson diagonalization with overlap
     ethr =  3.75E-09,  avg # of iterations =  2.0

     total cpu time spent up to now is      130.0 secs

     total energy              =    -329.49291428 Ry
     Harris-Foulkes estimate   =    -329.49291423 Ry
     estimated scf accuracy    <       0.00000004 Ry

     iteration #  6     ecut=    30.00 Ry     beta=0.70
     Davidson diagonalization with overlap
     ethr =  7.12E-11,  avg # of iterations =  3.0

     total cpu time spent up to now is      130.3 secs

     total energy              =    -329.49291426 Ry
     Harris-Foulkes estimate   =    -329.49291430 Ry
     estimated scf accuracy    <          7.5E-09 Ry

     iteration #  7     ecut=    30.00 Ry     beta=0.70
     Davidson diagonalization with overlap
     ethr =  1.36E-11,  avg # of iterations =  3.0

     total cpu time spent up to now is      130.6 secs

     total energy              =    -329.49291439 Ry
     Harris-Foulkes estimate   =    -329.49291426 Ry
     estimated scf accuracy    <          3.4E-09 Ry

     iteration #  8     ecut=    30.00 Ry     beta=0.70
     Davidson diagonalization with overlap
     ethr =  6.15E-12,  avg # of iterations =  2.0

     total cpu time spent up to now is      130.9 secs

     total energy              =    -329.49291439 Ry
     Harris-Foulkes estimate   =    -329.49291439 Ry
     estimated scf accuracy    <          4.0E-10 Ry

     iteration #  9     ecut=    30.00 Ry     beta=0.70
     Davidson diagonalization with overlap
     ethr =  7.21E-13,  avg # of iterations =  3.0

     total cpu time spent up to now is      131.2 secs

     End of self-consistent calculation

          k = 0.0000 0.0000 0.0000 ( 22119 PWs)   bands (ev):

    -8.5030  -7.7757  -7.6589  -7.2324  -6.8544  -6.8130  -6.6066  -6.4786
    -6.3136  -6.0712  -5.9493  -5.7704  -5.7296  -5.6801  -5.4529  -5.3619
    -5.3152  -5.2455  -5.1997  -5.1746  -5.1727  -5.1242  -4.9950  -4.9160
    -4.8332  -4.7423  -4.4764  -3.7791  -2.4458  -2.1897  -0.5437  -0.2178
     0.4845   0.7812

     the Fermi energy is    -3.7468 ev

!    total energy              =    -329.49291440 Ry
     Harris-Foulkes estimate   =    -329.49291439 Ry
     estimated scf accuracy    <          4.0E-11 Ry

     The total energy is the sum of the following terms:

     one-electron contribution =    -607.15952401 Ry
     hartree contribution      =     325.01534892 Ry
     xc contribution           =     -51.40011172 Ry
     ewald contribution        =       4.05567153 Ry
     smearing contrib. (-TS)   =      -0.00429912 Ry

     convergence has been achieved in   9 iterations

     Forces acting on atoms (Ry/au):

     atom    1 type  1   force =    -0.00014801    0.00049817   -0.00049704
     atom    2 type  1   force =     0.00025941    0.00037350    0.00032431
     atom    3 type  1   force =    -0.00082988    0.00008315    0.00000497
     atom    4 type  1   force =     0.00086046   -0.00085288   -0.00051977
     atom    5 type  1   force =    -0.00014198   -0.00010194    0.00068753

     Total force =     0.001941     Total SCF correction =     0.000033

     bfgs converged in  39 scf cycles and  38 bfgs steps
     (criteria: energy <  1.0E-04, force <  1.0E-03)

     End of BFGS Geometry Optimization

     Final energy   =    -329.4929144012 Ry
Begin final coordinates

ATOMIC_POSITIONS (bohr)
Au      -1.716388211   3.589970218  -0.849072281
Au      -0.607812702   4.312937610   4.139645766
Au       2.991187204   2.394994347   0.571022208
Au       4.111926201   3.088720833   5.855726203
Au       7.502371507   1.161763993   2.461276103
End final coordinates



     Writing output data file pwscf.save
 
     init_run     :      0.21s CPU      0.24s WALL (       1 calls)
     electrons    :    113.06s CPU    120.67s WALL (      39 calls)
     update_pot   :      3.65s CPU      4.65s WALL (      38 calls)
     forces       :      1.99s CPU      2.03s WALL (      39 calls)

     Called by init_run:
     wfcinit      :      0.07s CPU      0.09s WALL (       1 calls)
     potinit      :      0.03s CPU      0.04s WALL (       1 calls)

     Called by electrons:
     c_bands      :     84.22s CPU     85.77s WALL (     390 calls)
     sum_band     :     10.52s CPU     10.75s WALL (     390 calls)
     v_of_rho     :      9.76s CPU      9.91s WALL (     410 calls)
     mix_rho      :      4.62s CPU      7.50s WALL (     390 calls)

     Called by c_bands:
     init_us_2    :      1.22s CPU      1.28s WALL (     781 calls)
     cegterg      :     76.44s CPU     77.56s WALL (     390 calls)

     Called by sum_band:

     Called by *egterg:
     h_psi        :     54.72s CPU     55.42s WALL (    1378 calls)
     g_psi        :      0.45s CPU      0.45s WALL (     987 calls)
     cdiaghg      :      6.42s CPU      6.54s WALL (    1320 calls)

     Called by h_psi:
     h_psi:pot    :     54.07s CPU     54.76s WALL (    1378 calls)
     h_psi:calbec :      3.75s CPU      3.82s WALL (    1378 calls)
     vloc_psi     :     47.53s CPU     48.15s WALL (    1378 calls)
     add_vuspsi   :      2.79s CPU      2.79s WALL (    1378 calls)

     General routines
     calbec       :      4.37s CPU      4.46s WALL (    1534 calls)
     fft          :      5.97s CPU      6.08s WALL (    4625 calls)
     fftw         :     50.58s CPU     51.55s WALL (   86636 calls)
     davcio       :      0.50s CPU      2.65s WALL (    3808 calls)
 
     Parallel routines
     fft_scatter  :     21.52s CPU     21.60s WALL (   91261 calls)
 
     PWSCF        :  2m 0.73s CPU     2m11.54s WALL

 
   This run was terminated on:   1:29:21  29Jul2017            

=------------------------------------------------------------------------------=
   JOB DONE.
=------------------------------------------------------------------------------=
