
     Program PWSCF v.6.0 (svn rev. 13079) starts on 29Jul2017 at  1:29:22 

     This program is part of the open-source Quantum ESPRESSO suite
     for quantum simulation of materials; please cite
         "P. Giannozzi et al., J. Phys.:Condens. Matter 21 395502 (2009);
          URL http://www.quantum-espresso.org", 
     in publications or presentations arising from this work. More details at
     http://www.quantum-espresso.org/quote

     Parallel version (MPI), running on    10 processors
     R & G space division:  proc/nbgrp/npool/nimage =      10
     Reading input from input/dftmin-Gold5-multi-21.in

     Current dimensions of program PWSCF are:
     Max number of different atomic species (ntypx) = 10
     Max number of k-points (npk) =  40000
     Max angular momentum in pseudopotentials (lmaxx) =  3
     Message from routine iosys:
     pot_extrapolation='second-order' not available, using 'atomic'
     Message from routine iosys:
     wfc_extrapolation='second-order' not available, using 'atomic'

     Subspace diagonalization in iterative solution of the eigenvalue problem:
     a serial algorithm will be used

 
     Parallelization info
     --------------------
     sticks:   dense  smooth     PW     G-vecs:    dense   smooth      PW
     Min         380     380     94                17748    17748    2208
     Max         381     381     95                17753    17753    2213
     Sum        3809    3809    949               177509   177509   22119
 


     bravais-lattice index     =            1
     lattice parameter (alat)  =      20.0000  a.u.
     unit-cell volume          =    8000.0000 (a.u.)^3
     number of atoms/cell      =            5
     number of atomic types    =            1
     number of electrons       =        55.00
     number of Kohn-Sham states=           34
     kinetic-energy cutoff     =      30.0000  Ry
     charge density cutoff     =     120.0000  Ry
     convergence threshold     =      1.0E-08
     mixing beta               =       0.7000
     number of iterations used =            8  plain     mixing
     Exchange-correlation      = BLYP ( 1  3  1  3 0 0)
     nstep                     =           50


     celldm(1)=  20.000000  celldm(2)=   0.000000  celldm(3)=   0.000000
     celldm(4)=   0.000000  celldm(5)=   0.000000  celldm(6)=   0.000000

     crystal axes: (cart. coord. in units of alat)
               a(1) = (   1.000000   0.000000   0.000000 )  
               a(2) = (   0.000000   1.000000   0.000000 )  
               a(3) = (   0.000000   0.000000   1.000000 )  

     reciprocal axes: (cart. coord. in units 2 pi/alat)
               b(1) = (  1.000000  0.000000  0.000000 )  
               b(2) = (  0.000000  1.000000  0.000000 )  
               b(3) = (  0.000000  0.000000  1.000000 )  


     PseudoPot. # 1 for Au read from file:
     ./Au.blyp-d-hgh.UPF
     MD5 check sum: c10d8bae01f806c36a1643a1c69a8479
     Pseudo is Norm-conserving, Zval = 11.0
     Generated in analytical, separable form
     Using radial grid of 1279 points,  6 beta functions with: 
                l(1) =   0
                l(2) =   0
                l(3) =   1
                l(4) =   1
                l(5) =   2
                l(6) =   2

     atomic species   valence    mass     pseudopotential
        Au            11.00    28.08600     Au( 1.00)

     No symmetry found



   Cartesian axes

     site n.     atom                  positions (alat units)
         1           Au  tau(   1) = (  -0.0268032   0.0135191   0.0342162  )
         2           Au  tau(   2) = (  -0.1181185   0.1796331   0.2062045  )
         3           Au  tau(   3) = (   0.1528019   0.1343550  -0.0935637  )
         4           Au  tau(   4) = (   0.2518793   0.2378781   0.2472390  )
         5           Au  tau(   5) = (   0.2065780  -0.0010453   0.1847656  )

     number of k points=     1  Marzari-Vanderbilt smearing, width (Ry)=  0.0250
                       cart. coord. in units 2pi/alat
        k(    1) = (   0.0000000   0.0000000   0.0000000), wk =   2.0000000

     Dense  grid:   177509 G-vectors     FFT dimensions: (  72,  72,  72)

     Estimated max dynamical RAM per process >      15.04Mb

     Estimated total allocated dynamical RAM >     150.39Mb

     Initial potential from superposition of free atoms
     Check: negative starting charge=   -0.005518

     starting charge   54.99940, renormalised to   55.00000

     negative rho (up, down):  5.518E-03 0.000E+00
     Starting wfc are   45 randomized atomic wfcs

     total cpu time spent up to now is        0.5 secs

     per-process dynamical memory:    41.0 Mb

     Self-consistent Calculation

     iteration #  1     ecut=    30.00 Ry     beta=0.70
     Davidson diagonalization with overlap
     ethr =  1.00E-02,  avg # of iterations =  2.0

     Threshold (ethr) on eigenvalues was too large:
     Diagonalizing with lowered threshold

     Davidson diagonalization with overlap
     ethr =  5.97E-04,  avg # of iterations =  5.0

     negative rho (up, down):  7.060E-04 0.000E+00

     total cpu time spent up to now is        1.1 secs

     total energy              =    -329.18685513 Ry
     Harris-Foulkes estimate   =    -329.43789713 Ry
     estimated scf accuracy    <       0.39052519 Ry

     iteration #  2     ecut=    30.00 Ry     beta=0.70
     Davidson diagonalization with overlap
     ethr =  7.10E-04,  avg # of iterations =  3.0

     negative rho (up, down):  3.626E-04 0.000E+00

     total cpu time spent up to now is        1.4 secs

     total energy              =    -329.23088321 Ry
     Harris-Foulkes estimate   =    -329.54850202 Ry
     estimated scf accuracy    <       0.73213794 Ry

     iteration #  3     ecut=    30.00 Ry     beta=0.70
     Davidson diagonalization with overlap
     ethr =  7.10E-04,  avg # of iterations =  2.0

     negative rho (up, down):  1.302E-04 0.000E+00

     total cpu time spent up to now is        1.7 secs

     total energy              =    -329.35782577 Ry
     Harris-Foulkes estimate   =    -329.37575252 Ry
     estimated scf accuracy    <       0.04176038 Ry

     iteration #  4     ecut=    30.00 Ry     beta=0.70
     Davidson diagonalization with overlap
     ethr =  7.59E-05,  avg # of iterations =  2.0

     negative rho (up, down):  7.666E-06 0.000E+00

     total cpu time spent up to now is        2.0 secs

     total energy              =    -329.36625394 Ry
     Harris-Foulkes estimate   =    -329.36797012 Ry
     estimated scf accuracy    <       0.00492368 Ry

     iteration #  5     ecut=    30.00 Ry     beta=0.70
     Davidson diagonalization with overlap
     ethr =  8.95E-06,  avg # of iterations =  3.0

     negative rho (up, down):  3.059E-08 0.000E+00

     total cpu time spent up to now is        2.3 secs

     total energy              =    -329.36696997 Ry
     Harris-Foulkes estimate   =    -329.36812702 Ry
     estimated scf accuracy    <       0.00311684 Ry

     iteration #  6     ecut=    30.00 Ry     beta=0.70
     Davidson diagonalization with overlap
     ethr =  5.67E-06,  avg # of iterations =  2.0

     total cpu time spent up to now is        2.5 secs

     total energy              =    -329.36752400 Ry
     Harris-Foulkes estimate   =    -329.36761380 Ry
     estimated scf accuracy    <       0.00020036 Ry

     iteration #  7     ecut=    30.00 Ry     beta=0.70
     Davidson diagonalization with overlap
     ethr =  3.64E-07,  avg # of iterations =  2.0

     total cpu time spent up to now is        2.9 secs

     total energy              =    -329.36755672 Ry
     Harris-Foulkes estimate   =    -329.36760722 Ry
     estimated scf accuracy    <       0.00011383 Ry

     iteration #  8     ecut=    30.00 Ry     beta=0.70
     Davidson diagonalization with overlap
     ethr =  2.07E-07,  avg # of iterations =  2.0

     total cpu time spent up to now is        3.2 secs

     total energy              =    -329.36757824 Ry
     Harris-Foulkes estimate   =    -329.36758907 Ry
     estimated scf accuracy    <       0.00002536 Ry

     iteration #  9     ecut=    30.00 Ry     beta=0.70
     Davidson diagonalization with overlap
     ethr =  4.61E-08,  avg # of iterations =  2.0

     total cpu time spent up to now is        3.4 secs

     total energy              =    -329.36758223 Ry
     Harris-Foulkes estimate   =    -329.36758387 Ry
     estimated scf accuracy    <       0.00000306 Ry

     iteration # 10     ecut=    30.00 Ry     beta=0.70
     Davidson diagonalization with overlap
     ethr =  5.57E-09,  avg # of iterations =  2.0

     total cpu time spent up to now is        3.7 secs

     total energy              =    -329.36758265 Ry
     Harris-Foulkes estimate   =    -329.36758356 Ry
     estimated scf accuracy    <       0.00000263 Ry

     iteration # 11     ecut=    30.00 Ry     beta=0.70
     Davidson diagonalization with overlap
     ethr =  4.78E-09,  avg # of iterations =  1.0

     total cpu time spent up to now is        4.0 secs

     total energy              =    -329.36758291 Ry
     Harris-Foulkes estimate   =    -329.36758309 Ry
     estimated scf accuracy    <       0.00000013 Ry

     iteration # 12     ecut=    30.00 Ry     beta=0.70
     Davidson diagonalization with overlap
     ethr =  2.44E-10,  avg # of iterations =  3.0

     total cpu time spent up to now is        4.3 secs

     total energy              =    -329.36758291 Ry
     Harris-Foulkes estimate   =    -329.36758295 Ry
     estimated scf accuracy    <       0.00000003 Ry

     iteration # 13     ecut=    30.00 Ry     beta=0.70
     Davidson diagonalization with overlap
     ethr =  5.26E-11,  avg # of iterations =  2.0

     total cpu time spent up to now is        4.5 secs

     End of self-consistent calculation

          k = 0.0000 0.0000 0.0000 ( 22119 PWs)   bands (ev):

    -7.6397  -7.2622  -7.1603  -6.9382  -6.7437  -6.5585  -6.4237  -6.1811
    -5.9228  -5.7472  -5.5404  -5.4602  -5.3602  -5.3218  -5.2821  -5.1180
    -5.0696  -5.0453  -5.0271  -4.9644  -4.9133  -4.8733  -4.8624  -4.7981
    -4.7889  -4.6433  -4.1436  -3.9361  -3.1671  -2.3102  -0.3417   0.0261
     0.1109   0.3135

     the Fermi energy is    -3.8785 ev

!    total energy              =    -329.36758288 Ry
     Harris-Foulkes estimate   =    -329.36758292 Ry
     estimated scf accuracy    <          2.5E-09 Ry

     The total energy is the sum of the following terms:

     one-electron contribution =    -562.09252685 Ry
     hartree contribution      =     302.97180335 Ry
     xc contribution           =     -51.31487683 Ry
     ewald contribution        =     -18.93087508 Ry
     smearing contrib. (-TS)   =      -0.00110747 Ry

     convergence has been achieved in  13 iterations

     Forces acting on atoms (Ry/au):

     atom    1 type  1   force =    -0.00246412    0.01594213    0.01289026
     atom    2 type  1   force =     0.00457857   -0.01451805   -0.00964335
     atom    3 type  1   force =     0.00212330   -0.01067861    0.01004801
     atom    4 type  1   force =    -0.00132163   -0.01738032   -0.00141486
     atom    5 type  1   force =    -0.00291611    0.02663486   -0.01188006

     Total force =     0.046211     Total SCF correction =     0.000176

     BFGS Geometry Optimization

     number of scf cycles    =   1
     number of bfgs steps    =   0

     energy   new            =    -329.3675828810 Ry

     new trust radius        =       0.0293096422 bohr
     new conv_thr            =       0.0000000100 Ry


ATOMIC_POSITIONS (bohr)
Au      -0.538528120   0.286324128   0.697213258
Au      -2.357790433   3.578144947   4.114447654
Au       3.058161300   2.676420390  -1.861225992
Au       5.036264367   4.740180679   4.943365140
Au       4.128644886   0.005728856   3.683431940



     Writing output data file pwscf.save
     Check: negative starting charge=   -0.005518
     NEW-OLD atomic charge density approx. for the potential
     Check: negative starting charge=   -0.005514

     negative rho (up, down):  1.716E-04 0.000E+00

     total cpu time spent up to now is        4.9 secs

     per-process dynamical memory:    42.9 Mb

     Self-consistent Calculation

     iteration #  1     ecut=    30.00 Ry     beta=0.70
     Davidson diagonalization with overlap
     ethr =  1.00E-06,  avg # of iterations =  4.0

     negative rho (up, down):  3.249E-06 0.000E+00

     total cpu time spent up to now is        5.5 secs

     total energy              =    -329.36947255 Ry
     Harris-Foulkes estimate   =    -329.36944841 Ry
     estimated scf accuracy    <       0.00012597 Ry

     iteration #  2     ecut=    30.00 Ry     beta=0.70
     Davidson diagonalization with overlap
     ethr =  2.29E-07,  avg # of iterations =  3.0

     negative rho (up, down):  4.207E-07 0.000E+00

     total cpu time spent up to now is        5.8 secs

     total energy              =    -329.36947989 Ry
     Harris-Foulkes estimate   =    -329.36954585 Ry
     estimated scf accuracy    <       0.00015915 Ry

     iteration #  3     ecut=    30.00 Ry     beta=0.70
     Davidson diagonalization with overlap
     ethr =  2.29E-07,  avg # of iterations =  2.0

     total cpu time spent up to now is        6.0 secs

     total energy              =    -329.36951368 Ry
     Harris-Foulkes estimate   =    -329.36952468 Ry
     estimated scf accuracy    <       0.00003527 Ry

     iteration #  4     ecut=    30.00 Ry     beta=0.70
     Davidson diagonalization with overlap
     ethr =  6.41E-08,  avg # of iterations =  2.0

     total cpu time spent up to now is        6.3 secs

     total energy              =    -329.36951951 Ry
     Harris-Foulkes estimate   =    -329.36952387 Ry
     estimated scf accuracy    <       0.00001065 Ry

     iteration #  5     ecut=    30.00 Ry     beta=0.70
     Davidson diagonalization with overlap
     ethr =  1.94E-08,  avg # of iterations =  2.0

     total cpu time spent up to now is        6.6 secs

     total energy              =    -329.36952119 Ry
     Harris-Foulkes estimate   =    -329.36952209 Ry
     estimated scf accuracy    <       0.00000204 Ry

     iteration #  6     ecut=    30.00 Ry     beta=0.70
     Davidson diagonalization with overlap
     ethr =  3.71E-09,  avg # of iterations =  2.0

     total cpu time spent up to now is        6.8 secs

     total energy              =    -329.36952133 Ry
     Harris-Foulkes estimate   =    -329.36952175 Ry
     estimated scf accuracy    <       0.00000059 Ry

     iteration #  7     ecut=    30.00 Ry     beta=0.70
     Davidson diagonalization with overlap
     ethr =  1.07E-09,  avg # of iterations =  2.0

     total cpu time spent up to now is        7.1 secs

     total energy              =    -329.36952124 Ry
     Harris-Foulkes estimate   =    -329.36952147 Ry
     estimated scf accuracy    <       0.00000008 Ry

     iteration #  8     ecut=    30.00 Ry     beta=0.70
     Davidson diagonalization with overlap
     ethr =  1.43E-10,  avg # of iterations =  2.0

     total cpu time spent up to now is        7.3 secs

     End of self-consistent calculation

          k = 0.0000 0.0000 0.0000 ( 22119 PWs)   bands (ev):

    -7.6696  -7.3102  -7.2084  -6.9645  -6.7719  -6.5822  -6.4422  -6.2107
    -5.9414  -5.7691  -5.5547  -5.4663  -5.3653  -5.3286  -5.2880  -5.1173
    -5.0691  -5.0387  -5.0243  -4.9577  -4.9030  -4.8598  -4.8425  -4.7817
    -4.7765  -4.6240  -4.1415  -3.9334  -3.1444  -2.2880  -0.3440   0.0259
     0.1142   0.3160

     the Fermi energy is    -3.8777 ev

!    total energy              =    -329.36952106 Ry
     Harris-Foulkes estimate   =    -329.36952126 Ry
     estimated scf accuracy    <          5.4E-09 Ry

     The total energy is the sum of the following terms:

     one-electron contribution =    -564.70020469 Ry
     hartree contribution      =     304.26670828 Ry
     xc contribution           =     -51.32519924 Ry
     ewald contribution        =     -17.61040695 Ry
     smearing contrib. (-TS)   =      -0.00041846 Ry

     convergence has been achieved in   8 iterations

     Forces acting on atoms (Ry/au):

     atom    1 type  1   force =    -0.00300309    0.01278700    0.01109940
     atom    2 type  1   force =     0.00324975   -0.01191247   -0.00727896
     atom    3 type  1   force =     0.00331285   -0.01009435    0.00965567
     atom    4 type  1   force =     0.00001831   -0.01177337   -0.00050929
     atom    5 type  1   force =    -0.00357782    0.02099320   -0.01296682

     Total force =     0.038312     Total SCF correction =     0.000289

     number of scf cycles    =   2
     number of bfgs steps    =   1

     energy   old            =    -329.3675828810 Ry
     energy   new            =    -329.3695210592 Ry

     CASE: energy  _new < energy  _old


     WARNING: bfgs curvature condition failed, Theta= 0.974
     new trust radius        =       0.0322406065 bohr
     new conv_thr            =       0.0000000019 Ry


ATOMIC_POSITIONS (bohr)
Au      -0.542299752   0.302971396   0.711561215
Au      -2.353502783   3.562672216   4.104909949
Au       3.062257795   2.663484287  -1.848870029
Au       5.036143195   4.724561613   4.942617985
Au       4.124153544   0.033109489   3.667012880



     Writing output data file pwscf.save
     Check: negative starting charge=   -0.005514
     NEW-OLD atomic charge density approx. for the potential
     Check: negative starting charge=   -0.005528

     negative rho (up, down):  2.077E-04 0.000E+00

     total cpu time spent up to now is        7.7 secs

     per-process dynamical memory:    50.7 Mb

     Self-consistent Calculation

     iteration #  1     ecut=    30.00 Ry     beta=0.70
     Davidson diagonalization with overlap
     ethr =  1.00E-06,  avg # of iterations =  4.0

     negative rho (up, down):  4.524E-06 0.000E+00

     total cpu time spent up to now is        8.2 secs

     total energy              =    -329.37117023 Ry
     Harris-Foulkes estimate   =    -329.37114111 Ry
     estimated scf accuracy    <       0.00015081 Ry

     iteration #  2     ecut=    30.00 Ry     beta=0.70
     Davidson diagonalization with overlap
     ethr =  2.74E-07,  avg # of iterations =  3.0

     negative rho (up, down):  6.448E-07 0.000E+00

     total cpu time spent up to now is        8.5 secs

     total energy              =    -329.37117997 Ry
     Harris-Foulkes estimate   =    -329.37125776 Ry
     estimated scf accuracy    <       0.00018142 Ry

     iteration #  3     ecut=    30.00 Ry     beta=0.70
     Davidson diagonalization with overlap
     ethr =  2.74E-07,  avg # of iterations =  2.0

     total cpu time spent up to now is        8.8 secs

     total energy              =    -329.37121809 Ry
     Harris-Foulkes estimate   =    -329.37123101 Ry
     estimated scf accuracy    <       0.00003819 Ry

     iteration #  4     ecut=    30.00 Ry     beta=0.70
     Davidson diagonalization with overlap
     ethr =  6.94E-08,  avg # of iterations =  2.0

     total cpu time spent up to now is        9.0 secs

     total energy              =    -329.37122515 Ry
     Harris-Foulkes estimate   =    -329.37123045 Ry
     estimated scf accuracy    <       0.00001524 Ry

     iteration #  5     ecut=    30.00 Ry     beta=0.70
     Davidson diagonalization with overlap
     ethr =  2.77E-08,  avg # of iterations =  2.0

     total cpu time spent up to now is        9.3 secs

     total energy              =    -329.37122732 Ry
     Harris-Foulkes estimate   =    -329.37122892 Ry
     estimated scf accuracy    <       0.00000373 Ry

     iteration #  6     ecut=    30.00 Ry     beta=0.70
     Davidson diagonalization with overlap
     ethr =  6.79E-09,  avg # of iterations =  2.0

     total cpu time spent up to now is        9.5 secs

     total energy              =    -329.37122791 Ry
     Harris-Foulkes estimate   =    -329.37122822 Ry
     estimated scf accuracy    <       0.00000086 Ry

     iteration #  7     ecut=    30.00 Ry     beta=0.70
     Davidson diagonalization with overlap
     ethr =  1.57E-09,  avg # of iterations =  2.0

     total cpu time spent up to now is        9.8 secs

     total energy              =    -329.37122767 Ry
     Harris-Foulkes estimate   =    -329.37122809 Ry
     estimated scf accuracy    <       0.00000005 Ry

     iteration #  8     ecut=    30.00 Ry     beta=0.70
     Davidson diagonalization with overlap
     ethr =  9.27E-11,  avg # of iterations =  3.0

     total cpu time spent up to now is       10.1 secs

     total energy              =    -329.37122768 Ry
     Harris-Foulkes estimate   =    -329.37122769 Ry
     estimated scf accuracy    <          5.2E-09 Ry

     iteration #  9     ecut=    30.00 Ry     beta=0.70
     Davidson diagonalization with overlap
     ethr =  9.43E-12,  avg # of iterations =  2.0

     total cpu time spent up to now is       10.4 secs

     total energy              =    -329.37122766 Ry
     Harris-Foulkes estimate   =    -329.37122768 Ry
     estimated scf accuracy    <          2.4E-09 Ry

     iteration # 10     ecut=    30.00 Ry     beta=0.70
     Davidson diagonalization with overlap
     ethr =  4.42E-12,  avg # of iterations =  2.0

     total cpu time spent up to now is       10.6 secs

     End of self-consistent calculation

          k = 0.0000 0.0000 0.0000 ( 22119 PWs)   bands (ev):

    -7.7037  -7.3608  -7.2543  -6.9938  -6.8029  -6.6097  -6.4611  -6.2392
    -5.9584  -5.7959  -5.5707  -5.4737  -5.3713  -5.3372  -5.2960  -5.1159
    -5.0689  -5.0314  -5.0211  -4.9495  -4.8904  -4.8436  -4.8208  -4.7705
    -4.7546  -4.6027  -4.1382  -3.9304  -3.1209  -2.2651  -0.3465   0.0256
     0.1183   0.3185

     the Fermi energy is    -3.8769 ev

!    total energy              =    -329.37122770 Ry
     Harris-Foulkes estimate   =    -329.37122766 Ry
     estimated scf accuracy    <          7.4E-10 Ry

     The total energy is the sum of the following terms:

     one-electron contribution =    -567.44016276 Ry
     hartree contribution      =     305.62765175 Ry
     xc contribution           =     -51.33638669 Ry
     ewald contribution        =     -16.22274066 Ry
     smearing contrib. (-TS)   =       0.00041066 Ry

     convergence has been achieved in  10 iterations

     Forces acting on atoms (Ry/au):

     atom    1 type  1   force =    -0.00333201    0.00916060    0.00883232
     atom    2 type  1   force =     0.00163022   -0.00890780   -0.00443087
     atom    3 type  1   force =     0.00458871   -0.00973651    0.00958295
     atom    4 type  1   force =     0.00125147   -0.00599852    0.00068787
     atom    5 type  1   force =    -0.00413839    0.01548223   -0.01467227

     Total force =     0.031504     Total SCF correction =     0.000083

     number of scf cycles    =   3
     number of bfgs steps    =   2

     energy   old            =    -329.3695210592 Ry
     energy   new            =    -329.3712277037 Ry

     CASE: energy  _new < energy  _old

     new trust radius        =       0.0483609097 bohr
     new conv_thr            =       0.0000000015 Ry


ATOMIC_POSITIONS (bohr)
Au      -0.548983032   0.325195785   0.731946446
Au      -2.348785818   3.541483946   4.093311349
Au       3.070875825   2.642601742  -1.828524664
Au       5.037709861   4.707101642   4.943141825
Au       4.115935164   0.070415885   3.637357044



     Writing output data file pwscf.save
     Check: negative starting charge=   -0.005528
     NEW-OLD atomic charge density approx. for the potential
     Check: negative starting charge=   -0.005578

     negative rho (up, down):  4.506E-04 0.000E+00

     total cpu time spent up to now is       11.0 secs

     per-process dynamical memory:    50.7 Mb

     Self-consistent Calculation

     iteration #  1     ecut=    30.00 Ry     beta=0.70
     Davidson diagonalization with overlap
     ethr =  1.00E-06,  avg # of iterations =  4.0

     negative rho (up, down):  1.844E-05 0.000E+00

     total cpu time spent up to now is       11.5 secs

     total energy              =    -329.37301844 Ry
     Harris-Foulkes estimate   =    -329.37285359 Ry
     estimated scf accuracy    <       0.00032422 Ry

     iteration #  2     ecut=    30.00 Ry     beta=0.70
     Davidson diagonalization with overlap
     ethr =  5.89E-07,  avg # of iterations =  4.0

     negative rho (up, down):  3.945E-06 0.000E+00

     total cpu time spent up to now is       11.8 secs

     total energy              =    -329.37302792 Ry
     Harris-Foulkes estimate   =    -329.37321547 Ry
     estimated scf accuracy    <       0.00043309 Ry

     iteration #  3     ecut=    30.00 Ry     beta=0.70
     Davidson diagonalization with overlap
     ethr =  5.89E-07,  avg # of iterations =  2.0

     negative rho (up, down):  2.257E-07 0.000E+00

     total cpu time spent up to now is       12.1 secs

     total energy              =    -329.37311036 Ry
     Harris-Foulkes estimate   =    -329.37315940 Ry
     estimated scf accuracy    <       0.00014202 Ry

     iteration #  4     ecut=    30.00 Ry     beta=0.70
     Davidson diagonalization with overlap
     ethr =  2.58E-07,  avg # of iterations =  2.0

     total cpu time spent up to now is       12.4 secs

     total energy              =    -329.37313442 Ry
     Harris-Foulkes estimate   =    -329.37314873 Ry
     estimated scf accuracy    <       0.00004403 Ry

     iteration #  5     ecut=    30.00 Ry     beta=0.70
     Davidson diagonalization with overlap
     ethr =  8.01E-08,  avg # of iterations =  2.0

     total cpu time spent up to now is       12.6 secs

     total energy              =    -329.37314107 Ry
     Harris-Foulkes estimate   =    -329.37314463 Ry
     estimated scf accuracy    <       0.00000960 Ry

     iteration #  6     ecut=    30.00 Ry     beta=0.70
     Davidson diagonalization with overlap
     ethr =  1.75E-08,  avg # of iterations =  2.0

     total cpu time spent up to now is       12.9 secs

     total energy              =    -329.37314259 Ry
     Harris-Foulkes estimate   =    -329.37314306 Ry
     estimated scf accuracy    <       0.00000124 Ry

     iteration #  7     ecut=    30.00 Ry     beta=0.70
     Davidson diagonalization with overlap
     ethr =  2.25E-09,  avg # of iterations =  2.0

     total cpu time spent up to now is       13.2 secs

     total energy              =    -329.37314272 Ry
     Harris-Foulkes estimate   =    -329.37314295 Ry
     estimated scf accuracy    <       0.00000024 Ry

     iteration #  8     ecut=    30.00 Ry     beta=0.70
     Davidson diagonalization with overlap
     ethr =  4.34E-10,  avg # of iterations =  2.0

     total cpu time spent up to now is       13.4 secs

     total energy              =    -329.37314270 Ry
     Harris-Foulkes estimate   =    -329.37314277 Ry
     estimated scf accuracy    <       0.00000004 Ry

     iteration #  9     ecut=    30.00 Ry     beta=0.70
     Davidson diagonalization with overlap
     ethr =  6.80E-11,  avg # of iterations =  3.0

     total cpu time spent up to now is       13.7 secs

     total energy              =    -329.37314272 Ry
     Harris-Foulkes estimate   =    -329.37314271 Ry
     estimated scf accuracy    <       0.00000001 Ry

     iteration # 10     ecut=    30.00 Ry     beta=0.70
     Davidson diagonalization with overlap
     ethr =  2.59E-11,  avg # of iterations =  2.0

     total cpu time spent up to now is       14.0 secs

     total energy              =    -329.37314272 Ry
     Harris-Foulkes estimate   =    -329.37314272 Ry
     estimated scf accuracy    <          6.0E-09 Ry

     iteration # 11     ecut=    30.00 Ry     beta=0.70
     Davidson diagonalization with overlap
     ethr =  1.09E-11,  avg # of iterations =  2.0

     total cpu time spent up to now is       14.2 secs

     End of self-consistent calculation

          k = 0.0000 0.0000 0.0000 ( 22119 PWs)   bands (ev):

    -7.7561  -7.4303  -7.3051  -7.0368  -6.8477  -6.6508  -6.4849  -6.2714
    -5.9757  -5.8390  -5.5948  -5.4852  -5.3801  -5.3520  -5.3104  -5.1129
    -5.0697  -5.0213  -5.0165  -4.9348  -4.8683  -4.8108  -4.7842  -4.7483
    -4.7169  -4.5673  -4.1305  -3.9263  -3.0875  -2.2338  -0.3500   0.0257
     0.1256   0.3218

     the Fermi energy is    -3.8759 ev

!    total energy              =    -329.37314272 Ry
     Harris-Foulkes estimate   =    -329.37314272 Ry
     estimated scf accuracy    <          6.8E-10 Ry

     The total energy is the sum of the following terms:

     one-electron contribution =    -571.22138213 Ry
     hartree contribution      =     307.51032265 Ry
     xc contribution           =     -51.35338655 Ry
     ewald contribution        =     -14.31071880 Ry
     smearing contrib. (-TS)   =       0.00202211 Ry

     convergence has been achieved in  11 iterations

     Forces acting on atoms (Ry/au):

     atom    1 type  1   force =    -0.00365863    0.00387453    0.00491509
     atom    2 type  1   force =    -0.00109616   -0.00434844    0.00001443
     atom    3 type  1   force =     0.00637626   -0.00950172    0.00995190
     atom    4 type  1   force =     0.00269831    0.00193938    0.00262212
     atom    5 type  1   force =    -0.00431978    0.00803625   -0.01750355

     Total force =     0.026649     Total SCF correction =     0.000118

     number of scf cycles    =   4
     number of bfgs steps    =   3

     energy   old            =    -329.3712277037 Ry
     energy   new            =    -329.3731427204 Ry

     CASE: energy  _new < energy  _old

     new trust radius        =       0.0725413645 bohr
     new conv_thr            =       0.0000000018 Ry


ATOMIC_POSITIONS (bohr)
Au      -0.560049508   0.353275576   0.758865935
Au      -2.345159504   3.514074654   4.081096923
Au       3.087124417   2.609480263  -1.795369668
Au       5.042136076   4.690175003   4.946749665
Au       4.102700519   0.119793503   3.585889145



     Writing output data file pwscf.save
     Check: negative starting charge=   -0.005578
     NEW-OLD atomic charge density approx. for the potential
     Check: negative starting charge=   -0.005696

     negative rho (up, down):  8.580E-04 0.000E+00

     total cpu time spent up to now is       14.6 secs

     per-process dynamical memory:    50.7 Mb

     Self-consistent Calculation

     iteration #  1     ecut=    30.00 Ry     beta=0.70
     Davidson diagonalization with overlap
     ethr =  1.00E-06,  avg # of iterations =  6.0

     negative rho (up, down):  5.298E-05 0.000E+00

     total cpu time spent up to now is       15.2 secs

     total energy              =    -329.37483367 Ry
     Harris-Foulkes estimate   =    -329.37434821 Ry
     estimated scf accuracy    <       0.00069782 Ry

     iteration #  2     ecut=    30.00 Ry     beta=0.70
     Davidson diagonalization with overlap
     ethr =  1.27E-06,  avg # of iterations =  4.0

     negative rho (up, down):  1.808E-05 0.000E+00

     total cpu time spent up to now is       15.5 secs

     total energy              =    -329.37477322 Ry
     Harris-Foulkes estimate   =    -329.37529942 Ry
     estimated scf accuracy    <       0.00125594 Ry

     iteration #  3     ecut=    30.00 Ry     beta=0.70
     Davidson diagonalization with overlap
     ethr =  1.27E-06,  avg # of iterations =  2.0

     negative rho (up, down):  2.258E-06 0.000E+00

     total cpu time spent up to now is       15.9 secs

     total energy              =    -329.37500391 Ry
     Harris-Foulkes estimate   =    -329.37515220 Ry
     estimated scf accuracy    <       0.00049671 Ry

     iteration #  4     ecut=    30.00 Ry     beta=0.70
     Davidson diagonalization with overlap
     ethr =  9.03E-07,  avg # of iterations =  1.0

     total cpu time spent up to now is       16.1 secs

     total energy              =    -329.37506710 Ry
     Harris-Foulkes estimate   =    -329.37509465 Ry
     estimated scf accuracy    <       0.00006942 Ry

     iteration #  5     ecut=    30.00 Ry     beta=0.70
     Davidson diagonalization with overlap
     ethr =  1.26E-07,  avg # of iterations =  2.0

     total cpu time spent up to now is       16.4 secs

     total energy              =    -329.37507286 Ry
     Harris-Foulkes estimate   =    -329.37507265 Ry
     estimated scf accuracy    <       0.00006944 Ry

     iteration #  6     ecut=    30.00 Ry     beta=0.70
     Davidson diagonalization with overlap
     ethr =  1.26E-07,  avg # of iterations =  1.0

     total cpu time spent up to now is       16.6 secs

     total energy              =    -329.37507727 Ry
     Harris-Foulkes estimate   =    -329.37507302 Ry
     estimated scf accuracy    <       0.00006929 Ry

     iteration #  7     ecut=    30.00 Ry     beta=0.70
     Davidson diagonalization with overlap
     ethr =  1.26E-07,  avg # of iterations =  1.0

     total cpu time spent up to now is       16.9 secs

     total energy              =    -329.37510036 Ry
     Harris-Foulkes estimate   =    -329.37507811 Ry
     estimated scf accuracy    <       0.00005591 Ry

     iteration #  8     ecut=    30.00 Ry     beta=0.70
     Davidson diagonalization with overlap
     ethr =  1.02E-07,  avg # of iterations =  2.0

     total cpu time spent up to now is       17.1 secs

     total energy              =    -329.37511526 Ry
     Harris-Foulkes estimate   =    -329.37509871 Ry
     estimated scf accuracy    <       0.00004661 Ry

     iteration #  9     ecut=    30.00 Ry     beta=0.70
     Davidson diagonalization with overlap
     ethr =  8.47E-08,  avg # of iterations =  2.0

     total cpu time spent up to now is       17.4 secs

     total energy              =    -329.37512534 Ry
     Harris-Foulkes estimate   =    -329.37511586 Ry
     estimated scf accuracy    <       0.00007028 Ry

     iteration # 10     ecut=    30.00 Ry     beta=0.70
     Davidson diagonalization with overlap
     ethr =  8.47E-08,  avg # of iterations =  1.0

     total cpu time spent up to now is       17.7 secs

     total energy              =    -329.37513188 Ry
     Harris-Foulkes estimate   =    -329.37512484 Ry
     estimated scf accuracy    <       0.00007939 Ry

     iteration # 11     ecut=    30.00 Ry     beta=0.70
     Davidson diagonalization with overlap
     ethr =  8.47E-08,  avg # of iterations =  1.0

     total cpu time spent up to now is       17.9 secs

     total energy              =    -329.37513697 Ry
     Harris-Foulkes estimate   =    -329.37513146 Ry
     estimated scf accuracy    <       0.00008625 Ry

     iteration # 12     ecut=    30.00 Ry     beta=0.70
     Davidson diagonalization with overlap
     ethr =  8.47E-08,  avg # of iterations =  1.0

     total cpu time spent up to now is       18.2 secs

     total energy              =    -329.37514187 Ry
     Harris-Foulkes estimate   =    -329.37513713 Ry
     estimated scf accuracy    <       0.00009738 Ry

     iteration # 13     ecut=    30.00 Ry     beta=0.70
     Davidson diagonalization with overlap
     ethr =  8.47E-08,  avg # of iterations =  1.0

     total cpu time spent up to now is       18.4 secs

     total energy              =    -329.37515086 Ry
     Harris-Foulkes estimate   =    -329.37514239 Ry
     estimated scf accuracy    <       0.00010933 Ry

     iteration # 14     ecut=    30.00 Ry     beta=0.70
     Davidson diagonalization with overlap
     ethr =  8.47E-08,  avg # of iterations =  1.0

     total cpu time spent up to now is       18.6 secs

     total energy              =    -329.37510398 Ry
     Harris-Foulkes estimate   =    -329.37515127 Ry
     estimated scf accuracy    <       0.00012979 Ry

     iteration # 15     ecut=    30.00 Ry     beta=0.70
     Davidson diagonalization with overlap
     ethr =  8.47E-08,  avg # of iterations =  4.0

     total cpu time spent up to now is       19.0 secs

     total energy              =    -329.37503240 Ry
     Harris-Foulkes estimate   =    -329.37506396 Ry
     estimated scf accuracy    <       0.00007112 Ry

     iteration # 16     ecut=    30.00 Ry     beta=0.70
     Davidson diagonalization with overlap
     ethr =  8.47E-08,  avg # of iterations =  2.0

     total cpu time spent up to now is       19.3 secs

     total energy              =    -329.37504706 Ry
     Harris-Foulkes estimate   =    -329.37501053 Ry
     estimated scf accuracy    <       0.00024915 Ry

     iteration # 17     ecut=    30.00 Ry     beta=0.70
     Davidson diagonalization with overlap
     ethr =  8.47E-08,  avg # of iterations =  2.0

     total cpu time spent up to now is       19.5 secs

     total energy              =    -329.37507866 Ry
     Harris-Foulkes estimate   =    -329.37504074 Ry
     estimated scf accuracy    <       0.00013168 Ry

     iteration # 18     ecut=    30.00 Ry     beta=0.70
     Davidson diagonalization with overlap
     ethr =  8.47E-08,  avg # of iterations =  2.0

     total cpu time spent up to now is       19.8 secs

     total energy              =    -329.37510213 Ry
     Harris-Foulkes estimate   =    -329.37506921 Ry
     estimated scf accuracy    <       0.00005291 Ry

     iteration # 19     ecut=    30.00 Ry     beta=0.70
     Davidson diagonalization with overlap
     ethr =  8.47E-08,  avg # of iterations =  2.0

     total cpu time spent up to now is       20.1 secs

     total energy              =    -329.37509950 Ry
     Harris-Foulkes estimate   =    -329.37509108 Ry
     estimated scf accuracy    <       0.00001855 Ry

     iteration # 20     ecut=    30.00 Ry     beta=0.70
     Davidson diagonalization with overlap
     ethr =  3.37E-08,  avg # of iterations =  2.0

     total cpu time spent up to now is       20.4 secs

     total energy              =    -329.37509740 Ry
     Harris-Foulkes estimate   =    -329.37509790 Ry
     estimated scf accuracy    <       0.00001200 Ry

     iteration # 21     ecut=    30.00 Ry     beta=0.70
     Davidson diagonalization with overlap
     ethr =  2.18E-08,  avg # of iterations =  1.0

     total cpu time spent up to now is       20.6 secs

     total energy              =    -329.37509634 Ry
     Harris-Foulkes estimate   =    -329.37509741 Ry
     estimated scf accuracy    <       0.00001264 Ry

     iteration # 22     ecut=    30.00 Ry     beta=0.70
     Davidson diagonalization with overlap
     ethr =  2.18E-08,  avg # of iterations =  1.0

     total cpu time spent up to now is       20.9 secs

     total energy              =    -329.37509640 Ry
     Harris-Foulkes estimate   =    -329.37509632 Ry
     estimated scf accuracy    <       0.00001326 Ry

     iteration # 23     ecut=    30.00 Ry     beta=0.70
     Davidson diagonalization with overlap
     ethr =  2.18E-08,  avg # of iterations =  1.0

     total cpu time spent up to now is       21.1 secs

     total energy              =    -329.37509780 Ry
     Harris-Foulkes estimate   =    -329.37509643 Ry
     estimated scf accuracy    <       0.00001330 Ry

     iteration # 24     ecut=    30.00 Ry     beta=0.70
     Davidson diagonalization with overlap
     ethr =  2.18E-08,  avg # of iterations =  1.0

     total cpu time spent up to now is       21.3 secs

     total energy              =    -329.37510466 Ry
     Harris-Foulkes estimate   =    -329.37509771 Ry
     estimated scf accuracy    <       0.00001204 Ry

     iteration # 25     ecut=    30.00 Ry     beta=0.70
     Davidson diagonalization with overlap
     ethr =  2.18E-08,  avg # of iterations =  2.0

     total cpu time spent up to now is       21.6 secs

     total energy              =    -329.37511841 Ry
     Harris-Foulkes estimate   =    -329.37510336 Ry
     estimated scf accuracy    <       0.00001022 Ry

     iteration # 26     ecut=    30.00 Ry     beta=0.70
     Davidson diagonalization with overlap
     ethr =  1.86E-08,  avg # of iterations =  3.0

     total cpu time spent up to now is       21.9 secs

     total energy              =    -329.37512343 Ry
     Harris-Foulkes estimate   =    -329.37511502 Ry
     estimated scf accuracy    <       0.00001388 Ry

     iteration # 27     ecut=    30.00 Ry     beta=0.70
     Davidson diagonalization with overlap
     ethr =  1.86E-08,  avg # of iterations =  2.0

     total cpu time spent up to now is       22.2 secs

     total energy              =    -329.37511077 Ry
     Harris-Foulkes estimate   =    -329.37512303 Ry
     estimated scf accuracy    <       0.00002143 Ry

     iteration # 28     ecut=    30.00 Ry     beta=0.70
     Davidson diagonalization with overlap
     ethr =  1.86E-08,  avg # of iterations =  4.0

     total cpu time spent up to now is       22.6 secs

     total energy              =    -329.37506204 Ry
     Harris-Foulkes estimate   =    -329.37508335 Ry
     estimated scf accuracy    <       0.00002874 Ry

     iteration # 29     ecut=    30.00 Ry     beta=0.70
     Davidson diagonalization with overlap
     ethr =  1.86E-08,  avg # of iterations =  4.0

     total cpu time spent up to now is       22.9 secs

     total energy              =    -329.37549844 Ry
     Harris-Foulkes estimate   =    -329.37496069 Ry
     estimated scf accuracy    <       0.00048235 Ry

     iteration # 30     ecut=    30.00 Ry     beta=0.70
     Davidson diagonalization with overlap
     ethr =  1.86E-08,  avg # of iterations =  4.0

     total cpu time spent up to now is       23.3 secs

     total energy              =    -329.37512111 Ry
     Harris-Foulkes estimate   =    -329.37511669 Ry
     estimated scf accuracy    <       0.00001518 Ry

     iteration # 31     ecut=    30.00 Ry     beta=0.70
     Davidson diagonalization with overlap
     ethr =  1.86E-08,  avg # of iterations =  2.0

     total cpu time spent up to now is       23.6 secs

     total energy              =    -329.37513862 Ry
     Harris-Foulkes estimate   =    -329.37512100 Ry
     estimated scf accuracy    <       0.00001905 Ry

     iteration # 32     ecut=    30.00 Ry     beta=0.70
     Davidson diagonalization with overlap
     ethr =  1.86E-08,  avg # of iterations =  3.0

     total cpu time spent up to now is       23.9 secs

     total energy              =    -329.37516160 Ry
     Harris-Foulkes estimate   =    -329.37513853 Ry
     estimated scf accuracy    <       0.00004274 Ry

     iteration # 33     ecut=    30.00 Ry     beta=0.70
     Davidson diagonalization with overlap
     ethr =  1.86E-08,  avg # of iterations =  3.0

     total cpu time spent up to now is       24.2 secs

     total energy              =    -329.37516191 Ry
     Harris-Foulkes estimate   =    -329.37516278 Ry
     estimated scf accuracy    <       0.00008956 Ry

     iteration # 34     ecut=    30.00 Ry     beta=0.70
     Davidson diagonalization with overlap
     ethr =  1.86E-08,  avg # of iterations =  1.0

     total cpu time spent up to now is       24.4 secs

     total energy              =    -329.37513153 Ry
     Harris-Foulkes estimate   =    -329.37516192 Ry
     estimated scf accuracy    <       0.00008810 Ry

     iteration # 35     ecut=    30.00 Ry     beta=0.70
     Davidson diagonalization with overlap
     ethr =  1.86E-08,  avg # of iterations =  3.0

     total cpu time spent up to now is       24.8 secs

     total energy              =    -329.37513319 Ry
     Harris-Foulkes estimate   =    -329.37513366 Ry
     estimated scf accuracy    <       0.00003566 Ry

     iteration # 36     ecut=    30.00 Ry     beta=0.70
     Davidson diagonalization with overlap
     ethr =  1.86E-08,  avg # of iterations =  1.0

     total cpu time spent up to now is       25.0 secs

     total energy              =    -329.37512437 Ry
     Harris-Foulkes estimate   =    -329.37513321 Ry
     estimated scf accuracy    <       0.00003505 Ry

     iteration # 37     ecut=    30.00 Ry     beta=0.70
     Davidson diagonalization with overlap
     ethr =  1.86E-08,  avg # of iterations =  2.0

     total cpu time spent up to now is       25.3 secs

     total energy              =    -329.37511361 Ry
     Harris-Foulkes estimate   =    -329.37512445 Ry
     estimated scf accuracy    <       0.00002341 Ry

     iteration # 38     ecut=    30.00 Ry     beta=0.70
     Davidson diagonalization with overlap
     ethr =  1.86E-08,  avg # of iterations =  3.0

     total cpu time spent up to now is       25.6 secs

     total energy              =    -329.37510397 Ry
     Harris-Foulkes estimate   =    -329.37511303 Ry
     estimated scf accuracy    <       0.00001276 Ry

     iteration # 39     ecut=    30.00 Ry     beta=0.70
     Davidson diagonalization with overlap
     ethr =  1.86E-08,  avg # of iterations =  3.0

     total cpu time spent up to now is       25.9 secs

     total energy              =    -329.37510137 Ry
     Harris-Foulkes estimate   =    -329.37510034 Ry
     estimated scf accuracy    <       0.00001085 Ry

     iteration # 40     ecut=    30.00 Ry     beta=0.70
     Davidson diagonalization with overlap
     ethr =  1.86E-08,  avg # of iterations =  1.0

     total cpu time spent up to now is       26.1 secs

     total energy              =    -329.37510856 Ry
     Harris-Foulkes estimate   =    -329.37510135 Ry
     estimated scf accuracy    <       0.00001033 Ry

     iteration # 41     ecut=    30.00 Ry     beta=0.70
     Davidson diagonalization with overlap
     ethr =  1.86E-08,  avg # of iterations =  2.0

     total cpu time spent up to now is       26.4 secs

     total energy              =    -329.37510700 Ry
     Harris-Foulkes estimate   =    -329.37510739 Ry
     estimated scf accuracy    <       0.00001028 Ry

     iteration # 42     ecut=    30.00 Ry     beta=0.70
     Davidson diagonalization with overlap
     ethr =  1.86E-08,  avg # of iterations =  1.0

     total cpu time spent up to now is       26.6 secs

     total energy              =    -329.37510338 Ry
     Harris-Foulkes estimate   =    -329.37510701 Ry
     estimated scf accuracy    <       0.00001030 Ry

     iteration # 43     ecut=    30.00 Ry     beta=0.70
     Davidson diagonalization with overlap
     ethr =  1.86E-08,  avg # of iterations =  2.0

     total cpu time spent up to now is       26.9 secs

     total energy              =    -329.37511994 Ry
     Harris-Foulkes estimate   =    -329.37510288 Ry
     estimated scf accuracy    <       0.00001049 Ry

     iteration # 44     ecut=    30.00 Ry     beta=0.70
     Davidson diagonalization with overlap
     ethr =  1.86E-08,  avg # of iterations =  3.0

     total cpu time spent up to now is       27.2 secs

     total energy              =    -329.37512173 Ry
     Harris-Foulkes estimate   =    -329.37511578 Ry
     estimated scf accuracy    <       0.00001434 Ry

     iteration # 45     ecut=    30.00 Ry     beta=0.70
     Davidson diagonalization with overlap
     ethr =  1.86E-08,  avg # of iterations =  2.0

     total cpu time spent up to now is       27.5 secs

     total energy              =    -329.37510858 Ry
     Harris-Foulkes estimate   =    -329.37512152 Ry
     estimated scf accuracy    <       0.00001966 Ry

     iteration # 46     ecut=    30.00 Ry     beta=0.70
     Davidson diagonalization with overlap
     ethr =  1.86E-08,  avg # of iterations =  3.0

     total cpu time spent up to now is       27.8 secs

     total energy              =    -329.37510522 Ry
     Harris-Foulkes estimate   =    -329.37510580 Ry
     estimated scf accuracy    <       0.00001037 Ry

     iteration # 47     ecut=    30.00 Ry     beta=0.70
     Davidson diagonalization with overlap
     ethr =  1.86E-08,  avg # of iterations =  1.0

     total cpu time spent up to now is       28.0 secs

     total energy              =    -329.37510145 Ry
     Harris-Foulkes estimate   =    -329.37510525 Ry
     estimated scf accuracy    <       0.00001036 Ry

     iteration # 48     ecut=    30.00 Ry     beta=0.70
     Davidson diagonalization with overlap
     ethr =  1.86E-08,  avg # of iterations =  2.0

     total cpu time spent up to now is       28.3 secs

     total energy              =    -329.37509629 Ry
     Harris-Foulkes estimate   =    -329.37510068 Ry
     estimated scf accuracy    <       0.00001137 Ry

     iteration # 49     ecut=    30.00 Ry     beta=0.70
     Davidson diagonalization with overlap
     ethr =  1.86E-08,  avg # of iterations =  2.0

     total cpu time spent up to now is       28.6 secs

     total energy              =    -329.37508390 Ry
     Harris-Foulkes estimate   =    -329.37509528 Ry
     estimated scf accuracy    <       0.00001437 Ry

     iteration # 50     ecut=    30.00 Ry     beta=0.70
     Davidson diagonalization with overlap
     ethr =  1.86E-08,  avg # of iterations =  3.0

     total cpu time spent up to now is       28.8 secs

     total energy              =    -329.37519209 Ry
     Harris-Foulkes estimate   =    -329.37506575 Ry
     estimated scf accuracy    <       0.00006362 Ry

     iteration # 51     ecut=    30.00 Ry     beta=0.70
     Davidson diagonalization with overlap
     ethr =  1.86E-08,  avg # of iterations =  4.0

     total cpu time spent up to now is       29.3 secs

     total energy              =    -329.37513149 Ry
     Harris-Foulkes estimate   =    -329.37511395 Ry
     estimated scf accuracy    <       0.00001332 Ry

     iteration # 52     ecut=    30.00 Ry     beta=0.70
     Davidson diagonalization with overlap
     ethr =  1.86E-08,  avg # of iterations =  3.0

     total cpu time spent up to now is       29.6 secs

     total energy              =    -329.37518544 Ry
     Harris-Foulkes estimate   =    -329.37513017 Ry
     estimated scf accuracy    <       0.00003016 Ry

     iteration # 53     ecut=    30.00 Ry     beta=0.70
     Davidson diagonalization with overlap
     ethr =  1.86E-08,  avg # of iterations =  4.0

     total cpu time spent up to now is       29.9 secs

     total energy              =    -329.37518016 Ry
     Harris-Foulkes estimate   =    -329.37519144 Ry
     estimated scf accuracy    <       0.00015759 Ry

     iteration # 54     ecut=    30.00 Ry     beta=0.70
     Davidson diagonalization with overlap
     ethr =  1.86E-08,  avg # of iterations =  2.0

     total cpu time spent up to now is       30.2 secs

     total energy              =    -329.37516915 Ry
     Harris-Foulkes estimate   =    -329.37518038 Ry
     estimated scf accuracy    <       0.00013196 Ry

     iteration # 55     ecut=    30.00 Ry     beta=0.70
     Davidson diagonalization with overlap
     ethr =  1.86E-08,  avg # of iterations =  2.0

     total cpu time spent up to now is       30.4 secs

     total energy              =    -329.37517774 Ry
     Harris-Foulkes estimate   =    -329.37516948 Ry
     estimated scf accuracy    <       0.00010575 Ry

     iteration # 56     ecut=    30.00 Ry     beta=0.70
     Davidson diagonalization with overlap
     ethr =  1.86E-08,  avg # of iterations =  1.0

     total cpu time spent up to now is       30.7 secs

     total energy              =    -329.37517803 Ry
     Harris-Foulkes estimate   =    -329.37517786 Ry
     estimated scf accuracy    <       0.00012298 Ry

     iteration # 57     ecut=    30.00 Ry     beta=0.70
     Davidson diagonalization with overlap
     ethr =  1.86E-08,  avg # of iterations =  1.0

     total cpu time spent up to now is       31.0 secs

     total energy              =    -329.37515977 Ry
     Harris-Foulkes estimate   =    -329.37517805 Ry
     estimated scf accuracy    <       0.00012369 Ry

     iteration # 58     ecut=    30.00 Ry     beta=0.70
     Davidson diagonalization with overlap
     ethr =  1.86E-08,  avg # of iterations =  2.0

     total cpu time spent up to now is       31.2 secs

     total energy              =    -329.37512505 Ry
     Harris-Foulkes estimate   =    -329.37516036 Ry
     estimated scf accuracy    <       0.00008582 Ry

     iteration # 59     ecut=    30.00 Ry     beta=0.70
     Davidson diagonalization with overlap
     ethr =  1.86E-08,  avg # of iterations =  3.0

     total cpu time spent up to now is       31.5 secs

     total energy              =    -329.37511161 Ry
     Harris-Foulkes estimate   =    -329.37512790 Ry
     estimated scf accuracy    <       0.00002801 Ry

     iteration # 60     ecut=    30.00 Ry     beta=0.70
     Davidson diagonalization with overlap
     ethr =  1.86E-08,  avg # of iterations =  3.0

     total cpu time spent up to now is       31.9 secs

     total energy              =    -329.37511004 Ry
     Harris-Foulkes estimate   =    -329.37511051 Ry
     estimated scf accuracy    <       0.00001171 Ry

     iteration # 61     ecut=    30.00 Ry     beta=0.70
     Davidson diagonalization with overlap
     ethr =  1.86E-08,  avg # of iterations =  1.0

     total cpu time spent up to now is       32.1 secs

     total energy              =    -329.37511050 Ry
     Harris-Foulkes estimate   =    -329.37511005 Ry
     estimated scf accuracy    <       0.00001167 Ry

     iteration # 62     ecut=    30.00 Ry     beta=0.70
     Davidson diagonalization with overlap
     ethr =  1.86E-08,  avg # of iterations =  1.0

     total cpu time spent up to now is       32.4 secs

     total energy              =    -329.37510218 Ry
     Harris-Foulkes estimate   =    -329.37511050 Ry
     estimated scf accuracy    <       0.00001153 Ry

     iteration # 63     ecut=    30.00 Ry     beta=0.70
     Davidson diagonalization with overlap
     ethr =  1.86E-08,  avg # of iterations =  3.0

     total cpu time spent up to now is       32.7 secs

     total energy              =    -329.37508938 Ry
     Harris-Foulkes estimate   =    -329.37509539 Ry
     estimated scf accuracy    <       0.00001364 Ry

     iteration # 64     ecut=    30.00 Ry     beta=0.70
     Davidson diagonalization with overlap
     ethr =  1.86E-08,  avg # of iterations =  2.0

     total cpu time spent up to now is       33.0 secs

     total energy              =    -329.37507884 Ry
     Harris-Foulkes estimate   =    -329.37508742 Ry
     estimated scf accuracy    <       0.00002187 Ry

     iteration # 65     ecut=    30.00 Ry     beta=0.70
     Davidson diagonalization with overlap
     ethr =  1.86E-08,  avg # of iterations =  4.0

     total cpu time spent up to now is       33.4 secs

     total energy              =    -329.37490841 Ry
     Harris-Foulkes estimate   =    -329.37492934 Ry
     estimated scf accuracy    <       0.00065509 Ry

     iteration # 66     ecut=    30.00 Ry     beta=0.70
     Davidson diagonalization with overlap
     ethr =  1.86E-08,  avg # of iterations =  2.0

     total cpu time spent up to now is       33.6 secs

     total energy              =    -329.37498188 Ry
     Harris-Foulkes estimate   =    -329.37490719 Ry
     estimated scf accuracy    <       0.00078737 Ry

     iteration # 67     ecut=    30.00 Ry     beta=0.70
     Davidson diagonalization with overlap
     ethr =  1.86E-08,  avg # of iterations =  3.0

     total cpu time spent up to now is       33.9 secs

     total energy              =    -329.37535779 Ry
     Harris-Foulkes estimate   =    -329.37497019 Ry
     estimated scf accuracy    <       0.00043593 Ry

     iteration # 68     ecut=    30.00 Ry     beta=0.70
     Davidson diagonalization with overlap
     ethr =  1.86E-08,  avg # of iterations =  4.0

     total cpu time spent up to now is       34.3 secs

     total energy              =    -329.37511267 Ry
     Harris-Foulkes estimate   =    -329.37510426 Ry
     estimated scf accuracy    <       0.00001014 Ry

     iteration # 69     ecut=    30.00 Ry     beta=0.70
     Davidson diagonalization with overlap
     ethr =  1.84E-08,  avg # of iterations =  2.0

     total cpu time spent up to now is       34.6 secs

     total energy              =    -329.37511640 Ry
     Harris-Foulkes estimate   =    -329.37511133 Ry
     estimated scf accuracy    <       0.00001153 Ry

     iteration # 70     ecut=    30.00 Ry     beta=0.70
     Davidson diagonalization with overlap
     ethr =  1.84E-08,  avg # of iterations =  2.0

     total cpu time spent up to now is       34.8 secs

     total energy              =    -329.37512190 Ry
     Harris-Foulkes estimate   =    -329.37511615 Ry
     estimated scf accuracy    <       0.00001474 Ry

     iteration # 71     ecut=    30.00 Ry     beta=0.70
     Davidson diagonalization with overlap
     ethr =  1.84E-08,  avg # of iterations =  2.0

     total cpu time spent up to now is       35.1 secs

     total energy              =    -329.37513470 Ry
     Harris-Foulkes estimate   =    -329.37512173 Ry
     estimated scf accuracy    <       0.00001986 Ry

     iteration # 72     ecut=    30.00 Ry     beta=0.70
     Davidson diagonalization with overlap
     ethr =  1.84E-08,  avg # of iterations =  3.0

     total cpu time spent up to now is       35.4 secs

     total energy              =    -329.37516197 Ry
     Harris-Foulkes estimate   =    -329.37513464 Ry
     estimated scf accuracy    <       0.00003692 Ry

     iteration # 73     ecut=    30.00 Ry     beta=0.70
     Davidson diagonalization with overlap
     ethr =  1.84E-08,  avg # of iterations =  3.0

     total cpu time spent up to now is       35.7 secs

     total energy              =    -329.37518352 Ry
     Harris-Foulkes estimate   =    -329.37516347 Ry
     estimated scf accuracy    <       0.00009130 Ry

     iteration # 74     ecut=    30.00 Ry     beta=0.70
     Davidson diagonalization with overlap
     ethr =  1.84E-08,  avg # of iterations =  2.0

     total cpu time spent up to now is       36.0 secs

     total energy              =    -329.37518777 Ry
     Harris-Foulkes estimate   =    -329.37518440 Ry
     estimated scf accuracy    <       0.00013935 Ry

     iteration # 75     ecut=    30.00 Ry     beta=0.70
     Davidson diagonalization with overlap
     ethr =  1.84E-08,  avg # of iterations =  1.0

     total cpu time spent up to now is       36.2 secs

     total energy              =    -329.37516689 Ry
     Harris-Foulkes estimate   =    -329.37518780 Ry
     estimated scf accuracy    <       0.00014713 Ry

     iteration # 76     ecut=    30.00 Ry     beta=0.70
     Davidson diagonalization with overlap
     ethr =  1.84E-08,  avg # of iterations =  2.0

     total cpu time spent up to now is       36.5 secs

     total energy              =    -329.37509552 Ry
     Harris-Foulkes estimate   =    -329.37516767 Ry
     estimated scf accuracy    <       0.00010104 Ry

     iteration # 77     ecut=    30.00 Ry     beta=0.70
     Davidson diagonalization with overlap
     ethr =  1.84E-08,  avg # of iterations =  4.0

     total cpu time spent up to now is       36.9 secs

     total energy              =    -329.37509927 Ry
     Harris-Foulkes estimate   =    -329.37510336 Ry
     estimated scf accuracy    <       0.00001062 Ry

     iteration # 78     ecut=    30.00 Ry     beta=0.70
     Davidson diagonalization with overlap
     ethr =  1.84E-08,  avg # of iterations =  2.0

     total cpu time spent up to now is       37.1 secs

     total energy              =    -329.37509491 Ry
     Harris-Foulkes estimate   =    -329.37509842 Ry
     estimated scf accuracy    <       0.00001198 Ry

     iteration # 79     ecut=    30.00 Ry     beta=0.70
     Davidson diagonalization with overlap
     ethr =  1.84E-08,  avg # of iterations =  2.0

     total cpu time spent up to now is       37.4 secs

     total energy              =    -329.37509028 Ry
     Harris-Foulkes estimate   =    -329.37509431 Ry
     estimated scf accuracy    <       0.00001474 Ry

     iteration # 80     ecut=    30.00 Ry     beta=0.70
     Davidson diagonalization with overlap
     ethr =  1.84E-08,  avg # of iterations =  2.0

     total cpu time spent up to now is       37.7 secs

     total energy              =    -329.37508455 Ry
     Harris-Foulkes estimate   =    -329.37508961 Ry
     estimated scf accuracy    <       0.00001927 Ry

     iteration # 81     ecut=    30.00 Ry     beta=0.70
     Davidson diagonalization with overlap
     ethr =  1.84E-08,  avg # of iterations =  2.0

     total cpu time spent up to now is       37.9 secs

     total energy              =    -329.37507703 Ry
     Harris-Foulkes estimate   =    -329.37508358 Ry
     estimated scf accuracy    <       0.00002735 Ry

     iteration # 82     ecut=    30.00 Ry     beta=0.70
     Davidson diagonalization with overlap
     ethr =  1.84E-08,  avg # of iterations =  2.0

     total cpu time spent up to now is       38.2 secs

     total energy              =    -329.37510919 Ry
     Harris-Foulkes estimate   =    -329.37507578 Ry
     estimated scf accuracy    <       0.00004073 Ry

     iteration # 83     ecut=    30.00 Ry     beta=0.70
     Davidson diagonalization with overlap
     ethr =  1.84E-08,  avg # of iterations =  3.0

     total cpu time spent up to now is       38.5 secs

     total energy              =    -329.37512121 Ry
     Harris-Foulkes estimate   =    -329.37509640 Ry
     estimated scf accuracy    <       0.00001284 Ry

     iteration # 84     ecut=    30.00 Ry     beta=0.70
     Davidson diagonalization with overlap
     ethr =  1.84E-08,  avg # of iterations =  3.0

     total cpu time spent up to now is       38.8 secs

     total energy              =    -329.37512198 Ry
     Harris-Foulkes estimate   =    -329.37511234 Ry
     estimated scf accuracy    <       0.00001237 Ry

     iteration # 85     ecut=    30.00 Ry     beta=0.70
     Davidson diagonalization with overlap
     ethr =  1.84E-08,  avg # of iterations =  3.0

     total cpu time spent up to now is       39.1 secs

     total energy              =    -329.37513814 Ry
     Harris-Foulkes estimate   =    -329.37512124 Ry
     estimated scf accuracy    <       0.00001933 Ry

     iteration # 86     ecut=    30.00 Ry     beta=0.70
     Davidson diagonalization with overlap
     ethr =  1.84E-08,  avg # of iterations =  3.0

     total cpu time spent up to now is       39.4 secs

     total energy              =    -329.37511933 Ry
     Harris-Foulkes estimate   =    -329.37513801 Ry
     estimated scf accuracy    <       0.00004231 Ry

     iteration # 87     ecut=    30.00 Ry     beta=0.70
     Davidson diagonalization with overlap
     ethr =  1.84E-08,  avg # of iterations =  3.0

     total cpu time spent up to now is       39.7 secs

     total energy              =    -329.37511094 Ry
     Harris-Foulkes estimate   =    -329.37511959 Ry
     estimated scf accuracy    <       0.00001818 Ry

     iteration # 88     ecut=    30.00 Ry     beta=0.70
     Davidson diagonalization with overlap
     ethr =  1.84E-08,  avg # of iterations =  3.0

     total cpu time spent up to now is       40.0 secs

     total energy              =    -329.37510186 Ry
     Harris-Foulkes estimate   =    -329.37511014 Ry
     estimated scf accuracy    <       0.00001129 Ry

     iteration # 89     ecut=    30.00 Ry     beta=0.70
     Davidson diagonalization with overlap
     ethr =  1.84E-08,  avg # of iterations =  3.0

     total cpu time spent up to now is       40.3 secs

     total energy              =    -329.37509489 Ry
     Harris-Foulkes estimate   =    -329.37509722 Ry
     estimated scf accuracy    <       0.00001236 Ry

     iteration # 90     ecut=    30.00 Ry     beta=0.70
     Davidson diagonalization with overlap
     ethr =  1.84E-08,  avg # of iterations =  1.0

     total cpu time spent up to now is       40.5 secs

     total energy              =    -329.37509228 Ry
     Harris-Foulkes estimate   =    -329.37509462 Ry
     estimated scf accuracy    <       0.00001472 Ry

     iteration # 91     ecut=    30.00 Ry     beta=0.70
     Davidson diagonalization with overlap
     ethr =  1.84E-08,  avg # of iterations =  1.0

     total cpu time spent up to now is       40.8 secs

     total energy              =    -329.37508644 Ry
     Harris-Foulkes estimate   =    -329.37509209 Ry
     estimated scf accuracy    <       0.00001716 Ry

     iteration # 92     ecut=    30.00 Ry     beta=0.70
     Davidson diagonalization with overlap
     ethr =  1.84E-08,  avg # of iterations =  3.0

     total cpu time spent up to now is       41.1 secs

     total energy              =    -329.37508734 Ry
     Harris-Foulkes estimate   =    -329.37508525 Ry
     estimated scf accuracy    <       0.00002480 Ry

     iteration # 93     ecut=    30.00 Ry     beta=0.70
     Davidson diagonalization with overlap
     ethr =  1.84E-08,  avg # of iterations =  1.0

     total cpu time spent up to now is       41.3 secs

     total energy              =    -329.37509017 Ry
     Harris-Foulkes estimate   =    -329.37508724 Ry
     estimated scf accuracy    <       0.00002157 Ry

     iteration # 94     ecut=    30.00 Ry     beta=0.70
     Davidson diagonalization with overlap
     ethr =  1.84E-08,  avg # of iterations =  1.0

     total cpu time spent up to now is       41.5 secs

     total energy              =    -329.37509569 Ry
     Harris-Foulkes estimate   =    -329.37508996 Ry
     estimated scf accuracy    <       0.00001834 Ry

     iteration # 95     ecut=    30.00 Ry     beta=0.70
     Davidson diagonalization with overlap
     ethr =  1.84E-08,  avg # of iterations =  2.0

     total cpu time spent up to now is       41.8 secs

     total energy              =    -329.37516799 Ry
     Harris-Foulkes estimate   =    -329.37509489 Ry
     estimated scf accuracy    <       0.00001376 Ry

     iteration # 96     ecut=    30.00 Ry     beta=0.70
     Davidson diagonalization with overlap
     ethr =  1.84E-08,  avg # of iterations =  4.0

     total cpu time spent up to now is       42.2 secs

     total energy              =    -329.37517563 Ry
     Harris-Foulkes estimate   =    -329.37513617 Ry
     estimated scf accuracy    <       0.00003972 Ry

     iteration # 97     ecut=    30.00 Ry     beta=0.70
     Davidson diagonalization with overlap
     ethr =  1.84E-08,  avg # of iterations =  3.0

     total cpu time spent up to now is       42.6 secs

     total energy              =    -329.37511348 Ry
     Harris-Foulkes estimate   =    -329.37517892 Ry
     estimated scf accuracy    <       0.00012646 Ry

     iteration # 98     ecut=    30.00 Ry     beta=0.70
     Davidson diagonalization with overlap
     ethr =  1.84E-08,  avg # of iterations =  4.0

     total cpu time spent up to now is       42.9 secs

     total energy              =    -329.37512369 Ry
     Harris-Foulkes estimate   =    -329.37512260 Ry
     estimated scf accuracy    <       0.00002116 Ry

     iteration # 99     ecut=    30.00 Ry     beta=0.70
     Davidson diagonalization with overlap
     ethr =  1.84E-08,  avg # of iterations =  4.0

     total cpu time spent up to now is       43.3 secs

     total energy              =    -329.37509556 Ry
     Harris-Foulkes estimate   =    -329.37505375 Ry
     estimated scf accuracy    <       0.00009487 Ry

     iteration #100     ecut=    30.00 Ry     beta=0.70
     Davidson diagonalization with overlap
     ethr =  1.84E-08,  avg # of iterations =  3.0

     total cpu time spent up to now is       43.6 secs

     total energy              =    -329.37510022 Ry
     Harris-Foulkes estimate   =    -329.37508198 Ry
     estimated scf accuracy    <       0.00002943 Ry

     End of self-consistent calculation

     convergence NOT achieved after 100 iterations: stopping

     Writing output data file pwscf.save
 
     init_run     :      0.24s CPU      0.28s WALL (       1 calls)
     electrons    :     39.33s CPU     41.92s WALL (       5 calls)
     update_pot   :      0.48s CPU      0.65s WALL (       4 calls)
     forces       :      0.21s CPU      0.21s WALL (       4 calls)

     Called by init_run:
     wfcinit      :      0.11s CPU      0.13s WALL (       1 calls)
     potinit      :      0.03s CPU      0.03s WALL (       1 calls)

     Called by electrons:
     c_bands      :     28.11s CPU     28.62s WALL (     143 calls)
     sum_band     :      3.82s CPU      3.89s WALL (     143 calls)
     v_of_rho     :      3.64s CPU      3.70s WALL (     147 calls)
     mix_rho      :      2.79s CPU      4.32s WALL (     143 calls)

     Called by c_bands:
     init_us_2    :      0.45s CPU      0.47s WALL (     287 calls)
     cegterg      :     25.33s CPU     25.77s WALL (     143 calls)

     Called by sum_band:

     Called by *egterg:
     h_psi        :     18.93s CPU     19.19s WALL (     477 calls)
     g_psi        :      0.14s CPU      0.14s WALL (     333 calls)
     cdiaghg      :      1.95s CPU      1.98s WALL (     471 calls)

     Called by h_psi:
     h_psi:pot    :     18.70s CPU     18.96s WALL (     477 calls)
     h_psi:calbec :      1.57s CPU      1.60s WALL (     477 calls)
     vloc_psi     :     16.18s CPU     16.40s WALL (     477 calls)
     add_vuspsi   :      0.95s CPU      0.96s WALL (     477 calls)

     General routines
     calbec       :      1.65s CPU      1.68s WALL (     493 calls)
     fft          :      2.14s CPU      2.18s WALL (    1627 calls)
     fftw         :     17.38s CPU     17.74s WALL (   29414 calls)
     davcio       :      0.26s CPU      1.32s WALL (    2398 calls)
 
     Parallel routines
     fft_scatter  :      7.63s CPU      7.64s WALL (   31041 calls)
 
     PWSCF        :    40.53s CPU        43.77s WALL

 
   This run was terminated on:   1:30: 5  29Jul2017            

=------------------------------------------------------------------------------=
   JOB DONE.
=------------------------------------------------------------------------------=
