
     Program PWSCF v.6.0 (svn rev. 13079) starts on 29Jul2017 at  1:33:38 

     This program is part of the open-source Quantum ESPRESSO suite
     for quantum simulation of materials; please cite
         "P. Giannozzi et al., J. Phys.:Condens. Matter 21 395502 (2009);
          URL http://www.quantum-espresso.org", 
     in publications or presentations arising from this work. More details at
     http://www.quantum-espresso.org/quote

     Parallel version (MPI), running on    10 processors
     R & G space division:  proc/nbgrp/npool/nimage =      10
     Reading input from input/dftmin-Gold5-multi-24.in

     Current dimensions of program PWSCF are:
     Max number of different atomic species (ntypx) = 10
     Max number of k-points (npk) =  40000
     Max angular momentum in pseudopotentials (lmaxx) =  3
     Message from routine iosys:
     pot_extrapolation='second-order' not available, using 'atomic'
     Message from routine iosys:
     wfc_extrapolation='second-order' not available, using 'atomic'

     Subspace diagonalization in iterative solution of the eigenvalue problem:
     a serial algorithm will be used

 
     Parallelization info
     --------------------
     sticks:   dense  smooth     PW     G-vecs:    dense   smooth      PW
     Min         380     380     94                17748    17748    2208
     Max         381     381     95                17753    17753    2213
     Sum        3809    3809    949               177509   177509   22119
 


     bravais-lattice index     =            1
     lattice parameter (alat)  =      20.0000  a.u.
     unit-cell volume          =    8000.0000 (a.u.)^3
     number of atoms/cell      =            5
     number of atomic types    =            1
     number of electrons       =        55.00
     number of Kohn-Sham states=           34
     kinetic-energy cutoff     =      30.0000  Ry
     charge density cutoff     =     120.0000  Ry
     convergence threshold     =      1.0E-08
     mixing beta               =       0.7000
     number of iterations used =            8  plain     mixing
     Exchange-correlation      = BLYP ( 1  3  1  3 0 0)
     nstep                     =           50


     celldm(1)=  20.000000  celldm(2)=   0.000000  celldm(3)=   0.000000
     celldm(4)=   0.000000  celldm(5)=   0.000000  celldm(6)=   0.000000

     crystal axes: (cart. coord. in units of alat)
               a(1) = (   1.000000   0.000000   0.000000 )  
               a(2) = (   0.000000   1.000000   0.000000 )  
               a(3) = (   0.000000   0.000000   1.000000 )  

     reciprocal axes: (cart. coord. in units 2 pi/alat)
               b(1) = (  1.000000  0.000000  0.000000 )  
               b(2) = (  0.000000  1.000000  0.000000 )  
               b(3) = (  0.000000  0.000000  1.000000 )  


     PseudoPot. # 1 for Au read from file:
     ./Au.blyp-d-hgh.UPF
     MD5 check sum: c10d8bae01f806c36a1643a1c69a8479
     Pseudo is Norm-conserving, Zval = 11.0
     Generated in analytical, separable form
     Using radial grid of 1279 points,  6 beta functions with: 
                l(1) =   0
                l(2) =   0
                l(3) =   1
                l(4) =   1
                l(5) =   2
                l(6) =   2

     atomic species   valence    mass     pseudopotential
        Au            11.00    28.08600     Au( 1.00)

     No symmetry found



   Cartesian axes

     site n.     atom                  positions (alat units)
         1           Au  tau(   1) = (  -0.1103402   0.1412046  -0.0229376  )
         2           Au  tau(   2) = (  -0.0046310   0.1220671   0.2124638  )
         3           Au  tau(   3) = (   0.1414178   0.0998236   0.0011500  )
         4           Au  tau(   4) = (   0.2208579   0.2116919   0.2816254  )
         5           Au  tau(   5) = (   0.3518234   0.0536799   0.1219922  )

     number of k points=     1  Marzari-Vanderbilt smearing, width (Ry)=  0.0250
                       cart. coord. in units 2pi/alat
        k(    1) = (   0.0000000   0.0000000   0.0000000), wk =   2.0000000

     Dense  grid:   177509 G-vectors     FFT dimensions: (  72,  72,  72)

     Estimated max dynamical RAM per process >      15.04Mb

     Estimated total allocated dynamical RAM >     150.39Mb

     Initial potential from superposition of free atoms
     Check: negative starting charge=   -0.006289

     starting charge   54.99940, renormalised to   55.00000

     negative rho (up, down):  6.289E-03 0.000E+00
     Starting wfc are   45 randomized atomic wfcs

     total cpu time spent up to now is        0.7 secs

     per-process dynamical memory:    41.0 Mb

     Self-consistent Calculation

     iteration #  1     ecut=    30.00 Ry     beta=0.70
     Davidson diagonalization with overlap
     ethr =  1.00E-02,  avg # of iterations =  3.0

     Threshold (ethr) on eigenvalues was too large:
     Diagonalizing with lowered threshold

     Davidson diagonalization with overlap
     ethr =  3.83E-04,  avg # of iterations =  8.0

     negative rho (up, down):  8.506E-04 0.000E+00

     total cpu time spent up to now is        1.5 secs

     total energy              =    -329.36784187 Ry
     Harris-Foulkes estimate   =    -329.52860529 Ry
     estimated scf accuracy    <       0.26977496 Ry

     iteration #  2     ecut=    30.00 Ry     beta=0.70
     Davidson diagonalization with overlap
     ethr =  4.90E-04,  avg # of iterations =  4.0

     negative rho (up, down):  3.615E-04 0.000E+00

     total cpu time spent up to now is        2.0 secs

     total energy              =    -329.40949964 Ry
     Harris-Foulkes estimate   =    -329.53635623 Ry
     estimated scf accuracy    <       0.25339802 Ry

     iteration #  3     ecut=    30.00 Ry     beta=0.70
     Davidson diagonalization with overlap
     ethr =  4.61E-04,  avg # of iterations =  2.0

     negative rho (up, down):  1.513E-04 0.000E+00

     total cpu time spent up to now is        2.4 secs

     total energy              =    -329.45855044 Ry
     Harris-Foulkes estimate   =    -329.48781794 Ry
     estimated scf accuracy    <       0.08101060 Ry

     iteration #  4     ecut=    30.00 Ry     beta=0.70
     Davidson diagonalization with overlap
     ethr =  1.47E-04,  avg # of iterations =  2.0

     negative rho (up, down):  2.169E-05 0.000E+00

     total cpu time spent up to now is        2.8 secs

     total energy              =    -329.47188612 Ry
     Harris-Foulkes estimate   =    -329.47465192 Ry
     estimated scf accuracy    <       0.00725422 Ry

     iteration #  5     ecut=    30.00 Ry     beta=0.70
     Davidson diagonalization with overlap
     ethr =  1.32E-05,  avg # of iterations =  5.0

     total cpu time spent up to now is        3.3 secs

     total energy              =    -329.47349246 Ry
     Harris-Foulkes estimate   =    -329.47431129 Ry
     estimated scf accuracy    <       0.00242392 Ry

     iteration #  6     ecut=    30.00 Ry     beta=0.70
     Davidson diagonalization with overlap
     ethr =  4.41E-06,  avg # of iterations =  2.0

     total cpu time spent up to now is        3.7 secs

     total energy              =    -329.47385705 Ry
     Harris-Foulkes estimate   =    -329.47400104 Ry
     estimated scf accuracy    <       0.00031949 Ry

     iteration #  7     ecut=    30.00 Ry     beta=0.70
     Davidson diagonalization with overlap
     ethr =  5.81E-07,  avg # of iterations =  2.0

     total cpu time spent up to now is        4.1 secs

     total energy              =    -329.47392709 Ry
     Harris-Foulkes estimate   =    -329.47393954 Ry
     estimated scf accuracy    <       0.00002609 Ry

     iteration #  8     ecut=    30.00 Ry     beta=0.70
     Davidson diagonalization with overlap
     ethr =  4.74E-08,  avg # of iterations =  3.0

     total cpu time spent up to now is        4.6 secs

     total energy              =    -329.47393221 Ry
     Harris-Foulkes estimate   =    -329.47393607 Ry
     estimated scf accuracy    <       0.00000756 Ry

     iteration #  9     ecut=    30.00 Ry     beta=0.70
     Davidson diagonalization with overlap
     ethr =  1.37E-08,  avg # of iterations =  2.0

     total cpu time spent up to now is        5.0 secs

     total energy              =    -329.47393335 Ry
     Harris-Foulkes estimate   =    -329.47393419 Ry
     estimated scf accuracy    <       0.00000094 Ry

     iteration # 10     ecut=    30.00 Ry     beta=0.70
     Davidson diagonalization with overlap
     ethr =  1.71E-09,  avg # of iterations =  2.0

     total cpu time spent up to now is        5.4 secs

     total energy              =    -329.47393348 Ry
     Harris-Foulkes estimate   =    -329.47393365 Ry
     estimated scf accuracy    <       0.00000025 Ry

     iteration # 11     ecut=    30.00 Ry     beta=0.70
     Davidson diagonalization with overlap
     ethr =  4.53E-10,  avg # of iterations =  2.0

     total cpu time spent up to now is        5.8 secs

     total energy              =    -329.47393351 Ry
     Harris-Foulkes estimate   =    -329.47393355 Ry
     estimated scf accuracy    <       0.00000004 Ry

     iteration # 12     ecut=    30.00 Ry     beta=0.70
     Davidson diagonalization with overlap
     ethr =  6.37E-11,  avg # of iterations =  2.0

     total cpu time spent up to now is        6.2 secs

     End of self-consistent calculation

          k = 0.0000 0.0000 0.0000 ( 22119 PWs)   bands (ev):

    -8.3119  -7.7154  -7.6002  -7.2742  -7.0372  -6.7181  -6.6955  -6.5151
    -6.2113  -5.9858  -5.9206  -5.7499  -5.6406  -5.5790  -5.5500  -5.4698
    -5.2265  -5.2062  -5.1559  -5.1463  -5.1324  -5.0047  -4.9548  -4.9150
    -4.8773  -4.4633  -4.3865  -3.7184  -2.4597  -2.2707  -0.3603  -0.1781
     0.3728   0.6750

     the Fermi energy is    -3.7005 ev

!    total energy              =    -329.47393346 Ry
     Harris-Foulkes estimate   =    -329.47393352 Ry
     estimated scf accuracy    <          3.4E-09 Ry

     The total energy is the sum of the following terms:

     one-electron contribution =    -610.88608734 Ry
     hartree contribution      =     326.96431412 Ry
     xc contribution           =     -51.41793306 Ry
     ewald contribution        =       5.86662364 Ry
     smearing contrib. (-TS)   =      -0.00085082 Ry

     convergence has been achieved in  12 iterations

     Forces acting on atoms (Ry/au):

     atom    1 type  1   force =     0.00241424   -0.00475438   -0.00017767
     atom    2 type  1   force =    -0.01473274    0.00765245   -0.00035751
     atom    3 type  1   force =    -0.01429798    0.00197076   -0.01014253
     atom    4 type  1   force =     0.01191840   -0.00871159   -0.00018758
     atom    5 type  1   force =     0.01469808    0.00384276    0.01086529

     Total force =     0.034383     Total SCF correction =     0.000194

     BFGS Geometry Optimization

     number of scf cycles    =   1
     number of bfgs steps    =   0

     energy   new            =    -329.4739334630 Ry

     new trust radius        =       0.0186776568 bohr
     new conv_thr            =       0.0000000100 Ry


ATOMIC_POSITIONS (bohr)
Au      -2.204389757   2.819337620  -0.458928673
Au      -0.107353740   2.448994446   4.248918487
Au       2.814057019   1.998442762   0.012857472
Au       4.429077402   4.225126411   5.632321420
Au       7.051166076   1.077441761   2.450708294



     Writing output data file pwscf.save
     Check: negative starting charge=   -0.006289
     NEW-OLD atomic charge density approx. for the potential
     Check: negative starting charge=   -0.006293

     negative rho (up, down):  7.855E-05 0.000E+00

     total cpu time spent up to now is        6.7 secs

     per-process dynamical memory:    42.9 Mb

     Self-consistent Calculation

     iteration #  1     ecut=    30.00 Ry     beta=0.70
     Davidson diagonalization with overlap
     ethr =  1.00E-06,  avg # of iterations =  4.0

     negative rho (up, down):  6.324E-07 0.000E+00

     total cpu time spent up to now is        7.4 secs

     total energy              =    -329.47491850 Ry
     Harris-Foulkes estimate   =    -329.47493194 Ry
     estimated scf accuracy    <       0.00008800 Ry

     iteration #  2     ecut=    30.00 Ry     beta=0.70
     Davidson diagonalization with overlap
     ethr =  1.60E-07,  avg # of iterations =  3.0

     negative rho (up, down):  9.559E-08 0.000E+00

     total cpu time spent up to now is        7.9 secs

     total energy              =    -329.47491488 Ry
     Harris-Foulkes estimate   =    -329.47499314 Ry
     estimated scf accuracy    <       0.00018848 Ry

     iteration #  3     ecut=    30.00 Ry     beta=0.70
     Davidson diagonalization with overlap
     ethr =  1.60E-07,  avg # of iterations =  2.0

     total cpu time spent up to now is        8.3 secs

     total energy              =    -329.47495551 Ry
     Harris-Foulkes estimate   =    -329.47495814 Ry
     estimated scf accuracy    <       0.00001287 Ry

     iteration #  4     ecut=    30.00 Ry     beta=0.70
     Davidson diagonalization with overlap
     ethr =  2.34E-08,  avg # of iterations =  2.0

     total cpu time spent up to now is        8.7 secs

     total energy              =    -329.47495798 Ry
     Harris-Foulkes estimate   =    -329.47495936 Ry
     estimated scf accuracy    <       0.00000399 Ry

     iteration #  5     ecut=    30.00 Ry     beta=0.70
     Davidson diagonalization with overlap
     ethr =  7.25E-09,  avg # of iterations =  2.0

     total cpu time spent up to now is        9.1 secs

     total energy              =    -329.47495866 Ry
     Harris-Foulkes estimate   =    -329.47495944 Ry
     estimated scf accuracy    <       0.00000281 Ry

     iteration #  6     ecut=    30.00 Ry     beta=0.70
     Davidson diagonalization with overlap
     ethr =  5.11E-09,  avg # of iterations =  1.0

     total cpu time spent up to now is        9.5 secs

     total energy              =    -329.47495891 Ry
     Harris-Foulkes estimate   =    -329.47495913 Ry
     estimated scf accuracy    <       0.00000008 Ry

     iteration #  7     ecut=    30.00 Ry     beta=0.70
     Davidson diagonalization with overlap
     ethr =  1.37E-10,  avg # of iterations =  3.0

     total cpu time spent up to now is        9.9 secs

     total energy              =    -329.47495897 Ry
     Harris-Foulkes estimate   =    -329.47495894 Ry
     estimated scf accuracy    <       0.00000002 Ry

     iteration #  8     ecut=    30.00 Ry     beta=0.70
     Davidson diagonalization with overlap
     ethr =  2.84E-11,  avg # of iterations =  2.0

     total cpu time spent up to now is       10.3 secs

     End of self-consistent calculation

          k = 0.0000 0.0000 0.0000 ( 22119 PWs)   bands (ev):

    -8.3047  -7.7033  -7.5813  -7.2603  -7.0422  -6.7143  -6.6906  -6.5052
    -6.2042  -5.9916  -5.9244  -5.7490  -5.6496  -5.5853  -5.5639  -5.4688
    -5.2256  -5.2056  -5.1575  -5.1506  -5.1347  -5.0136  -4.9670  -4.9231
    -4.8890  -4.4722  -4.3939  -3.7111  -2.4677  -2.2805  -0.3637  -0.1756
     0.3703   0.6653

     the Fermi energy is    -3.6893 ev

!    total energy              =    -329.47495892 Ry
     Harris-Foulkes estimate   =    -329.47495897 Ry
     estimated scf accuracy    <          2.1E-09 Ry

     The total energy is the sum of the following terms:

     one-electron contribution =    -610.12529491 Ry
     hartree contribution      =     326.57936795 Ry
     xc contribution           =     -51.41288234 Ry
     ewald contribution        =       5.48556044 Ry
     smearing contrib. (-TS)   =      -0.00171006 Ry

     convergence has been achieved in   8 iterations

     Forces acting on atoms (Ry/au):

     atom    1 type  1   force =     0.00047468   -0.00442376   -0.00105343
     atom    2 type  1   force =    -0.01193775    0.00813022    0.00065839
     atom    3 type  1   force =    -0.00760648    0.00092229   -0.00676278
     atom    4 type  1   force =     0.00894674   -0.00901699   -0.00026908
     atom    5 type  1   force =     0.01012281    0.00438824    0.00742690

     Total force =     0.025937     Total SCF correction =     0.000207

     number of scf cycles    =   2
     number of bfgs steps    =   1

     energy   old            =    -329.4739334630 Ry
     energy   new            =    -329.4749589238 Ry

     CASE: energy  _new < energy  _old

     new trust radius        =       0.0205454225 bohr
     new conv_thr            =       0.0000000010 Ry


ATOMIC_POSITIONS (bohr)
Au      -2.203476768   2.813087565  -0.460295512
Au      -0.124462025   2.460342994   4.249713119
Au       2.802530998   1.999870472   0.002936932
Au       4.442010810   4.212511503   5.631954186
Au       7.065953985   1.083530466   2.461568276



     Writing output data file pwscf.save
     Check: negative starting charge=   -0.006293
     NEW-OLD atomic charge density approx. for the potential
     Check: negative starting charge=   -0.006299

     negative rho (up, down):  1.024E-04 0.000E+00

     total cpu time spent up to now is       10.8 secs

     per-process dynamical memory:    50.7 Mb

     Self-consistent Calculation

     iteration #  1     ecut=    30.00 Ry     beta=0.70
     Davidson diagonalization with overlap
     ethr =  1.00E-06,  avg # of iterations =  4.0

     negative rho (up, down):  1.037E-06 0.000E+00

     total cpu time spent up to now is       11.5 secs

     total energy              =    -329.47575516 Ry
     Harris-Foulkes estimate   =    -329.47577071 Ry
     estimated scf accuracy    <       0.00010418 Ry

     iteration #  2     ecut=    30.00 Ry     beta=0.70
     Davidson diagonalization with overlap
     ethr =  1.89E-07,  avg # of iterations =  3.0

     negative rho (up, down):  1.583E-07 0.000E+00

     total cpu time spent up to now is       12.0 secs

     total energy              =    -329.47575159 Ry
     Harris-Foulkes estimate   =    -329.47583608 Ry
     estimated scf accuracy    <       0.00020069 Ry

     iteration #  3     ecut=    30.00 Ry     beta=0.70
     Davidson diagonalization with overlap
     ethr =  1.89E-07,  avg # of iterations =  2.0

     total cpu time spent up to now is       12.4 secs

     total energy              =    -329.47579257 Ry
     Harris-Foulkes estimate   =    -329.47580228 Ry
     estimated scf accuracy    <       0.00002914 Ry

     iteration #  4     ecut=    30.00 Ry     beta=0.70
     Davidson diagonalization with overlap
     ethr =  5.30E-08,  avg # of iterations =  2.0

     total cpu time spent up to now is       12.7 secs

     total energy              =    -329.47579734 Ry
     Harris-Foulkes estimate   =    -329.47580102 Ry
     estimated scf accuracy    <       0.00001099 Ry

     iteration #  5     ecut=    30.00 Ry     beta=0.70
     Davidson diagonalization with overlap
     ethr =  2.00E-08,  avg # of iterations =  2.0

     total cpu time spent up to now is       13.1 secs

     total energy              =    -329.47579972 Ry
     Harris-Foulkes estimate   =    -329.47580052 Ry
     estimated scf accuracy    <       0.00000357 Ry

     iteration #  6     ecut=    30.00 Ry     beta=0.70
     Davidson diagonalization with overlap
     ethr =  6.50E-09,  avg # of iterations =  1.0

     total cpu time spent up to now is       13.5 secs

     total energy              =    -329.47580019 Ry
     Harris-Foulkes estimate   =    -329.47580030 Ry
     estimated scf accuracy    <       0.00000007 Ry

     iteration #  7     ecut=    30.00 Ry     beta=0.70
     Davidson diagonalization with overlap
     ethr =  1.19E-10,  avg # of iterations =  3.0

     total cpu time spent up to now is       13.9 secs

     total energy              =    -329.47580032 Ry
     Harris-Foulkes estimate   =    -329.47580024 Ry
     estimated scf accuracy    <       0.00000003 Ry

     iteration #  8     ecut=    30.00 Ry     beta=0.70
     Davidson diagonalization with overlap
     ethr =  5.07E-11,  avg # of iterations =  2.0

     total cpu time spent up to now is       14.4 secs

     total energy              =    -329.47580031 Ry
     Harris-Foulkes estimate   =    -329.47580033 Ry
     estimated scf accuracy    <          4.0E-09 Ry

     iteration #  9     ecut=    30.00 Ry     beta=0.70
     Davidson diagonalization with overlap
     ethr =  7.19E-12,  avg # of iterations =  2.0

     total cpu time spent up to now is       14.8 secs

     End of self-consistent calculation

          k = 0.0000 0.0000 0.0000 ( 22119 PWs)   bands (ev):

    -8.2958  -7.6901  -7.5626  -7.2461  -7.0511  -6.7121  -6.6860  -6.4930
    -6.1998  -6.0001  -5.9273  -5.7468  -5.6582  -5.5954  -5.5666  -5.4670
    -5.2252  -5.2058  -5.1632  -5.1511  -5.1347  -5.0218  -4.9769  -4.9295
    -4.8997  -4.4799  -4.4017  -3.7047  -2.4759  -2.2886  -0.3676  -0.1743
     0.3686   0.6561

     the Fermi energy is    -3.6797 ev

!    total energy              =    -329.47580032 Ry
     Harris-Foulkes estimate   =    -329.47580032 Ry
     estimated scf accuracy    <          3.0E-10 Ry

     The total energy is the sum of the following terms:

     one-electron contribution =    -609.33684455 Ry
     hartree contribution      =     326.18123267 Ry
     xc contribution           =     -51.40818493 Ry
     ewald contribution        =       5.09042978 Ry
     smearing contrib. (-TS)   =      -0.00243328 Ry

     convergence has been achieved in   9 iterations

     Forces acting on atoms (Ry/au):

     atom    1 type  1   force =    -0.00091509   -0.00404076   -0.00166895
     atom    2 type  1   force =    -0.00933814    0.00843757    0.00120519
     atom    3 type  1   force =    -0.00252514    0.00003703   -0.00378027
     atom    4 type  1   force =     0.00598328   -0.00889461    0.00000162
     atom    5 type  1   force =     0.00679509    0.00446078    0.00424242

     Total force =     0.019986     Total SCF correction =     0.000090

     number of scf cycles    =   3
     number of bfgs steps    =   2

     energy   old            =    -329.4749589238 Ry
     energy   new            =    -329.4758003178 Ry

     CASE: energy  _new < energy  _old

     new trust radius        =       0.0308181338 bohr
     new conv_thr            =       0.0000000008 Ry


ATOMIC_POSITIONS (bohr)
Au      -2.204045478   2.803423737  -0.463451593
Au      -0.148580147   2.479413941   4.251804184
Au       2.791217614   2.000877411  -0.008824434
Au       4.458704704   4.192045424   5.631800979
Au       7.085260306   1.093582487   2.474547864



     Writing output data file pwscf.save
     Check: negative starting charge=   -0.006299
     NEW-OLD atomic charge density approx. for the potential
     Check: negative starting charge=   -0.006304

     negative rho (up, down):  2.329E-04 0.000E+00

     total cpu time spent up to now is       15.2 secs

     per-process dynamical memory:    50.7 Mb

     Self-consistent Calculation

     iteration #  1     ecut=    30.00 Ry     beta=0.70
     Davidson diagonalization with overlap
     ethr =  1.00E-06,  avg # of iterations =  4.0

     negative rho (up, down):  4.888E-06 0.000E+00

     total cpu time spent up to now is       16.0 secs

     total energy              =    -329.47656178 Ry
     Harris-Foulkes estimate   =    -329.47656963 Ry
     estimated scf accuracy    <       0.00020400 Ry

     iteration #  2     ecut=    30.00 Ry     beta=0.70
     Davidson diagonalization with overlap
     ethr =  3.71E-07,  avg # of iterations =  3.0

     negative rho (up, down):  9.348E-07 0.000E+00

     total cpu time spent up to now is       16.4 secs

     total energy              =    -329.47655745 Ry
     Harris-Foulkes estimate   =    -329.47671091 Ry
     estimated scf accuracy    <       0.00035534 Ry

     iteration #  3     ecut=    30.00 Ry     beta=0.70
     Davidson diagonalization with overlap
     ethr =  3.71E-07,  avg # of iterations =  2.0

     negative rho (up, down):  3.394E-08 0.000E+00

     total cpu time spent up to now is       16.8 secs

     total energy              =    -329.47662857 Ry
     Harris-Foulkes estimate   =    -329.47665377 Ry
     estimated scf accuracy    <       0.00007519 Ry

     iteration #  4     ecut=    30.00 Ry     beta=0.70
     Davidson diagonalization with overlap
     ethr =  1.37E-07,  avg # of iterations =  2.0

     total cpu time spent up to now is       17.2 secs

     total energy              =    -329.47664207 Ry
     Harris-Foulkes estimate   =    -329.47664736 Ry
     estimated scf accuracy    <       0.00001724 Ry

     iteration #  5     ecut=    30.00 Ry     beta=0.70
     Davidson diagonalization with overlap
     ethr =  3.13E-08,  avg # of iterations =  2.0

     total cpu time spent up to now is       17.5 secs

     total energy              =    -329.47664530 Ry
     Harris-Foulkes estimate   =    -329.47664772 Ry
     estimated scf accuracy    <       0.00000705 Ry

     iteration #  6     ecut=    30.00 Ry     beta=0.70
     Davidson diagonalization with overlap
     ethr =  1.28E-08,  avg # of iterations =  1.0

     total cpu time spent up to now is       17.9 secs

     total energy              =    -329.47664620 Ry
     Harris-Foulkes estimate   =    -329.47664645 Ry
     estimated scf accuracy    <       0.00000014 Ry

     iteration #  7     ecut=    30.00 Ry     beta=0.70
     Davidson diagonalization with overlap
     ethr =  2.54E-10,  avg # of iterations =  3.0

     total cpu time spent up to now is       18.3 secs

     total energy              =    -329.47664629 Ry
     Harris-Foulkes estimate   =    -329.47664629 Ry
     estimated scf accuracy    <       0.00000005 Ry

     iteration #  8     ecut=    30.00 Ry     beta=0.70
     Davidson diagonalization with overlap
     ethr =  8.61E-11,  avg # of iterations =  2.0

     total cpu time spent up to now is       18.8 secs

     total energy              =    -329.47664633 Ry
     Harris-Foulkes estimate   =    -329.47664630 Ry
     estimated scf accuracy    <          7.7E-09 Ry

     iteration #  9     ecut=    30.00 Ry     beta=0.70
     Davidson diagonalization with overlap
     ethr =  1.41E-11,  avg # of iterations =  2.0

     total cpu time spent up to now is       19.2 secs

     End of self-consistent calculation

          k = 0.0000 0.0000 0.0000 ( 22119 PWs)   bands (ev):

    -8.2823  -7.6732  -7.5400  -7.2293  -7.0645  -6.7108  -6.6797  -6.4769
    -6.1966  -6.0128  -5.9309  -5.7425  -5.6683  -5.6095  -5.5610  -5.4639
    -5.2256  -5.2070  -5.1700  -5.1514  -5.1332  -5.0318  -4.9864  -4.9358
    -4.9120  -4.4883  -4.4123  -3.6981  -2.4869  -2.2967  -0.3735  -0.1741
     0.3676   0.6453

     the Fermi energy is    -3.6699 ev

!    total energy              =    -329.47664629 Ry
     Harris-Foulkes estimate   =    -329.47664634 Ry
     estimated scf accuracy    <          6.3E-10 Ry

     The total energy is the sum of the following terms:

     one-electron contribution =    -608.30762809 Ry
     hartree contribution      =     325.66283494 Ry
     xc contribution           =     -51.40283776 Ry
     ewald contribution        =       4.57416808 Ry
     smearing contrib. (-TS)   =      -0.00318345 Ry

     convergence has been achieved in   9 iterations

     Forces acting on atoms (Ry/au):

     atom    1 type  1   force =    -0.00203186   -0.00345488   -0.00209315
     atom    2 type  1   force =    -0.00643378    0.00853726    0.00136376
     atom    3 type  1   force =     0.00216872   -0.00083767   -0.00034306
     atom    4 type  1   force =     0.00242101   -0.00828384    0.00057744
     atom    5 type  1   force =     0.00387591    0.00403913    0.00049501

     Total force =     0.015764     Total SCF correction =     0.000126

     number of scf cycles    =   4
     number of bfgs steps    =   3

     energy   old            =    -329.4758003178 Ry
     energy   new            =    -329.4766462875 Ry

     CASE: energy  _new < energy  _old

     new trust radius        =       0.0462272007 bohr
     new conv_thr            =       0.0000000008 Ry


ATOMIC_POSITIONS (bohr)
Au      -2.206870756   2.788792937  -0.469285561
Au      -0.182592185   2.510513063   4.255406951
Au       2.780969937   2.000982631  -0.021846182
Au       4.479465865   4.159980602   5.632623624
Au       7.111584139   1.109073766   2.488978168



     Writing output data file pwscf.save
     Check: negative starting charge=   -0.006304
     NEW-OLD atomic charge density approx. for the potential
     Check: negative starting charge=   -0.006313

     negative rho (up, down):  4.904E-04 0.000E+00

     total cpu time spent up to now is       19.6 secs

     per-process dynamical memory:    50.7 Mb

     Self-consistent Calculation

     iteration #  1     ecut=    30.00 Ry     beta=0.70
     Davidson diagonalization with overlap
     ethr =  1.00E-06,  avg # of iterations =  5.0

     negative rho (up, down):  1.871E-05 0.000E+00

     total cpu time spent up to now is       20.3 secs

     total energy              =    -329.47724834 Ry
     Harris-Foulkes estimate   =    -329.47715783 Ry
     estimated scf accuracy    <       0.00042121 Ry

     iteration #  2     ecut=    30.00 Ry     beta=0.70
     Davidson diagonalization with overlap
     ethr =  7.66E-07,  avg # of iterations =  4.0

     negative rho (up, down):  4.461E-06 0.000E+00

     total cpu time spent up to now is       20.8 secs

     total energy              =    -329.47725216 Ry
     Harris-Foulkes estimate   =    -329.47754265 Ry
     estimated scf accuracy    <       0.00066014 Ry

     iteration #  3     ecut=    30.00 Ry     beta=0.70
     Davidson diagonalization with overlap
     ethr =  7.66E-07,  avg # of iterations =  2.0

     negative rho (up, down):  3.070E-07 0.000E+00

     total cpu time spent up to now is       21.2 secs

     total energy              =    -329.47738013 Ry
     Harris-Foulkes estimate   =    -329.47744066 Ry
     estimated scf accuracy    <       0.00017616 Ry

     iteration #  4     ecut=    30.00 Ry     beta=0.70
     Davidson diagonalization with overlap
     ethr =  3.20E-07,  avg # of iterations =  2.0

     total cpu time spent up to now is       21.6 secs

     total energy              =    -329.47741176 Ry
     Harris-Foulkes estimate   =    -329.47742047 Ry
     estimated scf accuracy    <       0.00002719 Ry

     iteration #  5     ecut=    30.00 Ry     beta=0.70
     Davidson diagonalization with overlap
     ethr =  4.94E-08,  avg # of iterations =  2.0

     total cpu time spent up to now is       22.0 secs

     total energy              =    -329.47741687 Ry
     Harris-Foulkes estimate   =    -329.47742164 Ry
     estimated scf accuracy    <       0.00001437 Ry

     iteration #  6     ecut=    30.00 Ry     beta=0.70
     Davidson diagonalization with overlap
     ethr =  2.61E-08,  avg # of iterations =  1.0

     total cpu time spent up to now is       22.3 secs

     total energy              =    -329.47741908 Ry
     Harris-Foulkes estimate   =    -329.47741927 Ry
     estimated scf accuracy    <       0.00000032 Ry

     iteration #  7     ecut=    30.00 Ry     beta=0.70
     Davidson diagonalization with overlap
     ethr =  5.77E-10,  avg # of iterations =  3.0

     total cpu time spent up to now is       22.8 secs

     total energy              =    -329.47741898 Ry
     Harris-Foulkes estimate   =    -329.47741926 Ry
     estimated scf accuracy    <       0.00000009 Ry

     iteration #  8     ecut=    30.00 Ry     beta=0.70
     Davidson diagonalization with overlap
     ethr =  1.61E-10,  avg # of iterations =  2.0

     total cpu time spent up to now is       23.2 secs

     total energy              =    -329.47741903 Ry
     Harris-Foulkes estimate   =    -329.47741901 Ry
     estimated scf accuracy    <       0.00000002 Ry

     iteration #  9     ecut=    30.00 Ry     beta=0.70
     Davidson diagonalization with overlap
     ethr =  3.01E-11,  avg # of iterations =  2.0

     total cpu time spent up to now is       23.7 secs

     total energy              =    -329.47741906 Ry
     Harris-Foulkes estimate   =    -329.47741904 Ry
     estimated scf accuracy    <          1.8E-09 Ry

     iteration # 10     ecut=    30.00 Ry     beta=0.70
     Davidson diagonalization with overlap
     ethr =  3.20E-12,  avg # of iterations =  2.0

     total cpu time spent up to now is       24.1 secs

     End of self-consistent calculation

          k = 0.0000 0.0000 0.0000 ( 22119 PWs)   bands (ev):

    -8.2623  -7.6527  -7.5138  -7.2131  -7.0777  -6.7107  -6.6704  -6.4578
    -6.1937  -6.0302  -5.9353  -5.7355  -5.6801  -5.6225  -5.5496  -5.4586
    -5.2275  -5.2089  -5.1765  -5.1527  -5.1303  -5.0448  -4.9948  -4.9423
    -4.9256  -4.4973  -4.4269  -3.6922  -2.5019  -2.3036  -0.3819  -0.1757
     0.3680   0.6329

     the Fermi energy is    -3.6607 ev

!    total energy              =    -329.47741904 Ry
     Harris-Foulkes estimate   =    -329.47741906 Ry
     estimated scf accuracy    <          4.6E-10 Ry

     The total energy is the sum of the following terms:

     one-electron contribution =    -606.94991743 Ry
     hartree contribution      =     324.98054729 Ry
     xc contribution           =     -51.39674821 Ry
     ewald contribution        =       3.89263615 Ry
     smearing contrib. (-TS)   =      -0.00393683 Ry

     convergence has been achieved in  10 iterations

     Forces acting on atoms (Ry/au):

     atom    1 type  1   force =    -0.00258615   -0.00262495   -0.00212612
     atom    2 type  1   force =    -0.00287042    0.00820040    0.00118793
     atom    3 type  1   force =     0.00621588   -0.00156615    0.00372198
     atom    4 type  1   force =    -0.00201713   -0.00692870    0.00103867
     atom    5 type  1   force =     0.00125782    0.00291940   -0.00382246

     Total force =     0.015093     Total SCF correction =     0.000098

     number of scf cycles    =   5
     number of bfgs steps    =   4

     energy   old            =    -329.4766462875 Ry
     energy   new            =    -329.4774190376 Ry

     CASE: energy  _new < energy  _old

     new trust radius        =       0.0582258476 bohr
     new conv_thr            =       0.0000000008 Ry


ATOMIC_POSITIONS (bohr)
Au      -2.212256260   2.770262084  -0.477608590
Au      -0.221922997   2.553189712   4.260101653
Au       2.776228851   1.999393879  -0.030775649
Au       4.498367772   4.118237305   5.634907800
Au       7.142139634   1.128260019   2.499251786



     Writing output data file pwscf.save
     Check: negative starting charge=   -0.006313
     NEW-OLD atomic charge density approx. for the potential
     Check: negative starting charge=   -0.006319

     negative rho (up, down):  7.043E-04 0.000E+00

     total cpu time spent up to now is       24.5 secs

     per-process dynamical memory:    50.7 Mb

     Self-consistent Calculation

     iteration #  1     ecut=    30.00 Ry     beta=0.70
     Davidson diagonalization with overlap
     ethr =  1.00E-06,  avg # of iterations =  5.0

     negative rho (up, down):  3.498E-05 0.000E+00

     total cpu time spent up to now is       25.3 secs

     total energy              =    -329.47767719 Ry
     Harris-Foulkes estimate   =    -329.47748725 Ry
     estimated scf accuracy    <       0.00063630 Ry

     iteration #  2     ecut=    30.00 Ry     beta=0.70
     Davidson diagonalization with overlap
     ethr =  1.16E-06,  avg # of iterations =  4.0

     negative rho (up, down):  8.787E-06 0.000E+00

     total cpu time spent up to now is       25.8 secs

     total energy              =    -329.47770573 Ry
     Harris-Foulkes estimate   =    -329.47810294 Ry
     estimated scf accuracy    <       0.00088761 Ry

     iteration #  3     ecut=    30.00 Ry     beta=0.70
     Davidson diagonalization with overlap
     ethr =  1.16E-06,  avg # of iterations =  2.0

     negative rho (up, down):  9.006E-07 0.000E+00

     total cpu time spent up to now is       26.2 secs

     total energy              =    -329.47787335 Ry
     Harris-Foulkes estimate   =    -329.47796823 Ry
     estimated scf accuracy    <       0.00027635 Ry

     iteration #  4     ecut=    30.00 Ry     beta=0.70
     Davidson diagonalization with overlap
     ethr =  5.02E-07,  avg # of iterations =  2.0

     total cpu time spent up to now is       26.5 secs

     total energy              =    -329.47792396 Ry
     Harris-Foulkes estimate   =    -329.47793451 Ry
     estimated scf accuracy    <       0.00003320 Ry

     iteration #  5     ecut=    30.00 Ry     beta=0.70
     Davidson diagonalization with overlap
     ethr =  6.04E-08,  avg # of iterations =  2.0

     total cpu time spent up to now is       26.9 secs

     total energy              =    -329.47792947 Ry
     Harris-Foulkes estimate   =    -329.47793551 Ry
     estimated scf accuracy    <       0.00001696 Ry

     iteration #  6     ecut=    30.00 Ry     beta=0.70
     Davidson diagonalization with overlap
     ethr =  3.08E-08,  avg # of iterations =  2.0

     total cpu time spent up to now is       27.3 secs

     total energy              =    -329.47793213 Ry
     Harris-Foulkes estimate   =    -329.47793245 Ry
     estimated scf accuracy    <       0.00000047 Ry

     iteration #  7     ecut=    30.00 Ry     beta=0.70
     Davidson diagonalization with overlap
     ethr =  8.49E-10,  avg # of iterations =  3.0

     total cpu time spent up to now is       27.7 secs

     total energy              =    -329.47793234 Ry
     Harris-Foulkes estimate   =    -329.47793234 Ry
     estimated scf accuracy    <       0.00000011 Ry

     iteration #  8     ecut=    30.00 Ry     beta=0.70
     Davidson diagonalization with overlap
     ethr =  2.03E-10,  avg # of iterations =  2.0

     total cpu time spent up to now is       28.2 secs

     total energy              =    -329.47793228 Ry
     Harris-Foulkes estimate   =    -329.47793237 Ry
     estimated scf accuracy    <       0.00000002 Ry

     iteration #  9     ecut=    30.00 Ry     beta=0.70
     Davidson diagonalization with overlap
     ethr =  4.01E-11,  avg # of iterations =  2.0

     total cpu time spent up to now is       28.6 secs

     total energy              =    -329.47793231 Ry
     Harris-Foulkes estimate   =    -329.47793229 Ry
     estimated scf accuracy    <          2.9E-09 Ry

     iteration # 10     ecut=    30.00 Ry     beta=0.70
     Davidson diagonalization with overlap
     ethr =  5.34E-12,  avg # of iterations =  2.0

     total cpu time spent up to now is       29.1 secs

     total energy              =    -329.47793231 Ry
     Harris-Foulkes estimate   =    -329.47793231 Ry
     estimated scf accuracy    <          8.1E-10 Ry

     iteration # 11     ecut=    30.00 Ry     beta=0.70
     Davidson diagonalization with overlap
     ethr =  1.48E-12,  avg # of iterations =  2.0

     total cpu time spent up to now is       29.5 secs

     End of self-consistent calculation

          k = 0.0000 0.0000 0.0000 ( 22119 PWs)   bands (ev):

    -8.2385  -7.6349  -7.4921  -7.2066  -7.0806  -6.7130  -6.6581  -6.4424
    -6.1897  -6.0492  -5.9383  -5.7279  -5.6903  -5.6287  -5.5366  -5.4513
    -5.2311  -5.2110  -5.1809  -5.1552  -5.1280  -5.0594  -4.9997  -4.9504
    -4.9341  -4.5049  -4.4437  -3.6899  -2.5189  -2.3059  -0.3924  -0.1796
     0.3706   0.6225

     the Fermi energy is    -3.6561 ev

!    total energy              =    -329.47793233 Ry
     Harris-Foulkes estimate   =    -329.47793231 Ry
     estimated scf accuracy    <          4.6E-11 Ry

     The total energy is the sum of the following terms:

     one-electron contribution =    -605.52893590 Ry
     hartree contribution      =     324.26752665 Ry
     xc contribution           =     -51.39114858 Ry
     ewald contribution        =       3.17912163 Ry
     smearing contrib. (-TS)   =      -0.00449613 Ry

     convergence has been achieved in  11 iterations

     Forces acting on atoms (Ry/au):

     atom    1 type  1   force =    -0.00189467   -0.00213054   -0.00169791
     atom    2 type  1   force =     0.00108024    0.00732279    0.00052854
     atom    3 type  1   force =     0.00831946   -0.00197140    0.00749798
     atom    4 type  1   force =    -0.00657953   -0.00459084    0.00122865
     atom    5 type  1   force =    -0.00092550    0.00136999   -0.00755726

     Total force =     0.017920     Total SCF correction =     0.000030

     number of scf cycles    =   6
     number of bfgs steps    =   5

     energy   old            =    -329.4774190376 Ry
     energy   new            =    -329.4779323349 Ry

     CASE: energy  _new < energy  _old

     new trust radius        =       0.0369075361 bohr
     new conv_thr            =       0.0000000005 Ry


ATOMIC_POSITIONS (bohr)
Au      -2.216275288   2.757838474  -0.483514131
Au      -0.242259001   2.583878828   4.262707672
Au       2.780560766   1.996730895  -0.027946015
Au       4.501639775   4.091268198   5.637451085
Au       7.158890748   1.139626605   2.497178390



     Writing output data file pwscf.save
     Check: negative starting charge=   -0.006319
     NEW-OLD atomic charge density approx. for the potential
     Check: negative starting charge=   -0.006319

     negative rho (up, down):  2.777E-04 0.000E+00

     total cpu time spent up to now is       29.8 secs

     per-process dynamical memory:    50.7 Mb

     Self-consistent Calculation

     iteration #  1     ecut=    30.00 Ry     beta=0.70
     Davidson diagonalization with overlap
     ethr =  1.00E-06,  avg # of iterations =  4.0

     negative rho (up, down):  6.115E-06 0.000E+00

     total cpu time spent up to now is       30.5 secs

     total energy              =    -329.47821522 Ry
     Harris-Foulkes estimate   =    -329.47824505 Ry
     estimated scf accuracy    <       0.00025840 Ry

     iteration #  2     ecut=    30.00 Ry     beta=0.70
     Davidson diagonalization with overlap
     ethr =  4.70E-07,  avg # of iterations =  3.0

     negative rho (up, down):  7.324E-07 0.000E+00

     total cpu time spent up to now is       31.0 secs

     total energy              =    -329.47824409 Ry
     Harris-Foulkes estimate   =    -329.47837703 Ry
     estimated scf accuracy    <       0.00028576 Ry

     iteration #  3     ecut=    30.00 Ry     beta=0.70
     Davidson diagonalization with overlap
     ethr =  4.70E-07,  avg # of iterations =  2.0

     negative rho (up, down):  5.576E-08 0.000E+00

     total cpu time spent up to now is       31.4 secs

     total energy              =    -329.47829330 Ry
     Harris-Foulkes estimate   =    -329.47833019 Ry
     estimated scf accuracy    <       0.00010137 Ry

     iteration #  4     ecut=    30.00 Ry     beta=0.70
     Davidson diagonalization with overlap
     ethr =  1.84E-07,  avg # of iterations =  2.0

     total cpu time spent up to now is       31.7 secs

     total energy              =    -329.47831171 Ry
     Harris-Foulkes estimate   =    -329.47831659 Ry
     estimated scf accuracy    <       0.00001218 Ry

     iteration #  5     ecut=    30.00 Ry     beta=0.70
     Davidson diagonalization with overlap
     ethr =  2.21E-08,  avg # of iterations =  2.0

     total cpu time spent up to now is       32.1 secs

     total energy              =    -329.47831336 Ry
     Harris-Foulkes estimate   =    -329.47831447 Ry
     estimated scf accuracy    <       0.00000198 Ry

     iteration #  6     ecut=    30.00 Ry     beta=0.70
     Davidson diagonalization with overlap
     ethr =  3.60E-09,  avg # of iterations =  2.0

     total cpu time spent up to now is       32.5 secs

     total energy              =    -329.47831356 Ry
     Harris-Foulkes estimate   =    -329.47831381 Ry
     estimated scf accuracy    <       0.00000019 Ry

     iteration #  7     ecut=    30.00 Ry     beta=0.70
     Davidson diagonalization with overlap
     ethr =  3.39E-10,  avg # of iterations =  2.0

     total cpu time spent up to now is       33.0 secs

     total energy              =    -329.47831359 Ry
     Harris-Foulkes estimate   =    -329.47831361 Ry
     estimated scf accuracy    <       0.00000003 Ry

     iteration #  8     ecut=    30.00 Ry     beta=0.70
     Davidson diagonalization with overlap
     ethr =  5.25E-11,  avg # of iterations =  2.0

     total cpu time spent up to now is       33.4 secs

     total energy              =    -329.47831351 Ry
     Harris-Foulkes estimate   =    -329.47831360 Ry
     estimated scf accuracy    <          9.7E-09 Ry

     iteration #  9     ecut=    30.00 Ry     beta=0.70
     Davidson diagonalization with overlap
     ethr =  1.77E-11,  avg # of iterations =  2.0

     total cpu time spent up to now is       33.8 secs

     total energy              =    -329.47831350 Ry
     Harris-Foulkes estimate   =    -329.47831351 Ry
     estimated scf accuracy    <          8.3E-10 Ry

     iteration # 10     ecut=    30.00 Ry     beta=0.70
     Davidson diagonalization with overlap
     ethr =  1.51E-12,  avg # of iterations =  2.0

     total cpu time spent up to now is       34.2 secs

     End of self-consistent calculation

          k = 0.0000 0.0000 0.0000 ( 22119 PWs)   bands (ev):

    -8.2269  -7.6303  -7.4880  -7.2086  -7.0804  -6.7160  -6.6509  -6.4385
    -6.1863  -6.0611  -5.9376  -5.7244  -5.6912  -5.6289  -5.5325  -5.4471
    -5.2322  -5.2130  -5.1824  -5.1580  -5.1294  -5.0672  -4.9988  -4.9547
    -4.9340  -4.5067  -4.4518  -3.6936  -2.5260  -2.3016  -0.3992  -0.1840
     0.3748   0.6211

     the Fermi energy is    -3.6596 ev

!    total energy              =    -329.47831351 Ry
     Harris-Foulkes estimate   =    -329.47831350 Ry
     estimated scf accuracy    <          2.1E-10 Ry

     The total energy is the sum of the following terms:

     one-electron contribution =    -605.01128001 Ry
     hartree contribution      =     324.00736301 Ry
     xc contribution           =     -51.38932814 Ry
     ewald contribution        =       2.91948599 Ry
     smearing contrib. (-TS)   =      -0.00455436 Ry

     convergence has been achieved in  10 iterations

     Forces acting on atoms (Ry/au):

     atom    1 type  1   force =    -0.00061534   -0.00221745   -0.00128480
     atom    2 type  1   force =     0.00232535    0.00675771   -0.00043616
     atom    3 type  1   force =     0.00728108   -0.00172006    0.00870787
     atom    4 type  1   force =    -0.00781624   -0.00355305    0.00153257
     atom    5 type  1   force =    -0.00117485    0.00073285   -0.00851948

     Total force =     0.018455     Total SCF correction =     0.000066

     number of scf cycles    =   7
     number of bfgs steps    =   6

     energy   old            =    -329.4779323349 Ry
     energy   new            =    -329.4783135076 Ry

     CASE: energy  _new < energy  _old

     new trust radius        =       0.0405982897 bohr
     new conv_thr            =       0.0000000004 Ry


ATOMIC_POSITIONS (bohr)
Au      -2.219933115   2.743531774  -0.490098447
Au      -0.261778887   2.619429374   4.264539017
Au       2.788001383   1.993213681  -0.019677884
Au       4.500213700   4.061664350   5.641169608
Au       7.176053920   1.151503821   2.489944706



     Writing output data file pwscf.save
     Check: negative starting charge=   -0.006319
     NEW-OLD atomic charge density approx. for the potential
     Check: negative starting charge=   -0.006319

     negative rho (up, down):  3.574E-04 0.000E+00

     total cpu time spent up to now is       34.6 secs

     per-process dynamical memory:    50.7 Mb

     Self-consistent Calculation

     iteration #  1     ecut=    30.00 Ry     beta=0.70
     Davidson diagonalization with overlap
     ethr =  1.00E-06,  avg # of iterations =  4.0

     negative rho (up, down):  9.714E-06 0.000E+00

     total cpu time spent up to now is       35.3 secs

     total energy              =    -329.47870962 Ry
     Harris-Foulkes estimate   =    -329.47872150 Ry
     estimated scf accuracy    <       0.00032772 Ry

     iteration #  2     ecut=    30.00 Ry     beta=0.70
     Davidson diagonalization with overlap
     ethr =  5.96E-07,  avg # of iterations =  3.0

     negative rho (up, down):  1.212E-06 0.000E+00

     total cpu time spent up to now is       35.8 secs

     total energy              =    -329.47876078 Ry
     Harris-Foulkes estimate   =    -329.47890657 Ry
     estimated scf accuracy    <       0.00030802 Ry

     iteration #  3     ecut=    30.00 Ry     beta=0.70
     Davidson diagonalization with overlap
     ethr =  5.60E-07,  avg # of iterations =  2.0

     negative rho (up, down):  9.822E-08 0.000E+00

     total cpu time spent up to now is       36.2 secs

     total energy              =    -329.47881385 Ry
     Harris-Foulkes estimate   =    -329.47884944 Ry
     estimated scf accuracy    <       0.00009376 Ry

     iteration #  4     ecut=    30.00 Ry     beta=0.70
     Davidson diagonalization with overlap
     ethr =  1.70E-07,  avg # of iterations =  2.0

     total cpu time spent up to now is       36.6 secs

     total energy              =    -329.47883228 Ry
     Harris-Foulkes estimate   =    -329.47883974 Ry
     estimated scf accuracy    <       0.00002099 Ry

     iteration #  5     ecut=    30.00 Ry     beta=0.70
     Davidson diagonalization with overlap
     ethr =  3.82E-08,  avg # of iterations =  1.0

     total cpu time spent up to now is       36.9 secs

     total energy              =    -329.47883511 Ry
     Harris-Foulkes estimate   =    -329.47883580 Ry
     estimated scf accuracy    <       0.00000112 Ry

     iteration #  6     ecut=    30.00 Ry     beta=0.70
     Davidson diagonalization with overlap
     ethr =  2.04E-09,  avg # of iterations =  3.0

     total cpu time spent up to now is       37.3 secs

     total energy              =    -329.47883510 Ry
     Harris-Foulkes estimate   =    -329.47883549 Ry
     estimated scf accuracy    <       0.00000007 Ry

     iteration #  7     ecut=    30.00 Ry     beta=0.70
     Davidson diagonalization with overlap
     ethr =  1.35E-10,  avg # of iterations =  3.0

     total cpu time spent up to now is       37.8 secs

     total energy              =    -329.47883522 Ry
     Harris-Foulkes estimate   =    -329.47883513 Ry
     estimated scf accuracy    <       0.00000002 Ry

     iteration #  8     ecut=    30.00 Ry     beta=0.70
     Davidson diagonalization with overlap
     ethr =  4.42E-11,  avg # of iterations =  3.0

     total cpu time spent up to now is       38.2 secs

     total energy              =    -329.47883518 Ry
     Harris-Foulkes estimate   =    -329.47883523 Ry
     estimated scf accuracy    <          9.2E-09 Ry

     iteration #  9     ecut=    30.00 Ry     beta=0.70
     Davidson diagonalization with overlap
     ethr =  1.68E-11,  avg # of iterations =  2.0

     total cpu time spent up to now is       38.6 secs

     total energy              =    -329.47883516 Ry
     Harris-Foulkes estimate   =    -329.47883518 Ry
     estimated scf accuracy    <          5.9E-10 Ry

     iteration # 10     ecut=    30.00 Ry     beta=0.70
     Davidson diagonalization with overlap
     ethr =  1.07E-12,  avg # of iterations =  3.0

     total cpu time spent up to now is       39.0 secs

     End of self-consistent calculation

          k = 0.0000 0.0000 0.0000 ( 22119 PWs)   bands (ev):

    -8.2190  -7.6287  -7.4893  -7.2115  -7.0815  -6.7195  -6.6454  -6.4364
    -6.1819  -6.0745  -5.9356  -5.7210  -5.6900  -5.6282  -5.5303  -5.4426
    -5.2328  -5.2158  -5.1838  -5.1612  -5.1323  -5.0753  -4.9962  -4.9586
    -4.9316  -4.5073  -4.4587  -3.7001  -2.5314  -2.2940  -0.4072  -0.1896
     0.3807   0.6226

     the Fermi energy is    -3.6663 ev

!    total energy              =    -329.47883513 Ry
     Harris-Foulkes estimate   =    -329.47883516 Ry
     estimated scf accuracy    <          1.4E-10 Ry

     The total energy is the sum of the following terms:

     one-electron contribution =    -604.70008911 Ry
     hartree contribution      =     323.84991333 Ry
     xc contribution           =     -51.38839945 Ry
     ewald contribution        =       2.76421654 Ry
     smearing contrib. (-TS)   =      -0.00447643 Ry

     convergence has been achieved in  10 iterations

     Forces acting on atoms (Ry/au):

     atom    1 type  1   force =     0.00077315   -0.00244611   -0.00101876
     atom    2 type  1   force =     0.00294348    0.00680362   -0.00141995
     atom    3 type  1   force =     0.00535425   -0.00135236    0.00950515
     atom    4 type  1   force =    -0.00823832   -0.00329302    0.00186231
     atom    5 type  1   force =    -0.00083256    0.00028786   -0.00892874

     Total force =     0.018658     Total SCF correction =     0.000045

     number of scf cycles    =   8
     number of bfgs steps    =   7

     energy   old            =    -329.4783135076 Ry
     energy   new            =    -329.4788351326 Ry

     CASE: energy  _new < energy  _old

     new trust radius        =       0.0608974345 bohr
     new conv_thr            =       0.0000000005 Ry


ATOMIC_POSITIONS (bohr)
Au      -2.224011625   2.721686232  -0.499827913
Au      -0.289922579   2.673408507   4.266177117
Au       2.797987436   1.988135341  -0.005363585
Au       4.496667970   4.017269206   5.647269955
Au       7.201835797   1.168843713   2.477621426



     Writing output data file pwscf.save
     Check: negative starting charge=   -0.006319
     NEW-OLD atomic charge density approx. for the potential
     Check: negative starting charge=   -0.006325

     negative rho (up, down):  7.857E-04 0.000E+00

     total cpu time spent up to now is       39.4 secs

     per-process dynamical memory:    50.7 Mb

     Self-consistent Calculation

     iteration #  1     ecut=    30.00 Ry     beta=0.70
     Davidson diagonalization with overlap
     ethr =  1.00E-06,  avg # of iterations =  6.0

     negative rho (up, down):  4.084E-05 0.000E+00

     total cpu time spent up to now is       40.2 secs

     total energy              =    -329.47938587 Ry
     Harris-Foulkes estimate   =    -329.47918730 Ry
     estimated scf accuracy    <       0.00075041 Ry

     iteration #  2     ecut=    30.00 Ry     beta=0.70
     Davidson diagonalization with overlap
     ethr =  1.36E-06,  avg # of iterations =  4.0

     negative rho (up, down):  7.717E-06 0.000E+00

     total cpu time spent up to now is       40.7 secs

     total energy              =    -329.47952509 Ry
     Harris-Foulkes estimate   =    -329.47982571 Ry
     estimated scf accuracy    <       0.00064008 Ry

     iteration #  3     ecut=    30.00 Ry     beta=0.70
     Davidson diagonalization with overlap
     ethr =  1.16E-06,  avg # of iterations =  2.0

     negative rho (up, down):  8.004E-07 0.000E+00

     total cpu time spent up to now is       41.1 secs

     total energy              =    -329.47963603 Ry
     Harris-Foulkes estimate   =    -329.47969678 Ry
     estimated scf accuracy    <       0.00014580 Ry

     iteration #  4     ecut=    30.00 Ry     beta=0.70
     Davidson diagonalization with overlap
     ethr =  2.65E-07,  avg # of iterations =  2.0

     total cpu time spent up to now is       41.5 secs

     total energy              =    -329.47966940 Ry
     Harris-Foulkes estimate   =    -329.47968752 Ry
     estimated scf accuracy    <       0.00006468 Ry

     iteration #  5     ecut=    30.00 Ry     beta=0.70
     Davidson diagonalization with overlap
     ethr =  1.18E-07,  avg # of iterations =  1.0

     total cpu time spent up to now is       41.8 secs

     total energy              =    -329.47967795 Ry
     Harris-Foulkes estimate   =    -329.47967955 Ry
     estimated scf accuracy    <       0.00000272 Ry

     iteration #  6     ecut=    30.00 Ry     beta=0.70
     Davidson diagonalization with overlap
     ethr =  4.95E-09,  avg # of iterations =  2.0

     total cpu time spent up to now is       42.2 secs

     total energy              =    -329.47967872 Ry
     Harris-Foulkes estimate   =    -329.47967890 Ry
     estimated scf accuracy    <       0.00000020 Ry

     iteration #  7     ecut=    30.00 Ry     beta=0.70
     Davidson diagonalization with overlap
     ethr =  3.69E-10,  avg # of iterations =  3.0

     total cpu time spent up to now is       42.7 secs

     total energy              =    -329.47967864 Ry
     Harris-Foulkes estimate   =    -329.47967880 Ry
     estimated scf accuracy    <       0.00000007 Ry

     iteration #  8     ecut=    30.00 Ry     beta=0.70
     Davidson diagonalization with overlap
     ethr =  1.21E-10,  avg # of iterations =  2.0

     total cpu time spent up to now is       43.1 secs

     total energy              =    -329.47967859 Ry
     Harris-Foulkes estimate   =    -329.47967867 Ry
     estimated scf accuracy    <       0.00000002 Ry

     iteration #  9     ecut=    30.00 Ry     beta=0.70
     Davidson diagonalization with overlap
     ethr =  3.21E-11,  avg # of iterations =  2.0

     total cpu time spent up to now is       43.5 secs

     total energy              =    -329.47967857 Ry
     Harris-Foulkes estimate   =    -329.47967859 Ry
     estimated scf accuracy    <          1.2E-09 Ry

     iteration # 10     ecut=    30.00 Ry     beta=0.70
     Davidson diagonalization with overlap
     ethr =  2.26E-12,  avg # of iterations =  2.0

     total cpu time spent up to now is       43.9 secs

     End of self-consistent calculation

          k = 0.0000 0.0000 0.0000 ( 22119 PWs)   bands (ev):

    -8.2116  -7.6276  -7.4938  -7.2139  -7.0817  -6.7234  -6.6401  -6.4339
    -6.1749  -6.0937  -5.9323  -5.7162  -5.6885  -5.6275  -5.5270  -5.4353
    -5.2345  -5.2198  -5.1858  -5.1654  -5.1365  -5.0873  -4.9928  -4.9646
    -4.9273  -4.5087  -4.4680  -3.7098  -2.5391  -2.2819  -0.4190  -0.1975
     0.3895   0.6265

     the Fermi energy is    -3.6766 ev

!    total energy              =    -329.47967859 Ry
     Harris-Foulkes estimate   =    -329.47967857 Ry
     estimated scf accuracy    <          3.3E-10 Ry

     The total energy is the sum of the following terms:

     one-electron contribution =    -604.32058093 Ry
     hartree contribution      =     323.65741542 Ry
     xc contribution           =     -51.38750336 Ry
     ewald contribution        =       2.57532897 Ry
     smearing contrib. (-TS)   =      -0.00433870 Ry

     convergence has been achieved in  10 iterations

     Forces acting on atoms (Ry/au):

     atom    1 type  1   force =     0.00239917   -0.00255184   -0.00099729
     atom    2 type  1   force =     0.00368874    0.00768445   -0.00259200
     atom    3 type  1   force =     0.00286599   -0.00093168    0.01067638
     atom    4 type  1   force =    -0.00872349   -0.00388859    0.00222926
     atom    5 type  1   force =    -0.00023040   -0.00031234   -0.00931636

     Total force =     0.019971     Total SCF correction =     0.000064

     number of scf cycles    =   9
     number of bfgs steps    =   8

     energy   old            =    -329.4788351326 Ry
     energy   new            =    -329.4796785942 Ry

     CASE: energy  _new < energy  _old


     WARNING: bfgs curvature condition failed, Theta= 0.399
     new trust radius        =       0.0913461517 bohr
     new conv_thr            =       0.0000000008 Ry


ATOMIC_POSITIONS (bohr)
Au      -2.231449517   2.688694222  -0.514481038
Au      -0.332254424   2.754287532   4.269450894
Au       2.816013477   1.979941682   0.016458869
Au       4.490437411   3.951085513   5.656377793
Au       7.239810053   1.195334050   2.458070481



     Writing output data file pwscf.save
     Check: negative starting charge=   -0.006325
     NEW-OLD atomic charge density approx. for the potential
     Check: negative starting charge=   -0.006337

     negative rho (up, down):  1.533E-03 0.000E+00

     total cpu time spent up to now is       44.3 secs

     per-process dynamical memory:    50.7 Mb

     Self-consistent Calculation

     iteration #  1     ecut=    30.00 Ry     beta=0.70
     Davidson diagonalization with overlap
     ethr =  1.00E-06,  avg # of iterations =  9.0

     negative rho (up, down):  1.239E-04 0.000E+00

     total cpu time spent up to now is       45.3 secs

     total energy              =    -329.48023618 Ry
     Harris-Foulkes estimate   =    -329.47960194 Ry
     estimated scf accuracy    <       0.00168998 Ry

     iteration #  2     ecut=    30.00 Ry     beta=0.70
     Davidson diagonalization with overlap
     ethr =  3.07E-06,  avg # of iterations =  5.0

     negative rho (up, down):  3.241E-05 0.000E+00

     total cpu time spent up to now is       45.8 secs

     total energy              =    -329.48055840 Ry
     Harris-Foulkes estimate   =    -329.48121705 Ry
     estimated scf accuracy    <       0.00142005 Ry

     iteration #  3     ecut=    30.00 Ry     beta=0.70
     Davidson diagonalization with overlap
     ethr =  2.58E-06,  avg # of iterations =  2.0

     negative rho (up, down):  5.442E-06 0.000E+00

     total cpu time spent up to now is       46.2 secs

     total energy              =    -329.48081002 Ry
     Harris-Foulkes estimate   =    -329.48093704 Ry
     estimated scf accuracy    <       0.00031081 Ry

     iteration #  4     ecut=    30.00 Ry     beta=0.70
     Davidson diagonalization with overlap
     ethr =  5.65E-07,  avg # of iterations =  2.0

     total cpu time spent up to now is       46.6 secs

     total energy              =    -329.48088130 Ry
     Harris-Foulkes estimate   =    -329.48092350 Ry
     estimated scf accuracy    <       0.00014775 Ry

     iteration #  5     ecut=    30.00 Ry     beta=0.70
     Davidson diagonalization with overlap
     ethr =  2.69E-07,  avg # of iterations =  1.0

     total cpu time spent up to now is       46.9 secs

     total energy              =    -329.48090181 Ry
     Harris-Foulkes estimate   =    -329.48090450 Ry
     estimated scf accuracy    <       0.00000631 Ry

     iteration #  6     ecut=    30.00 Ry     beta=0.70
     Davidson diagonalization with overlap
     ethr =  1.15E-08,  avg # of iterations =  3.0

     total cpu time spent up to now is       47.3 secs

     total energy              =    -329.48090383 Ry
     Harris-Foulkes estimate   =    -329.48090398 Ry
     estimated scf accuracy    <       0.00000042 Ry

     iteration #  7     ecut=    30.00 Ry     beta=0.70
     Davidson diagonalization with overlap
     ethr =  7.69E-10,  avg # of iterations =  3.0

     total cpu time spent up to now is       47.8 secs

     total energy              =    -329.48090383 Ry
     Harris-Foulkes estimate   =    -329.48090397 Ry
     estimated scf accuracy    <       0.00000011 Ry

     iteration #  8     ecut=    30.00 Ry     beta=0.70
     Davidson diagonalization with overlap
     ethr =  2.02E-10,  avg # of iterations =  3.0

     total cpu time spent up to now is       48.2 secs

     total energy              =    -329.48090383 Ry
     Harris-Foulkes estimate   =    -329.48090387 Ry
     estimated scf accuracy    <       0.00000003 Ry

     iteration #  9     ecut=    30.00 Ry     beta=0.70
     Davidson diagonalization with overlap
     ethr =  4.81E-11,  avg # of iterations =  2.0

     total cpu time spent up to now is       48.7 secs

     total energy              =    -329.48090387 Ry
     Harris-Foulkes estimate   =    -329.48090384 Ry
     estimated scf accuracy    <          2.9E-09 Ry

     iteration # 10     ecut=    30.00 Ry     beta=0.70
     Davidson diagonalization with overlap
     ethr =  5.30E-12,  avg # of iterations =  2.0

     total cpu time spent up to now is       49.1 secs

     End of self-consistent calculation

          k = 0.0000 0.0000 0.0000 ( 22119 PWs)   bands (ev):

    -8.1978  -7.6243  -7.4993  -7.2127  -7.0724  -6.7262  -6.6312  -6.4294
    -6.1662  -6.1166  -5.9268  -5.7062  -5.6830  -5.6250  -5.5208  -5.4230
    -5.2388  -5.2249  -5.1884  -5.1723  -5.1432  -5.1038  -4.9884  -4.9735
    -4.9212  -4.5143  -4.4805  -3.7255  -2.5523  -2.2652  -0.4359  -0.2090
     0.4006   0.6353

     the Fermi energy is    -3.6933 ev

!    total energy              =    -329.48090384 Ry
     Harris-Foulkes estimate   =    -329.48090387 Ry
     estimated scf accuracy    <          5.3E-10 Ry

     The total energy is the sum of the following terms:

     one-electron contribution =    -603.55623963 Ry
     hartree contribution      =     323.27328208 Ry
     xc contribution           =     -51.38555630 Ry
     ewald contribution        =       2.19170999 Ry
     smearing contrib. (-TS)   =      -0.00409998 Ry

     convergence has been achieved in  10 iterations

     Forces acting on atoms (Ry/au):

     atom    1 type  1   force =     0.00574826   -0.00174293   -0.00077099
     atom    2 type  1   force =     0.00495720    0.00671754   -0.00463711
     atom    3 type  1   force =    -0.00147817    0.00026232    0.01212558
     atom    4 type  1   force =    -0.00948048   -0.00347140    0.00227721
     atom    5 type  1   force =     0.00025319   -0.00176553   -0.00899469

     Total force =     0.021642     Total SCF correction =     0.000102

     number of scf cycles    =  10
     number of bfgs steps    =   9

     energy   old            =    -329.4796785942 Ry
     energy   new            =    -329.4809038422 Ry

     CASE: energy  _new < energy  _old

     new trust radius        =       0.1370192276 bohr
     new conv_thr            =       0.0000000012 Ry


ATOMIC_POSITIONS (bohr)
Au      -2.238463935   2.639816507  -0.537113982
Au      -0.391552254   2.877796590   4.271334695
Au       2.842471373   1.968202026   0.057339900
Au       4.474331479   3.850543185   5.670869286
Au       7.295770337   1.232984692   2.423447102



     Writing output data file pwscf.save
     Check: negative starting charge=   -0.006337
     NEW-OLD atomic charge density approx. for the potential
     Check: negative starting charge=   -0.006305

     negative rho (up, down):  2.884E-03 0.000E+00

     total cpu time spent up to now is       49.5 secs

     per-process dynamical memory:    50.7 Mb

     Self-consistent Calculation

     iteration #  1     ecut=    30.00 Ry     beta=0.70
     Davidson diagonalization with overlap
     ethr =  1.00E-06,  avg # of iterations = 10.0

     negative rho (up, down):  3.139E-04 0.000E+00

     total cpu time spent up to now is       50.5 secs

     total energy              =    -329.48063840 Ry
     Harris-Foulkes estimate   =    -329.48017013 Ry
     estimated scf accuracy    <       0.00381221 Ry

     iteration #  2     ecut=    30.00 Ry     beta=0.70
     Davidson diagonalization with overlap
     ethr =  6.93E-06,  avg # of iterations =  6.0

     negative rho (up, down):  9.855E-05 0.000E+00

     total cpu time spent up to now is       51.0 secs

     total energy              =    -329.48149733 Ry
     Harris-Foulkes estimate   =    -329.48275288 Ry
     estimated scf accuracy    <       0.00281536 Ry

     iteration #  3     ecut=    30.00 Ry     beta=0.70
     Davidson diagonalization with overlap
     ethr =  5.12E-06,  avg # of iterations =  2.0

     negative rho (up, down):  1.266E-05 0.000E+00

     total cpu time spent up to now is       51.4 secs

     total energy              =    -329.48203067 Ry
     Harris-Foulkes estimate   =    -329.48218461 Ry
     estimated scf accuracy    <       0.00035469 Ry

     iteration #  4     ecut=    30.00 Ry     beta=0.70
     Davidson diagonalization with overlap
     ethr =  6.45E-07,  avg # of iterations =  3.0

     total cpu time spent up to now is       51.9 secs

     total energy              =    -329.48210418 Ry
     Harris-Foulkes estimate   =    -329.48223566 Ry
     estimated scf accuracy    <       0.00044448 Ry

     iteration #  5     ecut=    30.00 Ry     beta=0.70
     Davidson diagonalization with overlap
     ethr =  6.45E-07,  avg # of iterations =  2.0

     total cpu time spent up to now is       52.2 secs

     total energy              =    -329.48216595 Ry
     Harris-Foulkes estimate   =    -329.48217311 Ry
     estimated scf accuracy    <       0.00001559 Ry

     iteration #  6     ecut=    30.00 Ry     beta=0.70
     Davidson diagonalization with overlap
     ethr =  2.83E-08,  avg # of iterations =  3.0

     total cpu time spent up to now is       52.7 secs

     total energy              =    -329.48216978 Ry
     Harris-Foulkes estimate   =    -329.48217114 Ry
     estimated scf accuracy    <       0.00000132 Ry

     iteration #  7     ecut=    30.00 Ry     beta=0.70
     Davidson diagonalization with overlap
     ethr =  2.39E-09,  avg # of iterations =  2.0

     total cpu time spent up to now is       53.1 secs

     total energy              =    -329.48216982 Ry
     Harris-Foulkes estimate   =    -329.48217015 Ry
     estimated scf accuracy    <       0.00000028 Ry

     iteration #  8     ecut=    30.00 Ry     beta=0.70
     Davidson diagonalization with overlap
     ethr =  5.08E-10,  avg # of iterations =  2.0

     total cpu time spent up to now is       53.5 secs

     total energy              =    -329.48216975 Ry
     Harris-Foulkes estimate   =    -329.48216992 Ry
     estimated scf accuracy    <       0.00000010 Ry

     iteration #  9     ecut=    30.00 Ry     beta=0.70
     Davidson diagonalization with overlap
     ethr =  1.77E-10,  avg # of iterations =  2.0

     total cpu time spent up to now is       53.9 secs

     total energy              =    -329.48216971 Ry
     Harris-Foulkes estimate   =    -329.48216977 Ry
     estimated scf accuracy    <          8.6E-09 Ry

     iteration # 10     ecut=    30.00 Ry     beta=0.70
     Davidson diagonalization with overlap
     ethr =  1.56E-11,  avg # of iterations =  2.0

     total cpu time spent up to now is       54.4 secs

     total energy              =    -329.48216970 Ry
     Harris-Foulkes estimate   =    -329.48216971 Ry
     estimated scf accuracy    <          2.0E-09 Ry

     iteration # 11     ecut=    30.00 Ry     beta=0.70
     Davidson diagonalization with overlap
     ethr =  3.60E-12,  avg # of iterations =  2.0

     total cpu time spent up to now is       54.7 secs

     End of self-consistent calculation

          k = 0.0000 0.0000 0.0000 ( 22119 PWs)   bands (ev):

    -8.1905  -7.6212  -7.5120  -7.2014  -7.0548  -6.7227  -6.6263  -6.4225
    -6.1677  -6.1241  -5.9210  -5.6891  -5.6742  -5.6226  -5.5085  -5.4039
    -5.2491  -5.2370  -5.1869  -5.1826  -5.1531  -5.1238  -4.9904  -4.9750
    -4.9120  -4.5371  -4.4850  -3.7497  -2.5690  -2.2412  -0.4601  -0.2246
     0.4151   0.6565

     the Fermi energy is    -3.7194 ev

!    total energy              =    -329.48216970 Ry
     Harris-Foulkes estimate   =    -329.48216970 Ry
     estimated scf accuracy    <          1.8E-10 Ry

     The total energy is the sum of the following terms:

     one-electron contribution =    -602.62721258 Ry
     hartree contribution      =     322.80683002 Ry
     xc contribution           =     -51.38293522 Ry
     ewald contribution        =       1.72478198 Ry
     smearing contrib. (-TS)   =      -0.00363390 Ry

     convergence has been achieved in  11 iterations

     Forces acting on atoms (Ry/au):

     atom    1 type  1   force =     0.01073901   -0.00220463    0.00094529
     atom    2 type  1   force =     0.00533729    0.00357059   -0.00749492
     atom    3 type  1   force =    -0.00815718    0.00111765    0.01268549
     atom    4 type  1   force =    -0.00863550   -0.00046574    0.00186877
     atom    5 type  1   force =     0.00071638   -0.00201787   -0.00800464

     Total force =     0.024375     Total SCF correction =     0.000047

     number of scf cycles    =  11
     number of bfgs steps    =  10

     energy   old            =    -329.4809038422 Ry
     energy   new            =    -329.4821696987 Ry

     CASE: energy  _new < energy  _old

     new trust radius        =       0.1298350955 bohr
     new conv_thr            =       0.0000000013 Ry


ATOMIC_POSITIONS (bohr)
Au      -2.235603947   2.591087120  -0.557532989
Au      -0.440296673   2.998028067   4.266282409
Au       2.866679315   1.956256296   0.113352794
Au       4.445916411   3.756377155   5.686070002
Au       7.345861894   1.267594363   2.377704783



     Writing output data file pwscf.save
     Check: negative starting charge=   -0.006305
     NEW-OLD atomic charge density approx. for the potential
     Check: negative starting charge=   -0.006330

     negative rho (up, down):  2.869E-03 0.000E+00

     total cpu time spent up to now is       55.1 secs

     per-process dynamical memory:    50.7 Mb

     Self-consistent Calculation

     iteration #  1     ecut=    30.00 Ry     beta=0.70
     Davidson diagonalization with overlap
     ethr =  1.00E-06,  avg # of iterations = 10.0

     negative rho (up, down):  3.200E-04 0.000E+00

     total cpu time spent up to now is       56.1 secs

     total energy              =    -329.48212251 Ry
     Harris-Foulkes estimate   =    -329.48168687 Ry
     estimated scf accuracy    <       0.00368771 Ry

     iteration #  2     ecut=    30.00 Ry     beta=0.70
     Davidson diagonalization with overlap
     ethr =  6.70E-06,  avg # of iterations =  5.0

     negative rho (up, down):  9.766E-05 0.000E+00

     total cpu time spent up to now is       56.6 secs

     total energy              =    -329.48304068 Ry
     Harris-Foulkes estimate   =    -329.48413493 Ry
     estimated scf accuracy    <       0.00249751 Ry

     iteration #  3     ecut=    30.00 Ry     beta=0.70
     Davidson diagonalization with overlap
     ethr =  4.54E-06,  avg # of iterations =  2.0

     negative rho (up, down):  2.736E-07 0.000E+00

     total cpu time spent up to now is       57.0 secs

     total energy              =    -329.48358712 Ry
     Harris-Foulkes estimate   =    -329.48359122 Ry
     estimated scf accuracy    <       0.00008393 Ry

     iteration #  4     ecut=    30.00 Ry     beta=0.70
     Davidson diagonalization with overlap
     ethr =  1.53E-07,  avg # of iterations =  3.0

     total cpu time spent up to now is       57.5 secs

     total energy              =    -329.48359473 Ry
     Harris-Foulkes estimate   =    -329.48364800 Ry
     estimated scf accuracy    <       0.00013880 Ry

     iteration #  5     ecut=    30.00 Ry     beta=0.70
     Davidson diagonalization with overlap
     ethr =  1.53E-07,  avg # of iterations =  2.0

     total cpu time spent up to now is       57.9 secs

     total energy              =    -329.48361976 Ry
     Harris-Foulkes estimate   =    -329.48362183 Ry
     estimated scf accuracy    <       0.00000604 Ry

     iteration #  6     ecut=    30.00 Ry     beta=0.70
     Davidson diagonalization with overlap
     ethr =  1.10E-08,  avg # of iterations =  2.0

     total cpu time spent up to now is       58.3 secs

     total energy              =    -329.48362105 Ry
     Harris-Foulkes estimate   =    -329.48362155 Ry
     estimated scf accuracy    <       0.00000113 Ry

     iteration #  7     ecut=    30.00 Ry     beta=0.70
     Davidson diagonalization with overlap
     ethr =  2.05E-09,  avg # of iterations =  2.0

     total cpu time spent up to now is       58.7 secs

     total energy              =    -329.48362112 Ry
     Harris-Foulkes estimate   =    -329.48362137 Ry
     estimated scf accuracy    <       0.00000025 Ry

     iteration #  8     ecut=    30.00 Ry     beta=0.70
     Davidson diagonalization with overlap
     ethr =  4.62E-10,  avg # of iterations =  2.0

     total cpu time spent up to now is       59.1 secs

     total energy              =    -329.48362113 Ry
     Harris-Foulkes estimate   =    -329.48362121 Ry
     estimated scf accuracy    <       0.00000011 Ry

     iteration #  9     ecut=    30.00 Ry     beta=0.70
     Davidson diagonalization with overlap
     ethr =  2.08E-10,  avg # of iterations =  2.0

     total cpu time spent up to now is       59.5 secs

     total energy              =    -329.48362112 Ry
     Harris-Foulkes estimate   =    -329.48362116 Ry
     estimated scf accuracy    <       0.00000001 Ry

     iteration # 10     ecut=    30.00 Ry     beta=0.70
     Davidson diagonalization with overlap
     ethr =  1.95E-11,  avg # of iterations =  2.0

     total cpu time spent up to now is       59.9 secs

     total energy              =    -329.48362111 Ry
     Harris-Foulkes estimate   =    -329.48362112 Ry
     estimated scf accuracy    <          2.3E-09 Ry

     iteration # 11     ecut=    30.00 Ry     beta=0.70
     Davidson diagonalization with overlap
     ethr =  4.10E-12,  avg # of iterations =  2.0

     total cpu time spent up to now is       60.3 secs

     End of self-consistent calculation

          k = 0.0000 0.0000 0.0000 ( 22119 PWs)   bands (ev):

    -8.2104  -7.6223  -7.5317  -7.1836  -7.0449  -6.7084  -6.6382  -6.4176
    -6.1899  -6.1030  -5.9225  -5.6753  -5.6687  -5.6216  -5.4917  -5.3867
    -5.2579  -5.2551  -5.1925  -5.1831  -5.1595  -5.1346  -4.9964  -4.9629
    -4.9025  -4.5635  -4.4782  -3.7736  -2.5732  -2.2176  -0.4825  -0.2375
     0.4315   0.6882

     the Fermi energy is    -3.7466 ev

!    total energy              =    -329.48362108 Ry
     Harris-Foulkes estimate   =    -329.48362111 Ry
     estimated scf accuracy    <          1.0E-10 Ry

     The total energy is the sum of the following terms:

     one-electron contribution =    -602.53782108 Ry
     hartree contribution      =     322.76083405 Ry
     xc contribution           =     -51.38366170 Ry
     ewald contribution        =       1.67991207 Ry
     smearing contrib. (-TS)   =      -0.00288443 Ry

     convergence has been achieved in  11 iterations

     Forces acting on atoms (Ry/au):

     atom    1 type  1   force =     0.01333841   -0.00270712    0.00261992
     atom    2 type  1   force =     0.00336687    0.00365577   -0.00946936
     atom    3 type  1   force =    -0.01415307    0.00208368    0.01239686
     atom    4 type  1   force =    -0.00519283   -0.00200164    0.00034499
     atom    5 type  1   force =     0.00264062   -0.00103070   -0.00589240

     Total force =     0.027178     Total SCF correction =     0.000034

     number of scf cycles    =  12
     number of bfgs steps    =  11

     energy   old            =    -329.4821696987 Ry
     energy   new            =    -329.4836210816 Ry

     CASE: energy  _new < energy  _old


     WARNING: bfgs curvature condition failed, Theta= 0.801
     new trust radius        =       0.1428186051 bohr
     new conv_thr            =       0.0000000014 Ry


ATOMIC_POSITIONS (bohr)
Au      -2.232452875   2.537485582  -0.579980530
Au      -0.493962509   3.130263630   4.260724735
Au       2.893239506   1.943129448   0.174901723
Au       4.414741581   3.652784666   5.702771620
Au       7.400991297   1.305679673   2.327459453



     Writing output data file pwscf.save
     Check: negative starting charge=   -0.006330
     NEW-OLD atomic charge density approx. for the potential
     Check: negative starting charge=   -0.006379

     negative rho (up, down):  3.224E-03 0.000E+00

     total cpu time spent up to now is       60.7 secs

     per-process dynamical memory:    50.7 Mb

     Self-consistent Calculation

     iteration #  1     ecut=    30.00 Ry     beta=0.70
     Davidson diagonalization with overlap
     ethr =  1.00E-06,  avg # of iterations = 10.0

     negative rho (up, down):  3.693E-04 0.000E+00

     total cpu time spent up to now is       61.7 secs

     total energy              =    -329.48251812 Ry
     Harris-Foulkes estimate   =    -329.48824628 Ry
     estimated scf accuracy    <       0.00424005 Ry

     iteration #  2     ecut=    30.00 Ry     beta=0.70
     Davidson diagonalization with overlap
     ethr =  7.71E-06,  avg # of iterations =  6.0

     negative rho (up, down):  1.131E-04 0.000E+00

     total cpu time spent up to now is       62.2 secs

     total energy              =    -329.48432643 Ry
     Harris-Foulkes estimate   =    -329.48547482 Ry
     estimated scf accuracy    <       0.00269875 Ry

     iteration #  3     ecut=    30.00 Ry     beta=0.70
[...]
     Davidson diagonalization with overlap
     ethr =  6.98E-08,  avg # of iterations =  2.0

     total cpu time spent up to now is      235.6 secs

     total energy              =    -329.49225323 Ry
     Harris-Foulkes estimate   =    -329.49225367 Ry
     estimated scf accuracy    <       0.00000154 Ry

     iteration #  6     ecut=    30.00 Ry     beta=0.70
     Davidson diagonalization with overlap
     ethr =  2.81E-09,  avg # of iterations =  3.0

     total cpu time spent up to now is      235.9 secs

     total energy              =    -329.49225363 Ry
     Harris-Foulkes estimate   =    -329.49225375 Ry
     estimated scf accuracy    <       0.00000018 Ry

     iteration #  7     ecut=    30.00 Ry     beta=0.70
     Davidson diagonalization with overlap
     ethr =  3.21E-10,  avg # of iterations =  2.0

     total cpu time spent up to now is      236.2 secs

     total energy              =    -329.49225368 Ry
     Harris-Foulkes estimate   =    -329.49225371 Ry
     estimated scf accuracy    <       0.00000009 Ry

     iteration #  8     ecut=    30.00 Ry     beta=0.70
     Davidson diagonalization with overlap
     ethr =  1.72E-10,  avg # of iterations =  2.0

     total cpu time spent up to now is      236.5 secs

     total energy              =    -329.49225374 Ry
     Harris-Foulkes estimate   =    -329.49225370 Ry
     estimated scf accuracy    <       0.00000002 Ry

     iteration #  9     ecut=    30.00 Ry     beta=0.70
     Davidson diagonalization with overlap
     ethr =  2.81E-11,  avg # of iterations =  2.0

     total cpu time spent up to now is      236.7 secs

     total energy              =    -329.49225370 Ry
     Harris-Foulkes estimate   =    -329.49225374 Ry
     estimated scf accuracy    <          1.9E-09 Ry

     iteration # 10     ecut=    30.00 Ry     beta=0.70
     Davidson diagonalization with overlap
     ethr =  3.40E-12,  avg # of iterations =  2.0

     total cpu time spent up to now is      237.0 secs

     total energy              =    -329.49225372 Ry
     Harris-Foulkes estimate   =    -329.49225371 Ry
     estimated scf accuracy    <          1.9E-10 Ry

     iteration # 11     ecut=    30.00 Ry     beta=0.70
     Davidson diagonalization with overlap
     ethr =  3.40E-13,  avg # of iterations =  2.0

     total cpu time spent up to now is      237.3 secs

     End of self-consistent calculation

          k = 0.0000 0.0000 0.0000 ( 22119 PWs)   bands (ev):

    -8.5115  -7.7796  -7.6661  -7.2339  -6.8720  -6.8172  -6.5925  -6.4887
    -6.3120  -6.0743  -5.9497  -5.7693  -5.7240  -5.6861  -5.4540  -5.3611
    -5.3193  -5.2426  -5.2020  -5.1830  -5.1657  -5.1228  -5.0039  -4.9213
    -4.8558  -4.7154  -4.4822  -3.7854  -2.4694  -2.1877  -0.5480  -0.2053
     0.5110   0.8247

     the Fermi energy is    -3.7536 ev

!    total energy              =    -329.49225373 Ry
     Harris-Foulkes estimate   =    -329.49225372 Ry
     estimated scf accuracy    <          4.0E-11 Ry

     The total energy is the sum of the following terms:

     one-electron contribution =    -608.03326503 Ry
     hartree contribution      =     325.44791461 Ry
     xc contribution           =     -51.40069584 Ry
     ewald contribution        =       4.49794309 Ry
     smearing contrib. (-TS)   =      -0.00415055 Ry

     convergence has been achieved in  11 iterations

     Forces acting on atoms (Ry/au):

     atom    1 type  1   force =     0.00047122   -0.00004875    0.00012729
     atom    2 type  1   force =    -0.00094710   -0.00016811   -0.00170545
     atom    3 type  1   force =     0.00111024   -0.00044834    0.00054458
     atom    4 type  1   force =    -0.00021504   -0.00013011   -0.00086997
     atom    5 type  1   force =    -0.00041932    0.00079531    0.00190356

     Total force =     0.003325     Total SCF correction =     0.000029

     number of scf cycles    =  48
     number of bfgs steps    =  47

     energy   old            =    -329.4922046484 Ry
     energy   new            =    -329.4922537309 Ry

     CASE: energy  _new < energy  _old

     new trust radius        =       0.0491882983 bohr
     new conv_thr            =            1.0E-10 Ry


ATOMIC_POSITIONS (bohr)
Au      -1.976049938   2.541651585  -0.791124825
Au      -0.576962590   4.033979947   3.968136175
Au       2.810088298   1.672827666   0.611373415
Au       4.241802768   3.294618106   5.707481464
Au       7.483678461   1.026265697   2.390010771



     Writing output data file pwscf.save
     Check: negative starting charge=   -0.006388
     NEW-OLD atomic charge density approx. for the potential
     Check: negative starting charge=   -0.006379

     negative rho (up, down):  5.377E-04 0.000E+00

     total cpu time spent up to now is      237.7 secs

     per-process dynamical memory:    50.7 Mb

     Self-consistent Calculation

     iteration #  1     ecut=    30.00 Ry     beta=0.70
     Davidson diagonalization with overlap
     ethr =  1.00E-06,  avg # of iterations =  5.0

     negative rho (up, down):  2.168E-05 0.000E+00

     total cpu time spent up to now is      238.1 secs

     total energy              =    -329.49213364 Ry
     Harris-Foulkes estimate   =    -329.49205668 Ry
     estimated scf accuracy    <       0.00047749 Ry

     iteration #  2     ecut=    30.00 Ry     beta=0.70
     Davidson diagonalization with overlap
     ethr =  8.68E-07,  avg # of iterations =  4.0

     negative rho (up, down):  3.739E-06 0.000E+00

     total cpu time spent up to now is      238.5 secs

     total energy              =    -329.49220909 Ry
     Harris-Foulkes estimate   =    -329.49242651 Ry
     estimated scf accuracy    <       0.00046679 Ry

     iteration #  3     ecut=    30.00 Ry     beta=0.70
     Davidson diagonalization with overlap
     ethr =  8.49E-07,  avg # of iterations =  2.0

     negative rho (up, down):  2.148E-08 0.000E+00

     total cpu time spent up to now is      238.7 secs

     total energy              =    -329.49230599 Ry
     Harris-Foulkes estimate   =    -329.49231972 Ry
     estimated scf accuracy    <       0.00003470 Ry

     iteration #  4     ecut=    30.00 Ry     beta=0.70
     Davidson diagonalization with overlap
     ethr =  6.31E-08,  avg # of iterations =  2.0

     total cpu time spent up to now is      239.0 secs

     total energy              =    -329.49231337 Ry
     Harris-Foulkes estimate   =    -329.49232724 Ry
     estimated scf accuracy    <       0.00004342 Ry

     iteration #  5     ecut=    30.00 Ry     beta=0.70
     Davidson diagonalization with overlap
     ethr =  6.31E-08,  avg # of iterations =  2.0

     total cpu time spent up to now is      239.3 secs

     total energy              =    -329.49232061 Ry
     Harris-Foulkes estimate   =    -329.49232152 Ry
     estimated scf accuracy    <       0.00000193 Ry

     iteration #  6     ecut=    30.00 Ry     beta=0.70
     Davidson diagonalization with overlap
     ethr =  3.51E-09,  avg # of iterations =  2.0

     total cpu time spent up to now is      239.5 secs

     total energy              =    -329.49232087 Ry
     Harris-Foulkes estimate   =    -329.49232111 Ry
     estimated scf accuracy    <       0.00000015 Ry

     iteration #  7     ecut=    30.00 Ry     beta=0.70
     Davidson diagonalization with overlap
     ethr =  2.74E-10,  avg # of iterations =  3.0

     total cpu time spent up to now is      239.8 secs

     total energy              =    -329.49232095 Ry
     Harris-Foulkes estimate   =    -329.49232094 Ry
     estimated scf accuracy    <       0.00000010 Ry

     iteration #  8     ecut=    30.00 Ry     beta=0.70
     Davidson diagonalization with overlap
     ethr =  1.89E-10,  avg # of iterations =  2.0

     total cpu time spent up to now is      240.1 secs

     total energy              =    -329.49232090 Ry
     Harris-Foulkes estimate   =    -329.49232097 Ry
     estimated scf accuracy    <       0.00000002 Ry

     iteration #  9     ecut=    30.00 Ry     beta=0.70
     Davidson diagonalization with overlap
     ethr =  3.18E-11,  avg # of iterations =  2.0

     total cpu time spent up to now is      240.4 secs

     total energy              =    -329.49232091 Ry
     Harris-Foulkes estimate   =    -329.49232091 Ry
     estimated scf accuracy    <          1.5E-09 Ry

     iteration # 10     ecut=    30.00 Ry     beta=0.70
     Davidson diagonalization with overlap
     ethr =  2.66E-12,  avg # of iterations =  2.0

     total cpu time spent up to now is      240.7 secs

     total energy              =    -329.49232092 Ry
     Harris-Foulkes estimate   =    -329.49232091 Ry
     estimated scf accuracy    <          2.2E-10 Ry

     iteration # 11     ecut=    30.00 Ry     beta=0.70
     Davidson diagonalization with overlap
     ethr =  4.03E-13,  avg # of iterations =  2.0

     total cpu time spent up to now is      241.0 secs

     End of self-consistent calculation

          k = 0.0000 0.0000 0.0000 ( 22119 PWs)   bands (ev):

    -8.5118  -7.7786  -7.6625  -7.2302  -6.8743  -6.8174  -6.5863  -6.4893
    -6.3079  -6.0758  -5.9497  -5.7672  -5.7224  -5.6851  -5.4545  -5.3605
    -5.3189  -5.2432  -5.2024  -5.1853  -5.1644  -5.1227  -5.0036  -4.9250
    -4.8647  -4.7058  -4.4880  -3.7838  -2.4670  -2.1921  -0.5460  -0.2032
     0.5050   0.8157

     the Fermi energy is    -3.7512 ev

!    total energy              =    -329.49232089 Ry
     Harris-Foulkes estimate   =    -329.49232092 Ry
     estimated scf accuracy    <          3.7E-11 Ry

     The total energy is the sum of the following terms:

     one-electron contribution =    -607.68917028 Ry
     hartree contribution      =     325.27578767 Ry
     xc contribution           =     -51.39949406 Ry
     ewald contribution        =       4.32486261 Ry
     smearing contrib. (-TS)   =      -0.00430683 Ry

     convergence has been achieved in  11 iterations

     Forces acting on atoms (Ry/au):

     atom    1 type  1   force =     0.00085129   -0.00007732    0.00049566
     atom    2 type  1   force =    -0.00067884    0.00069341   -0.00193714
     atom    3 type  1   force =     0.00053882   -0.00055091    0.00002468
     atom    4 type  1   force =    -0.00079274   -0.00051150   -0.00113428
     atom    5 type  1   force =     0.00008147    0.00044632    0.00255109

     Total force =     0.003893     Total SCF correction =     0.000027

     number of scf cycles    =  49
     number of bfgs steps    =  48

     energy   old            =    -329.4922537309 Ry
     energy   new            =    -329.4923208861 Ry

     CASE: energy  _new < energy  _old


     WARNING: bfgs curvature condition failed, Theta= 0.128
     new trust radius        =       0.0737824474 bohr
     new conv_thr            =            1.0E-10 Ry


ATOMIC_POSITIONS (bohr)
Au      -1.975669859   2.547731521  -0.820185426
Au      -0.551384567   4.083604157   3.919896647
Au       2.796763419   1.627438442   0.636134324
Au       4.247030259   3.309061944   5.735788378
Au       7.465817749   1.001506937   2.414243078



     Writing output data file pwscf.save
     Check: negative starting charge=   -0.006379
     NEW-OLD atomic charge density approx. for the potential
     Check: negative starting charge=   -0.006381

     negative rho (up, down):  1.101E-03 0.000E+00

     total cpu time spent up to now is      241.3 secs

     per-process dynamical memory:    50.7 Mb

     Self-consistent Calculation

     iteration #  1     ecut=    30.00 Ry     beta=0.70
     Davidson diagonalization with overlap
     ethr =  1.00E-06,  avg # of iterations = 13.0

     negative rho (up, down):  7.407E-05 0.000E+00

     total cpu time spent up to now is      241.9 secs

     total energy              =    -329.49198918 Ry
     Harris-Foulkes estimate   =    -329.49158778 Ry
     estimated scf accuracy    <       0.00106919 Ry

     iteration #  2     ecut=    30.00 Ry     beta=0.70
     Davidson diagonalization with overlap
     ethr =  1.94E-06,  avg # of iterations =  7.0

     negative rho (up, down):  1.815E-05 0.000E+00

     total cpu time spent up to now is      242.3 secs

     total energy              =    -329.49216093 Ry
     Harris-Foulkes estimate   =    -329.49264171 Ry
     estimated scf accuracy    <       0.00104445 Ry

     iteration #  3     ecut=    30.00 Ry     beta=0.70
     Davidson diagonalization with overlap
     ethr =  1.90E-06,  avg # of iterations =  2.0

     negative rho (up, down):  1.802E-07 0.000E+00

     total cpu time spent up to now is      242.6 secs

     total energy              =    -329.49237746 Ry
     Harris-Foulkes estimate   =    -329.49240580 Ry
     estimated scf accuracy    <       0.00006970 Ry

     iteration #  4     ecut=    30.00 Ry     beta=0.70
     Davidson diagonalization with overlap
     ethr =  1.27E-07,  avg # of iterations =  2.0

     total cpu time spent up to now is      242.8 secs

     total energy              =    -329.49238993 Ry
     Harris-Foulkes estimate   =    -329.49242194 Ry
     estimated scf accuracy    <       0.00009284 Ry

     iteration #  5     ecut=    30.00 Ry     beta=0.70
     Davidson diagonalization with overlap
     ethr =  1.27E-07,  avg # of iterations =  2.0

     total cpu time spent up to now is      243.1 secs

     total energy              =    -329.49240563 Ry
     Harris-Foulkes estimate   =    -329.49240745 Ry
     estimated scf accuracy    <       0.00000428 Ry

     iteration #  6     ecut=    30.00 Ry     beta=0.70
     Davidson diagonalization with overlap
     ethr =  7.78E-09,  avg # of iterations =  2.0

     total cpu time spent up to now is      243.4 secs

     total energy              =    -329.49240668 Ry
     Harris-Foulkes estimate   =    -329.49240670 Ry
     estimated scf accuracy    <       0.00000031 Ry

     iteration #  7     ecut=    30.00 Ry     beta=0.70
     Davidson diagonalization with overlap
     ethr =  5.64E-10,  avg # of iterations =  3.0

     total cpu time spent up to now is      243.7 secs

     total energy              =    -329.49240677 Ry
     Harris-Foulkes estimate   =    -329.49240684 Ry
     estimated scf accuracy    <       0.00000025 Ry

     iteration #  8     ecut=    30.00 Ry     beta=0.70
     Davidson diagonalization with overlap
     ethr =  4.60E-10,  avg # of iterations =  2.0

     total cpu time spent up to now is      244.0 secs

     total energy              =    -329.49240686 Ry
     Harris-Foulkes estimate   =    -329.49240683 Ry
     estimated scf accuracy    <       0.00000004 Ry

     iteration #  9     ecut=    30.00 Ry     beta=0.70
     Davidson diagonalization with overlap
     ethr =  7.20E-11,  avg # of iterations =  2.0

     total cpu time spent up to now is      244.2 secs

     total energy              =    -329.49240690 Ry
     Harris-Foulkes estimate   =    -329.49240687 Ry
     estimated scf accuracy    <          3.5E-09 Ry

     iteration # 10     ecut=    30.00 Ry     beta=0.70
     Davidson diagonalization with overlap
     ethr =  6.42E-12,  avg # of iterations =  2.0

     total cpu time spent up to now is      244.6 secs

     total energy              =    -329.49240689 Ry
     Harris-Foulkes estimate   =    -329.49240690 Ry
     estimated scf accuracy    <          5.2E-10 Ry

     iteration # 11     ecut=    30.00 Ry     beta=0.70
     Davidson diagonalization with overlap
     ethr =  9.43E-13,  avg # of iterations =  3.0

     total cpu time spent up to now is      244.8 secs

     End of self-consistent calculation

          k = 0.0000 0.0000 0.0000 ( 22119 PWs)   bands (ev):

    -8.5105  -7.7753  -7.6555  -7.2234  -6.8792  -6.8163  -6.5757  -6.4890
    -6.3009  -6.0771  -5.9498  -5.7634  -5.7201  -5.6819  -5.4542  -5.3609
    -5.3183  -5.2428  -5.2033  -5.1886  -5.1632  -5.1231  -5.0026  -4.9305
    -4.8778  -4.6917  -4.4975  -3.7815  -2.4648  -2.1985  -0.5425  -0.2003
     0.4959   0.8018

     the Fermi energy is    -3.7479 ev

!    total energy              =    -329.49240689 Ry
     Harris-Foulkes estimate   =    -329.49240689 Ry
     estimated scf accuracy    <          8.5E-11 Ry

     The total energy is the sum of the following terms:

     one-electron contribution =    -607.08103102 Ry
     hartree contribution      =     324.97230524 Ry
     xc contribution           =     -51.39748205 Ry
     ewald contribution        =       4.01833618 Ry
     smearing contrib. (-TS)   =      -0.00453524 Ry

     convergence has been achieved in  11 iterations

     Forces acting on atoms (Ry/au):

     atom    1 type  1   force =     0.00184920   -0.00003742    0.00088314
     atom    2 type  1   force =    -0.00044956    0.00070688   -0.00043267
     atom    3 type  1   force =    -0.00066576    0.00029331   -0.00203182
     atom    4 type  1   force =    -0.00154728   -0.00085846   -0.00180097
     atom    5 type  1   force =     0.00081339   -0.00010432    0.00338232

     Total force =     0.005314     Total SCF correction =     0.000042

     number of scf cycles    =  50
     number of bfgs steps    =  49

     energy   old            =    -329.4923208861 Ry
     energy   new            =    -329.4924068887 Ry

     CASE: energy  _new < energy  _old

     new trust radius        =       0.0387847344 bohr
     new conv_thr            =            1.0E-10 Ry


ATOMIC_POSITIONS (bohr)
Au      -1.962417815   2.565819725  -0.829233757
Au      -0.556752901   4.103189860   3.918886737
Au       2.795956955   1.612990489   0.636075439
Au       4.244782350   3.316754852   5.722993562
Au       7.460988412   0.970588075   2.437155020



     Writing output data file pwscf.save
     Check: negative starting charge=   -0.006381
     NEW-OLD atomic charge density approx. for the potential
     Check: negative starting charge=   -0.006381

     negative rho (up, down):  3.177E-04 0.000E+00

     Writing output data file pwscf.save
 
     init_run     :      0.34s CPU      0.38s WALL (       1 calls)
     electrons    :    215.67s CPU    228.35s WALL (      50 calls)
     update_pot   :      6.19s CPU      7.41s WALL (      50 calls)
     forces       :      3.09s CPU      3.15s WALL (      50 calls)

     Called by init_run:
     wfcinit      :      0.14s CPU      0.16s WALL (       1 calls)
     potinit      :      0.07s CPU      0.07s WALL (       1 calls)

     Called by electrons:
     c_bands      :    163.75s CPU    167.56s WALL (     523 calls)
     sum_band     :     19.76s CPU     20.30s WALL (     523 calls)
     v_of_rho     :     18.52s CPU     18.95s WALL (     566 calls)
     mix_rho      :      7.77s CPU     12.16s WALL (     523 calls)

     Called by c_bands:
     init_us_2    :      1.59s CPU      1.65s WALL (    1047 calls)
     cegterg      :    152.25s CPU    155.69s WALL (     523 calls)

     Called by sum_band:

     Called by *egterg:
     h_psi        :    112.25s CPU    114.62s WALL (    1968 calls)
     g_psi        :      0.63s CPU      0.62s WALL (    1444 calls)
     cdiaghg      :     10.87s CPU     11.15s WALL (    1910 calls)

     Called by h_psi:
     h_psi:pot    :    111.35s CPU    113.71s WALL (    1968 calls)
     h_psi:calbec :     11.67s CPU     12.01s WALL (    1968 calls)
     vloc_psi     :     95.79s CPU     97.79s WALL (    1968 calls)
     add_vuspsi   :      3.88s CPU      3.89s WALL (    1968 calls)

     General routines
     calbec       :     12.57s CPU     12.93s WALL (    2168 calls)
     fft          :     14.05s CPU     14.48s WALL (    6342 calls)
     fftw         :    104.36s CPU    106.99s WALL (  118994 calls)
     davcio       :      0.68s CPU      3.94s WALL (    5654 calls)
 
     Parallel routines
     fft_scatter  :     70.49s CPU     72.40s WALL (  125336 calls)
 
     PWSCF        :  3m48.42s CPU     4m 5.23s WALL

 
   This run was terminated on:   1:37:43  29Jul2017            

=------------------------------------------------------------------------------=
   JOB DONE.
=------------------------------------------------------------------------------=
