
     Program PWSCF v.6.0 (svn rev. 13079) starts on 29Jul2017 at  0:39:54 

     This program is part of the open-source Quantum ESPRESSO suite
     for quantum simulation of materials; please cite
         "P. Giannozzi et al., J. Phys.:Condens. Matter 21 395502 (2009);
          URL http://www.quantum-espresso.org", 
     in publications or presentations arising from this work. More details at
     http://www.quantum-espresso.org/quote

     Parallel version (MPI), running on    10 processors
     R & G space division:  proc/nbgrp/npool/nimage =      10
     Reading input from input/dftmin-Gold5-multi-1.in

     Current dimensions of program PWSCF are:
     Max number of different atomic species (ntypx) = 10
     Max number of k-points (npk) =  40000
     Max angular momentum in pseudopotentials (lmaxx) =  3
     Message from routine iosys:
     pot_extrapolation='second-order' not available, using 'atomic'
     Message from routine iosys:
     wfc_extrapolation='second-order' not available, using 'atomic'

     Subspace diagonalization in iterative solution of the eigenvalue problem:
     a serial algorithm will be used

 
     Parallelization info
     --------------------
     sticks:   dense  smooth     PW     G-vecs:    dense   smooth      PW
     Min         380     380     94                17748    17748    2208
     Max         381     381     95                17753    17753    2213
     Sum        3809    3809    949               177509   177509   22119
 


     bravais-lattice index     =            1
     lattice parameter (alat)  =      20.0000  a.u.
     unit-cell volume          =    8000.0000 (a.u.)^3
     number of atoms/cell      =            5
     number of atomic types    =            1
     number of electrons       =        55.00
     number of Kohn-Sham states=           34
     kinetic-energy cutoff     =      30.0000  Ry
     charge density cutoff     =     120.0000  Ry
     convergence threshold     =      1.0E-08
     mixing beta               =       0.7000
     number of iterations used =            8  plain     mixing
     Exchange-correlation      = BLYP ( 1  3  1  3 0 0)
     nstep                     =           50


     celldm(1)=  20.000000  celldm(2)=   0.000000  celldm(3)=   0.000000
     celldm(4)=   0.000000  celldm(5)=   0.000000  celldm(6)=   0.000000

     crystal axes: (cart. coord. in units of alat)
               a(1) = (   1.000000   0.000000   0.000000 )  
               a(2) = (   0.000000   1.000000   0.000000 )  
               a(3) = (   0.000000   0.000000   1.000000 )  

     reciprocal axes: (cart. coord. in units 2 pi/alat)
               b(1) = (  1.000000  0.000000  0.000000 )  
               b(2) = (  0.000000  1.000000  0.000000 )  
               b(3) = (  0.000000  0.000000  1.000000 )  


     PseudoPot. # 1 for Au read from file:
     ./Au.blyp-d-hgh.UPF
     MD5 check sum: c10d8bae01f806c36a1643a1c69a8479
     Pseudo is Norm-conserving, Zval = 11.0
     Generated in analytical, separable form
     Using radial grid of 1279 points,  6 beta functions with: 
                l(1) =   0
                l(2) =   0
                l(3) =   1
                l(4) =   1
                l(5) =   2
                l(6) =   2

     atomic species   valence    mass     pseudopotential
        Au            11.00    28.08600     Au( 1.00)

     No symmetry found



   Cartesian axes

     site n.     atom                  positions (alat units)
         1           Au  tau(   1) = (  -0.1042731   0.0607004  -0.0356911  )
         2           Au  tau(   2) = (   0.0068497   0.1317178   0.1939196  )
         3           Au  tau(   3) = (   0.1403745   0.0837709  -0.0101017  )
         4           Au  tau(   4) = (   0.2141566   0.2548834   0.2859910  )
         5           Au  tau(   5) = (   0.3261299   0.0633059   0.1445198  )

     number of k points=     1  Marzari-Vanderbilt smearing, width (Ry)=  0.0250
                       cart. coord. in units 2pi/alat
        k(    1) = (   0.0000000   0.0000000   0.0000000), wk =   2.0000000

     Dense  grid:   177509 G-vectors     FFT dimensions: (  72,  72,  72)

     Estimated max dynamical RAM per process >      15.04Mb

     Estimated total allocated dynamical RAM >     150.39Mb

     Initial potential from superposition of free atoms
     Check: negative starting charge=   -0.006369

     starting charge   54.99940, renormalised to   55.00000

     negative rho (up, down):  6.369E-03 0.000E+00
     Starting wfc are   45 randomized atomic wfcs

     total cpu time spent up to now is        0.8 secs

     per-process dynamical memory:    41.0 Mb

     Self-consistent Calculation

     iteration #  1     ecut=    30.00 Ry     beta=0.70
     Davidson diagonalization with overlap
     ethr =  1.00E-02,  avg # of iterations =  3.0

     Threshold (ethr) on eigenvalues was too large:
     Diagonalizing with lowered threshold

     Davidson diagonalization with overlap
     ethr =  3.99E-04,  avg # of iterations =  7.0

     negative rho (up, down):  8.441E-04 0.000E+00

     total cpu time spent up to now is        1.8 secs

     total energy              =    -329.35627656 Ry
     Harris-Foulkes estimate   =    -329.51989098 Ry
     estimated scf accuracy    <       0.27505769 Ry

     iteration #  2     ecut=    30.00 Ry     beta=0.70
     Davidson diagonalization with overlap
     ethr =  5.00E-04,  avg # of iterations =  3.0

     negative rho (up, down):  3.274E-04 0.000E+00

     total cpu time spent up to now is        2.3 secs

     total energy              =    -329.42382666 Ry
     Harris-Foulkes estimate   =    -329.51556259 Ry
     estimated scf accuracy    <       0.17866289 Ry

     iteration #  3     ecut=    30.00 Ry     beta=0.70
     Davidson diagonalization with overlap
     ethr =  3.25E-04,  avg # of iterations =  2.0

     negative rho (up, down):  1.163E-04 0.000E+00

     total cpu time spent up to now is        2.9 secs

     total energy              =    -329.45801162 Ry
     Harris-Foulkes estimate   =    -329.46716333 Ry
     estimated scf accuracy    <       0.02040373 Ry

     iteration #  4     ecut=    30.00 Ry     beta=0.70
     Davidson diagonalization with overlap
     ethr =  3.71E-05,  avg # of iterations =  3.0

     negative rho (up, down):  8.022E-06 0.000E+00

     total cpu time spent up to now is        3.4 secs

     total energy              =    -329.46174409 Ry
     Harris-Foulkes estimate   =    -329.46465714 Ry
     estimated scf accuracy    <       0.00814511 Ry

     iteration #  5     ecut=    30.00 Ry     beta=0.70
     Davidson diagonalization with overlap
     ethr =  1.48E-05,  avg # of iterations =  3.0

     total cpu time spent up to now is        3.9 secs

     total energy              =    -329.46291744 Ry
     Harris-Foulkes estimate   =    -329.46462757 Ry
     estimated scf accuracy    <       0.00619954 Ry

     iteration #  6     ecut=    30.00 Ry     beta=0.70
     Davidson diagonalization with overlap
     ethr =  1.13E-05,  avg # of iterations =  2.0

     total cpu time spent up to now is        4.4 secs

     total energy              =    -329.46367460 Ry
     Harris-Foulkes estimate   =    -329.46378073 Ry
     estimated scf accuracy    <       0.00024521 Ry

     iteration #  7     ecut=    30.00 Ry     beta=0.70
     Davidson diagonalization with overlap
     ethr =  4.46E-07,  avg # of iterations =  3.0

     total cpu time spent up to now is        4.9 secs

     total energy              =    -329.46374841 Ry
     Harris-Foulkes estimate   =    -329.46375517 Ry
     estimated scf accuracy    <       0.00001747 Ry

     iteration #  8     ecut=    30.00 Ry     beta=0.70
     Davidson diagonalization with overlap
     ethr =  3.18E-08,  avg # of iterations =  2.0

     total cpu time spent up to now is        5.4 secs

     total energy              =    -329.46375107 Ry
     Harris-Foulkes estimate   =    -329.46375441 Ry
     estimated scf accuracy    <       0.00000644 Ry

     iteration #  9     ecut=    30.00 Ry     beta=0.70
     Davidson diagonalization with overlap
     ethr =  1.17E-08,  avg # of iterations =  2.0

     total cpu time spent up to now is        6.0 secs

     total energy              =    -329.46375204 Ry
     Harris-Foulkes estimate   =    -329.46375243 Ry
     estimated scf accuracy    <       0.00000030 Ry

     iteration # 10     ecut=    30.00 Ry     beta=0.70
     Davidson diagonalization with overlap
     ethr =  5.53E-10,  avg # of iterations =  2.0

     total cpu time spent up to now is        6.5 secs

     total energy              =    -329.46375206 Ry
     Harris-Foulkes estimate   =    -329.46375213 Ry
     estimated scf accuracy    <       0.00000007 Ry

     iteration # 11     ecut=    30.00 Ry     beta=0.70
     Davidson diagonalization with overlap
     ethr =  1.29E-10,  avg # of iterations =  2.0

     total cpu time spent up to now is        7.0 secs

     End of self-consistent calculation

          k = 0.0000 0.0000 0.0000 ( 22119 PWs)   bands (ev):

    -8.4350  -7.8551  -7.7162  -7.3197  -6.9285  -6.8717  -6.6973  -6.4535
    -6.2556  -5.9756  -5.8324  -5.7844  -5.7029  -5.5687  -5.5368  -5.4800
    -5.2349  -5.1899  -5.1641  -5.1359  -5.1214  -5.0170  -4.9553  -4.8836
    -4.8035  -4.5577  -4.3079  -3.6870  -2.4999  -2.1689  -0.3737  -0.1423
     0.3693   0.5037

     the Fermi energy is    -3.6675 ev

!    total energy              =    -329.46375206 Ry
     Harris-Foulkes estimate   =    -329.46375208 Ry
     estimated scf accuracy    <          9.4E-09 Ry

     The total energy is the sum of the following terms:

     one-electron contribution =    -610.59072279 Ry
     hartree contribution      =     326.80551200 Ry
     xc contribution           =     -51.43569546 Ry
     ewald contribution        =       5.75870064 Ry
     smearing contrib. (-TS)   =      -0.00154645 Ry

     convergence has been achieved in  11 iterations

     Forces acting on atoms (Ry/au):

     atom    1 type  1   force =    -0.01960189   -0.00030666    0.00365935
     atom    2 type  1   force =    -0.01483371    0.01276214    0.01345465
     atom    3 type  1   force =     0.00652967   -0.00698419   -0.04169377
     atom    4 type  1   force =    -0.00270539   -0.01485702   -0.00186638
     atom    5 type  1   force =     0.03061132    0.00938573    0.02644615

     Total force =     0.068902     Total SCF correction =     0.000367

     BFGS Geometry Optimization

     number of scf cycles    =   1
     number of bfgs steps    =   0

     energy   new            =    -329.4637520570 Ry

     new trust radius        =       0.0427759996 bohr
     new conv_thr            =       0.0000000100 Ry


ATOMIC_POSITIONS (bohr)
Au      -2.105062894   1.213700344  -0.710161647
Au       0.122161288   2.647119136   3.891846652
Au       2.814019672   1.668433811  -0.243727772
Au       4.280426612   5.082809976   5.717953622
Au       6.553209321   1.275504732   2.916842146



     Writing output data file pwscf.save
     Check: negative starting charge=   -0.006369
     NEW-OLD atomic charge density approx. for the potential
     Check: negative starting charge=   -0.006334

     negative rho (up, down):  4.055E-04 0.000E+00

     total cpu time spent up to now is        7.4 secs

     per-process dynamical memory:    42.9 Mb

     Self-consistent Calculation

     iteration #  1     ecut=    30.00 Ry     beta=0.70
     Davidson diagonalization with overlap
     ethr =  1.00E-06,  avg # of iterations =  5.0

     negative rho (up, down):  1.427E-05 0.000E+00

     total cpu time spent up to now is        8.3 secs

     total energy              =    -329.46760135 Ry
     Harris-Foulkes estimate   =    -329.46754869 Ry
     estimated scf accuracy    <       0.00038054 Ry

     iteration #  2     ecut=    30.00 Ry     beta=0.70
     Davidson diagonalization with overlap
     ethr =  6.92E-07,  avg # of iterations =  4.0

     negative rho (up, down):  6.209E-06 0.000E+00

     total cpu time spent up to now is        8.9 secs

     total energy              =    -329.46741354 Ry
     Harris-Foulkes estimate   =    -329.46807128 Ry
     estimated scf accuracy    <       0.00212753 Ry

     iteration #  3     ecut=    30.00 Ry     beta=0.70
     Davidson diagonalization with overlap
     ethr =  6.92E-07,  avg # of iterations =  3.0

     negative rho (up, down):  1.576E-07 0.000E+00

     total cpu time spent up to now is        9.4 secs

     total energy              =    -329.46775387 Ry
     Harris-Foulkes estimate   =    -329.46778935 Ry
     estimated scf accuracy    <       0.00014181 Ry

     iteration #  4     ecut=    30.00 Ry     beta=0.70
     Davidson diagonalization with overlap
     ethr =  2.58E-07,  avg # of iterations =  2.0

     total cpu time spent up to now is        9.9 secs

     total energy              =    -329.46777572 Ry
     Harris-Foulkes estimate   =    -329.46778325 Ry
     estimated scf accuracy    <       0.00002355 Ry

     iteration #  5     ecut=    30.00 Ry     beta=0.70
     Davidson diagonalization with overlap
     ethr =  4.28E-08,  avg # of iterations =  2.0

     total cpu time spent up to now is       10.4 secs

     total energy              =    -329.46778096 Ry
     Harris-Foulkes estimate   =    -329.46778282 Ry
     estimated scf accuracy    <       0.00000486 Ry

     iteration #  6     ecut=    30.00 Ry     beta=0.70
     Davidson diagonalization with overlap
     ethr =  8.84E-09,  avg # of iterations =  2.0

     total cpu time spent up to now is       10.8 secs

     total energy              =    -329.46778188 Ry
     Harris-Foulkes estimate   =    -329.46778197 Ry
     estimated scf accuracy    <       0.00000015 Ry

     iteration #  7     ecut=    30.00 Ry     beta=0.70
     Davidson diagonalization with overlap
     ethr =  2.78E-10,  avg # of iterations =  3.0

     total cpu time spent up to now is       11.3 secs

     total energy              =    -329.46778187 Ry
     Harris-Foulkes estimate   =    -329.46778195 Ry
     estimated scf accuracy    <       0.00000005 Ry

     iteration #  8     ecut=    30.00 Ry     beta=0.70
     Davidson diagonalization with overlap
     ethr =  8.81E-11,  avg # of iterations =  2.0

     total cpu time spent up to now is       11.8 secs

     End of self-consistent calculation

          k = 0.0000 0.0000 0.0000 ( 22119 PWs)   bands (ev):

    -8.3492  -7.7675  -7.6460  -7.2935  -6.9321  -6.8113  -6.6447  -6.4528
    -6.2653  -5.9719  -5.8373  -5.7669  -5.6928  -5.5574  -5.5412  -5.4850
    -5.2370  -5.1888  -5.1655  -5.1387  -5.1286  -5.0214  -4.9616  -4.8985
    -4.8169  -4.5617  -4.3339  -3.6934  -2.5079  -2.2031  -0.3725  -0.1495
     0.3683   0.4882

     the Fermi energy is    -3.6708 ev

!    total energy              =    -329.46778177 Ry
     Harris-Foulkes estimate   =    -329.46778188 Ry
     estimated scf accuracy    <          6.3E-09 Ry

     The total energy is the sum of the following terms:

     one-electron contribution =    -607.50456172 Ry
     hartree contribution      =     325.27465343 Ry
     xc contribution           =     -51.41954024 Ry
     ewald contribution        =       4.18379907 Ry
     smearing contrib. (-TS)   =      -0.00213232 Ry

     convergence has been achieved in   8 iterations

     Forces acting on atoms (Ry/au):

     atom    1 type  1   force =    -0.01524218    0.00036737    0.00559883
     atom    2 type  1   force =    -0.01132826    0.01066320    0.00466720
     atom    3 type  1   force =     0.00859935   -0.00664619   -0.02695244
     atom    4 type  1   force =    -0.00274900   -0.01451633   -0.00166771
     atom    5 type  1   force =     0.02072008    0.01013195    0.01835412

     Total force =     0.049619     Total SCF correction =     0.000407

     number of scf cycles    =   2
     number of bfgs steps    =   1

     energy   old            =    -329.4637520570 Ry
     energy   new            =    -329.4677817725 Ry

     CASE: energy  _new < energy  _old

     new trust radius        =       0.0470535996 bohr
     new conv_thr            =       0.0000000027 Ry


ATOMIC_POSITIONS (bohr)
Au      -2.129225738   1.214206490  -0.701632486
Au       0.104177073   2.663930050   3.899974564
Au       2.827208732   1.658050786  -0.287142509
Au       4.276149930   5.060170710   5.715337099
Au       6.586444004   1.291209964   2.946216332



     Writing output data file pwscf.save
     Check: negative starting charge=   -0.006334
     NEW-OLD atomic charge density approx. for the potential
     Check: negative starting charge=   -0.006303

     negative rho (up, down):  5.387E-04 0.000E+00

     total cpu time spent up to now is       12.3 secs

     per-process dynamical memory:    50.7 Mb

     Self-consistent Calculation

     iteration #  1     ecut=    30.00 Ry     beta=0.70
     Davidson diagonalization with overlap
     ethr =  1.00E-06,  avg # of iterations =  5.0

     negative rho (up, down):  2.329E-05 0.000E+00

     total cpu time spent up to now is       13.2 secs

     total energy              =    -329.47083227 Ry
     Harris-Foulkes estimate   =    -329.47070140 Ry
     estimated scf accuracy    <       0.00050422 Ry

     iteration #  2     ecut=    30.00 Ry     beta=0.70
     Davidson diagonalization with overlap
     ethr =  9.17E-07,  avg # of iterations =  4.0

     negative rho (up, down):  1.037E-05 0.000E+00

     total cpu time spent up to now is       13.8 secs

     total energy              =    -329.47060864 Ry
     Harris-Foulkes estimate   =    -329.47142467 Ry
     estimated scf accuracy    <       0.00255644 Ry

     iteration #  3     ecut=    30.00 Ry     beta=0.70
     Davidson diagonalization with overlap
     ethr =  9.17E-07,  avg # of iterations =  3.0

     negative rho (up, down):  3.755E-07 0.000E+00

     total cpu time spent up to now is       14.4 secs

     total energy              =    -329.47102910 Ry
     Harris-Foulkes estimate   =    -329.47108150 Ry
     estimated scf accuracy    <       0.00019879 Ry

     iteration #  4     ecut=    30.00 Ry     beta=0.70
     Davidson diagonalization with overlap
     ethr =  3.61E-07,  avg # of iterations =  2.0

     total cpu time spent up to now is       14.8 secs

     total energy              =    -329.47105994 Ry
     Harris-Foulkes estimate   =    -329.47106775 Ry
     estimated scf accuracy    <       0.00002490 Ry

     iteration #  5     ecut=    30.00 Ry     beta=0.70
     Davidson diagonalization with overlap
     ethr =  4.53E-08,  avg # of iterations =  2.0

     total cpu time spent up to now is       15.3 secs

     total energy              =    -329.47106607 Ry
     Harris-Foulkes estimate   =    -329.47106864 Ry
     estimated scf accuracy    <       0.00000772 Ry

     iteration #  6     ecut=    30.00 Ry     beta=0.70
     Davidson diagonalization with overlap
     ethr =  1.40E-08,  avg # of iterations =  2.0

     total cpu time spent up to now is       15.7 secs

     total energy              =    -329.47106763 Ry
     Harris-Foulkes estimate   =    -329.47106760 Ry
     estimated scf accuracy    <       0.00000025 Ry

     iteration #  7     ecut=    30.00 Ry     beta=0.70
     Davidson diagonalization with overlap
     ethr =  4.48E-10,  avg # of iterations =  3.0

     total cpu time spent up to now is       16.3 secs

     total energy              =    -329.47106764 Ry
     Harris-Foulkes estimate   =    -329.47106772 Ry
     estimated scf accuracy    <       0.00000006 Ry

     iteration #  8     ecut=    30.00 Ry     beta=0.70
     Davidson diagonalization with overlap
     ethr =  1.15E-10,  avg # of iterations =  2.0

     total cpu time spent up to now is       16.8 secs

     total energy              =    -329.47106763 Ry
     Harris-Foulkes estimate   =    -329.47106766 Ry
     estimated scf accuracy    <       0.00000001 Ry

     iteration #  9     ecut=    30.00 Ry     beta=0.70
     Davidson diagonalization with overlap
     ethr =  2.02E-11,  avg # of iterations =  2.0

     total cpu time spent up to now is       17.3 secs

     End of self-consistent calculation

          k = 0.0000 0.0000 0.0000 ( 22119 PWs)   bands (ev):

    -8.2613  -7.6857  -7.5797  -7.2719  -6.9497  -6.7478  -6.5905  -6.4568
    -6.2807  -5.9733  -5.8442  -5.7460  -5.6809  -5.5545  -5.5379  -5.4890
    -5.2381  -5.1877  -5.1664  -5.1417  -5.1342  -5.0229  -4.9666  -4.9132
    -4.8302  -4.5649  -4.3583  -3.6996  -2.5138  -2.2363  -0.3727  -0.1582
     0.3687   0.4743

     the Fermi energy is    -3.6744 ev

!    total energy              =    -329.47106768 Ry
     Harris-Foulkes estimate   =    -329.47106764 Ry
     estimated scf accuracy    <          1.4E-09 Ry

     The total energy is the sum of the following terms:

     one-electron contribution =    -604.56366452 Ry
     hartree contribution      =     323.81537461 Ry
     xc contribution           =     -51.40477450 Ry
     ewald contribution        =       2.68465397 Ry
     smearing contrib. (-TS)   =      -0.00265724 Ry

     convergence has been achieved in   9 iterations

     Forces acting on atoms (Ry/au):

     atom    1 type  1   force =    -0.00955985    0.00102620    0.00760074
     atom    2 type  1   force =    -0.00846575    0.00873983   -0.00279790
     atom    3 type  1   force =     0.00793287   -0.00662257   -0.01556282
     atom    4 type  1   force =    -0.00281254   -0.01340746   -0.00083155
     atom    5 type  1   force =     0.01290528    0.01026399    0.01159155

     Total force =     0.035351     Total SCF correction =     0.000159

     number of scf cycles    =   3
     number of bfgs steps    =   2

     energy   old            =    -329.4677817725 Ry
     energy   new            =    -329.4710676779 Ry

     CASE: energy  _new < energy  _old

     new trust radius        =       0.0705803994 bohr
     new conv_thr            =       0.0000000016 Ry


ATOMIC_POSITIONS (bohr)
Au      -2.163761592   1.216424984  -0.681701633
Au       0.075716291   2.691944968   3.901066760
Au       2.850575161   1.638494884  -0.347389177
Au       4.267963094   5.019678542   5.712061195
Au       6.634261046   1.321024621   2.988715855



     Writing output data file pwscf.save
     Check: negative starting charge=   -0.006303
     NEW-OLD atomic charge density approx. for the potential
     Check: negative starting charge=   -0.006278

     negative rho (up, down):  1.144E-03 0.000E+00

     total cpu time spent up to now is       17.8 secs

     per-process dynamical memory:    50.7 Mb

     Self-consistent Calculation

     iteration #  1     ecut=    30.00 Ry     beta=0.70
     Davidson diagonalization with overlap
     ethr =  1.00E-06,  avg # of iterations =  7.0

     negative rho (up, down):  8.064E-05 0.000E+00

     total cpu time spent up to now is       18.9 secs

     total energy              =    -329.47362442 Ry
     Harris-Foulkes estimate   =    -329.47307712 Ry
     estimated scf accuracy    <       0.00114930 Ry

     iteration #  2     ecut=    30.00 Ry     beta=0.70
     Davidson diagonalization with overlap
     ethr =  2.09E-06,  avg # of iterations =  5.0

     negative rho (up, down):  4.058E-05 0.000E+00

     total cpu time spent up to now is       19.5 secs

     total energy              =    -329.47319411 Ry
     Harris-Foulkes estimate   =    -329.47484745 Ry
     estimated scf accuracy    <       0.00492623 Ry

     iteration #  3     ecut=    30.00 Ry     beta=0.70
     Davidson diagonalization with overlap
     ethr =  2.09E-06,  avg # of iterations =  3.0

     negative rho (up, down):  3.441E-06 0.000E+00

     total cpu time spent up to now is       20.1 secs

     total energy              =    -329.47404186 Ry
     Harris-Foulkes estimate   =    -329.47418776 Ry
     estimated scf accuracy    <       0.00051907 Ry

     iteration #  4     ecut=    30.00 Ry     beta=0.70
     Davidson diagonalization with overlap
     ethr =  9.44E-07,  avg # of iterations =  2.0

     total cpu time spent up to now is       20.5 secs

     total energy              =    -329.47412110 Ry
     Harris-Foulkes estimate   =    -329.47413851 Ry
     estimated scf accuracy    <       0.00005295 Ry

     iteration #  5     ecut=    30.00 Ry     beta=0.70
     Davidson diagonalization with overlap
     ethr =  9.63E-08,  avg # of iterations =  3.0

     total cpu time spent up to now is       21.0 secs

     total energy              =    -329.47413373 Ry
     Harris-Foulkes estimate   =    -329.47414114 Ry
     estimated scf accuracy    <       0.00001989 Ry

     iteration #  6     ecut=    30.00 Ry     beta=0.70
     Davidson diagonalization with overlap
     ethr =  3.62E-08,  avg # of iterations =  2.0

     total cpu time spent up to now is       21.5 secs

     total energy              =    -329.47413716 Ry
     Harris-Foulkes estimate   =    -329.47413762 Ry
     estimated scf accuracy    <       0.00000065 Ry

     iteration #  7     ecut=    30.00 Ry     beta=0.70
     Davidson diagonalization with overlap
     ethr =  1.18E-09,  avg # of iterations =  3.0

     total cpu time spent up to now is       22.0 secs

     total energy              =    -329.47413721 Ry
     Harris-Foulkes estimate   =    -329.47413738 Ry
     estimated scf accuracy    <       0.00000013 Ry

     iteration #  8     ecut=    30.00 Ry     beta=0.70
     Davidson diagonalization with overlap
     ethr =  2.44E-10,  avg # of iterations =  2.0

     total cpu time spent up to now is       22.6 secs

     total energy              =    -329.47413724 Ry
     Harris-Foulkes estimate   =    -329.47413726 Ry
     estimated scf accuracy    <       0.00000003 Ry

     iteration #  9     ecut=    30.00 Ry     beta=0.70
     Davidson diagonalization with overlap
     ethr =  5.68E-11,  avg # of iterations =  2.0

     total cpu time spent up to now is       23.1 secs

     total energy              =    -329.47413723 Ry
     Harris-Foulkes estimate   =    -329.47413725 Ry
     estimated scf accuracy    <          4.5E-09 Ry

     iteration # 10     ecut=    30.00 Ry     beta=0.70
     Davidson diagonalization with overlap
     ethr =  8.26E-12,  avg # of iterations =  2.0

     total cpu time spent up to now is       23.6 secs

     End of self-consistent calculation

          k = 0.0000 0.0000 0.0000 ( 22119 PWs)   bands (ev):

    -8.1526  -7.5978  -7.4955  -7.2578  -6.9774  -6.6653  -6.5328  -6.4555
    -6.3089  -5.9825  -5.8582  -5.7174  -5.6613  -5.5651  -5.5292  -5.4909
    -5.2383  -5.1875  -5.1668  -5.1458  -5.1379  -5.0207  -4.9722  -4.9329
    -4.8469  -4.5686  -4.3884  -3.7063  -2.5221  -2.2739  -0.3755  -0.1706
     0.3697   0.4606

     the Fermi energy is    -3.6780 ev

!    total energy              =    -329.47413726 Ry
     Harris-Foulkes estimate   =    -329.47413723 Ry
     estimated scf accuracy    <          7.0E-10 Ry

     The total energy is the sum of the following terms:

     one-electron contribution =    -601.04304012 Ry
     hartree contribution      =     322.06683185 Ry
     xc contribution           =     -51.38841161 Ry
     ewald contribution        =       0.89379164 Ry
     smearing contrib. (-TS)   =      -0.00330901 Ry

     convergence has been achieved in  10 iterations

     Forces acting on atoms (Ry/au):

     atom    1 type  1   force =    -0.00129781    0.00158886    0.00941598
     atom    2 type  1   force =    -0.00486784    0.00610702   -0.01060571
     atom    3 type  1   force =     0.00426064   -0.00574899   -0.00200962
     atom    4 type  1   force =    -0.00278156   -0.01043067    0.00065465
     atom    5 type  1   force =     0.00468657    0.00848378    0.00254469

     Total force =     0.023216     Total SCF correction =     0.000099

     number of scf cycles    =   4
     number of bfgs steps    =   3

     energy   old            =    -329.4710676779 Ry
     energy   new            =    -329.4741372609 Ry

     CASE: energy  _new < energy  _old

     new trust radius        =       0.0660258473 bohr
     new conv_thr            =       0.0000000011 Ry


ATOMIC_POSITIONS (bohr)
Au      -2.191040032   1.220313917  -0.653196941
Au       0.047051529   2.721917202   3.887242688
Au       2.872874268   1.615624251  -0.396613964
Au       4.257774288   4.974666627   5.710819402
Au       6.678093946   1.355046003   3.024501815



     Writing output data file pwscf.save
     Check: negative starting charge=   -0.006278
     NEW-OLD atomic charge density approx. for the potential
     Check: negative starting charge=   -0.006256

     negative rho (up, down):  1.092E-03 0.000E+00

     total cpu time spent up to now is       24.1 secs

     per-process dynamical memory:    50.7 Mb

     Self-consistent Calculation

     iteration #  1     ecut=    30.00 Ry     beta=0.70
     Davidson diagonalization with overlap
     ethr =  1.00E-06,  avg # of iterations =  7.0

     negative rho (up, down):  7.387E-05 0.000E+00

     total cpu time spent up to now is       25.1 secs

     total energy              =    -329.47504375 Ry
     Harris-Foulkes estimate   =    -329.47449959 Ry
     estimated scf accuracy    <       0.00107264 Ry

     iteration #  2     ecut=    30.00 Ry     beta=0.70
     Davidson diagonalization with overlap
     ethr =  1.95E-06,  avg # of iterations =  5.0

     negative rho (up, down):  3.370E-05 0.000E+00

     total cpu time spent up to now is       25.7 secs

     total energy              =    -329.47475482 Ry
     Harris-Foulkes estimate   =    -329.47604923 Ry
     estimated scf accuracy    <       0.00358188 Ry

     iteration #  3     ecut=    30.00 Ry     beta=0.70
     Davidson diagonalization with overlap
     ethr =  1.95E-06,  avg # of iterations =  3.0

     negative rho (up, down):  3.526E-06 0.000E+00

     total cpu time spent up to now is       26.3 secs

     total energy              =    -329.47540138 Ry
     Harris-Foulkes estimate   =    -329.47557151 Ry
     estimated scf accuracy    <       0.00058221 Ry

     iteration #  4     ecut=    30.00 Ry     beta=0.70
     Davidson diagonalization with overlap
     ethr =  1.06E-06,  avg # of iterations =  1.0

     total cpu time spent up to now is       26.7 secs

     total energy              =    -329.47549200 Ry
     Harris-Foulkes estimate   =    -329.47550550 Ry
     estimated scf accuracy    <       0.00004427 Ry

     iteration #  5     ecut=    30.00 Ry     beta=0.70
     Davidson diagonalization with overlap
     ethr =  8.05E-08,  avg # of iterations =  3.0

     total cpu time spent up to now is       27.2 secs

     total energy              =    -329.47550315 Ry
     Harris-Foulkes estimate   =    -329.47551141 Ry
     estimated scf accuracy    <       0.00002232 Ry

     iteration #  6     ecut=    30.00 Ry     beta=0.70
     Davidson diagonalization with overlap
     ethr =  4.06E-08,  avg # of iterations =  2.0

     total cpu time spent up to now is       27.6 secs

     total energy              =    -329.47550702 Ry
     Harris-Foulkes estimate   =    -329.47550735 Ry
     estimated scf accuracy    <       0.00000084 Ry

     iteration #  7     ecut=    30.00 Ry     beta=0.70
     Davidson diagonalization with overlap
     ethr =  1.52E-09,  avg # of iterations =  3.0

     total cpu time spent up to now is       28.1 secs

     total energy              =    -329.47550723 Ry
     Harris-Foulkes estimate   =    -329.47550727 Ry
     estimated scf accuracy    <       0.00000015 Ry

     iteration #  8     ecut=    30.00 Ry     beta=0.70
     Davidson diagonalization with overlap
     ethr =  2.70E-10,  avg # of iterations =  3.0

     total cpu time spent up to now is       28.6 secs

     total energy              =    -329.47550714 Ry
     Harris-Foulkes estimate   =    -329.47550729 Ry
     estimated scf accuracy    <       0.00000005 Ry

     iteration #  9     ecut=    30.00 Ry     beta=0.70
     Davidson diagonalization with overlap
     ethr =  9.33E-11,  avg # of iterations =  2.0

     total cpu time spent up to now is       29.1 secs

     total energy              =    -329.47550714 Ry
     Harris-Foulkes estimate   =    -329.47550716 Ry
     estimated scf accuracy    <       0.00000001 Ry

     iteration # 10     ecut=    30.00 Ry     beta=0.70
     Davidson diagonalization with overlap
     ethr =  2.06E-11,  avg # of iterations =  2.0

     total cpu time spent up to now is       29.6 secs

     total energy              =    -329.47550716 Ry
     Harris-Foulkes estimate   =    -329.47550715 Ry
     estimated scf accuracy    <          1.5E-09 Ry

     iteration # 11     ecut=    30.00 Ry     beta=0.70
     Davidson diagonalization with overlap
     ethr =  2.77E-12,  avg # of iterations =  2.0

     total cpu time spent up to now is       30.1 secs

     End of self-consistent calculation

          k = 0.0000 0.0000 0.0000 ( 22119 PWs)   bands (ev):

    -8.0850  -7.5525  -7.4376  -7.2675  -6.9940  -6.6057  -6.5214  -6.4281
    -6.3411  -5.9977  -5.8763  -5.6964  -5.6428  -5.5826  -5.5320  -5.4868
    -5.2371  -5.1892  -5.1679  -5.1468  -5.1367  -5.0151  -4.9769  -4.9476
    -4.8587  -4.5725  -4.4084  -3.7088  -2.5318  -2.2905  -0.3815  -0.1814
     0.3702   0.4574

     the Fermi energy is    -3.6782 ev

!    total energy              =    -329.47550717 Ry
     Harris-Foulkes estimate   =    -329.47550716 Ry
     estimated scf accuracy    <          1.1E-10 Ry

     The total energy is the sum of the following terms:

     one-electron contribution =    -598.87262752 Ry
     hartree contribution      =     320.98616363 Ry
     xc contribution           =     -51.37916307 Ry
     ewald contribution        =      -0.20607581 Ry
     smearing contrib. (-TS)   =      -0.00380440 Ry

     convergence has been achieved in  11 iterations

     Forces acting on atoms (Ry/au):

     atom    1 type  1   force =     0.00389953    0.00216130    0.01017187
     atom    2 type  1   force =    -0.00168257    0.00341826   -0.01348548
     atom    3 type  1   force =     0.00222704   -0.00456542    0.00579152
     atom    4 type  1   force =    -0.00385896   -0.00578906    0.00310439
     atom    5 type  1   force =    -0.00058504    0.00477493   -0.00558229

     Total force =     0.022168     Total SCF correction =     0.000045

     number of scf cycles    =   5
     number of bfgs steps    =   4

     energy   old            =    -329.4741372609 Ry
     energy   new            =    -329.4755071722 Ry

     CASE: energy  _new < energy  _old

     new trust radius        =       0.0313215509 bohr
     new conv_thr            =       0.0000000013 Ry


ATOMIC_POSITIONS (bohr)
Au      -2.199704480   1.224578924  -0.628503737
Au       0.031501083   2.739864225   3.866917561
Au       2.885410789   1.599845126  -0.415002490
Au       4.248289647   4.947726934   5.714226741
Au       6.699256960   1.375552790   3.035114925



     Writing output data file pwscf.save
     Check: negative starting charge=   -0.006256
     NEW-OLD atomic charge density approx. for the potential
     Check: negative starting charge=   -0.006244

     negative rho (up, down):  3.851E-04 0.000E+00

     total cpu time spent up to now is       30.5 secs

     per-process dynamical memory:    50.7 Mb

     Self-consistent Calculation

     iteration #  1     ecut=    30.00 Ry     beta=0.70
     Davidson diagonalization with overlap
     ethr =  1.00E-06,  avg # of iterations =  4.0

     negative rho (up, down):  1.247E-05 0.000E+00

     total cpu time spent up to now is       31.4 secs

     total energy              =    -329.47605655 Ry
     Harris-Foulkes estimate   =    -329.47601640 Ry
     estimated scf accuracy    <       0.00034267 Ry

     iteration #  2     ecut=    30.00 Ry     beta=0.70
     Davidson diagonalization with overlap
     ethr =  6.23E-07,  avg # of iterations =  3.0

     negative rho (up, down):  3.223E-06 0.000E+00

     total cpu time spent up to now is       32.0 secs

     total energy              =    -329.47602400 Ry
     Harris-Foulkes estimate   =    -329.47631897 Ry
     estimated scf accuracy    <       0.00071941 Ry

     iteration #  3     ecut=    30.00 Ry     beta=0.70
     Davidson diagonalization with overlap
     ethr =  6.23E-07,  avg # of iterations =  3.0

     negative rho (up, down):  2.035E-07 0.000E+00

     total cpu time spent up to now is       32.5 secs

     total energy              =    -329.47615556 Ry
     Harris-Foulkes estimate   =    -329.47622513 Ry
     estimated scf accuracy    <       0.00022388 Ry

     iteration #  4     ecut=    30.00 Ry     beta=0.70
     Davidson diagonalization with overlap
     ethr =  4.07E-07,  avg # of iterations =  1.0

     total cpu time spent up to now is       32.9 secs

     total energy              =    -329.47619109 Ry
     Harris-Foulkes estimate   =    -329.47619582 Ry
     estimated scf accuracy    <       0.00001499 Ry

     iteration #  5     ecut=    30.00 Ry     beta=0.70
     Davidson diagonalization with overlap
     ethr =  2.73E-08,  avg # of iterations =  3.0

     total cpu time spent up to now is       33.4 secs

     total energy              =    -329.47619394 Ry
     Harris-Foulkes estimate   =    -329.47619783 Ry
     estimated scf accuracy    <       0.00000920 Ry

     iteration #  6     ecut=    30.00 Ry     beta=0.70
     Davidson diagonalization with overlap
     ethr =  1.67E-08,  avg # of iterations =  2.0

     total cpu time spent up to now is       33.9 secs

     total energy              =    -329.47619554 Ry
     Harris-Foulkes estimate   =    -329.47619553 Ry
     estimated scf accuracy    <       0.00000031 Ry

     iteration #  7     ecut=    30.00 Ry     beta=0.70
     Davidson diagonalization with overlap
     ethr =  5.60E-10,  avg # of iterations =  3.0

     total cpu time spent up to now is       34.4 secs

     total energy              =    -329.47619545 Ry
     Harris-Foulkes estimate   =    -329.47619564 Ry
     estimated scf accuracy    <       0.00000005 Ry

     iteration #  8     ecut=    30.00 Ry     beta=0.70
     Davidson diagonalization with overlap
     ethr =  8.99E-11,  avg # of iterations =  3.0

     total cpu time spent up to now is       34.9 secs

     total energy              =    -329.47619545 Ry
     Harris-Foulkes estimate   =    -329.47619547 Ry
     estimated scf accuracy    <       0.00000002 Ry

     iteration #  9     ecut=    30.00 Ry     beta=0.70
     Davidson diagonalization with overlap
     ethr =  3.29E-11,  avg # of iterations =  2.0

     total cpu time spent up to now is       35.4 secs

     total energy              =    -329.47619539 Ry
     Harris-Foulkes estimate   =    -329.47619545 Ry
     estimated scf accuracy    <          3.9E-09 Ry

     iteration # 10     ecut=    30.00 Ry     beta=0.70
     Davidson diagonalization with overlap
     ethr =  7.03E-12,  avg # of iterations =  2.0

     total cpu time spent up to now is       35.9 secs

     End of self-consistent calculation

          k = 0.0000 0.0000 0.0000 ( 22119 PWs)   bands (ev):

    -8.0768  -7.5446  -7.4310  -7.2784  -7.0012  -6.5911  -6.5218  -6.4157
    -6.3587  -6.0091  -5.8893  -5.6903  -5.6355  -5.5973  -5.5373  -5.4855
    -5.2353  -5.1913  -5.1696  -5.1444  -5.1334  -5.0097  -4.9785  -4.9508
    -4.8613  -4.5739  -4.4108  -3.7091  -2.5333  -2.2867  -0.3873  -0.1871
     0.3728   0.4629

     the Fermi energy is    -3.6783 ev

!    total energy              =    -329.47619540 Ry
     Harris-Foulkes estimate   =    -329.47619539 Ry
     estimated scf accuracy    <          5.8E-10 Ry

     The total energy is the sum of the following terms:

     one-electron contribution =    -598.68521908 Ry
     hartree contribution      =     320.89098399 Ry
     xc contribution           =     -51.37888070 Ry
     ewald contribution        =      -0.29921076 Ry
     smearing contrib. (-TS)   =      -0.00386886 Ry

     convergence has been achieved in  10 iterations

     Forces acting on atoms (Ry/au):

     atom    1 type  1   force =     0.00464748    0.00179227    0.00892862
     atom    2 type  1   force =    -0.00047129    0.00269501   -0.01302378
     atom    3 type  1   force =     0.00175362   -0.00439219    0.00746111
     atom    4 type  1   force =    -0.00446126   -0.00359037    0.00449885
     atom    5 type  1   force =    -0.00146855    0.00349527   -0.00786480

     Total force =     0.022112     Total SCF correction =     0.000088

     number of scf cycles    =   6
     number of bfgs steps    =   5

     energy   old            =    -329.4755071722 Ry
     energy   new            =    -329.4761954031 Ry

     CASE: energy  _new < energy  _old

     new trust radius        =       0.0344537060 bohr
     new conv_thr            =       0.0000000007 Ry


ATOMIC_POSITIONS (bohr)
Au      -2.204386134   1.229342158  -0.601193543
Au       0.017544221   2.757603779   3.840887346
Au       2.897441505   1.582804333  -0.426820113
Au       4.236530895   4.922165341   5.720931301
Au       6.717623513   1.395652389   3.038948009



     Writing output data file pwscf.save
     Check: negative starting charge=   -0.006244
     NEW-OLD atomic charge density approx. for the potential
     Check: negative starting charge=   -0.006232

     negative rho (up, down):  3.831E-04 0.000E+00

     total cpu time spent up to now is       36.4 secs

     per-process dynamical memory:    50.7 Mb

     Self-consistent Calculation

     iteration #  1     ecut=    30.00 Ry     beta=0.70
     Davidson diagonalization with overlap
     ethr =  1.00E-06,  avg # of iterations =  4.0

     negative rho (up, down):  1.231E-05 0.000E+00

     total cpu time spent up to now is       37.2 secs

     total energy              =    -329.47678717 Ry
     Harris-Foulkes estimate   =    -329.47674613 Ry
     estimated scf accuracy    <       0.00033450 Ry

     iteration #  2     ecut=    30.00 Ry     beta=0.70
     Davidson diagonalization with overlap
     ethr =  6.08E-07,  avg # of iterations =  3.0

     negative rho (up, down):  2.496E-06 0.000E+00

     total cpu time spent up to now is       37.7 secs

     total energy              =    -329.47679194 Ry
     Harris-Foulkes estimate   =    -329.47701142 Ry
     estimated scf accuracy    <       0.00049537 Ry

     iteration #  3     ecut=    30.00 Ry     beta=0.70
     Davidson diagonalization with overlap
     ethr =  6.08E-07,  avg # of iterations =  2.0

     negative rho (up, down):  2.046E-07 0.000E+00

     total cpu time spent up to now is       38.2 secs

     total energy              =    -329.47688038 Ry
     Harris-Foulkes estimate   =    -329.47694453 Ry
     estimated scf accuracy    <       0.00019845 Ry

     iteration #  4     ecut=    30.00 Ry     beta=0.70
     Davidson diagonalization with overlap
     ethr =  3.61E-07,  avg # of iterations =  1.0

     total cpu time spent up to now is       38.7 secs

     total energy              =    -329.47691237 Ry
     Harris-Foulkes estimate   =    -329.47691939 Ry
     estimated scf accuracy    <       0.00001827 Ry

     iteration #  5     ecut=    30.00 Ry     beta=0.70
     Davidson diagonalization with overlap
     ethr =  3.32E-08,  avg # of iterations =  3.0

     total cpu time spent up to now is       39.2 secs

     total energy              =    -329.47691570 Ry
     Harris-Foulkes estimate   =    -329.47691911 Ry
     estimated scf accuracy    <       0.00000924 Ry

     iteration #  6     ecut=    30.00 Ry     beta=0.70
     Davidson diagonalization with overlap
     ethr =  1.68E-08,  avg # of iterations =  2.0

     total cpu time spent up to now is       39.6 secs

     total energy              =    -329.47691729 Ry
     Harris-Foulkes estimate   =    -329.47691727 Ry
     estimated scf accuracy    <       0.00000025 Ry

     iteration #  7     ecut=    30.00 Ry     beta=0.70
     Davidson diagonalization with overlap
     ethr =  4.54E-10,  avg # of iterations =  3.0

     total cpu time spent up to now is       40.2 secs

     total energy              =    -329.47691730 Ry
     Harris-Foulkes estimate   =    -329.47691740 Ry
     estimated scf accuracy    <       0.00000005 Ry

     iteration #  8     ecut=    30.00 Ry     beta=0.70
     Davidson diagonalization with overlap
     ethr =  9.01E-11,  avg # of iterations =  2.0

     total cpu time spent up to now is       40.7 secs

     total energy              =    -329.47691729 Ry
     Harris-Foulkes estimate   =    -329.47691732 Ry
     estimated scf accuracy    <       0.00000002 Ry

     iteration #  9     ecut=    30.00 Ry     beta=0.70
     Davidson diagonalization with overlap
     ethr =  2.87E-11,  avg # of iterations =  2.0

     total cpu time spent up to now is       41.2 secs

     total energy              =    -329.47691729 Ry
     Harris-Foulkes estimate   =    -329.47691730 Ry
     estimated scf accuracy    <          3.1E-09 Ry

     iteration # 10     ecut=    30.00 Ry     beta=0.70
     Davidson diagonalization with overlap
     ethr =  5.66E-12,  avg # of iterations =  2.0

     total cpu time spent up to now is       41.7 secs

     End of self-consistent calculation

          k = 0.0000 0.0000 0.0000 ( 22119 PWs)   bands (ev):

    -8.0852  -7.5435  -7.4394  -7.2870  -7.0081  -6.5912  -6.5174  -6.4092
    -6.3722  -6.0211  -5.9029  -5.6875  -5.6325  -5.6116  -5.5432  -5.4848
    -5.2332  -5.1945  -5.1714  -5.1405  -5.1292  -5.0034  -4.9796  -4.9501
    -4.8614  -4.5746  -4.4082  -3.7099  -2.5326  -2.2760  -0.3938  -0.1928
     0.3770   0.4722

     the Fermi energy is    -3.6795 ev

!    total energy              =    -329.47691729 Ry
     Harris-Foulkes estimate   =    -329.47691729 Ry
     estimated scf accuracy    <          5.5E-10 Ry

     The total energy is the sum of the following terms:

     one-electron contribution =    -599.00446457 Ry
     hartree contribution      =     321.04770273 Ry
     xc contribution           =     -51.38114043 Ry
     ewald contribution        =      -0.13523613 Ry
     smearing contrib. (-TS)   =      -0.00377889 Ry

     convergence has been achieved in  10 iterations

     Forces acting on atoms (Ry/au):

     atom    1 type  1   force =     0.00431814    0.00108849    0.00632255
     atom    2 type  1   force =     0.00043876    0.00299765   -0.01122252
     atom    3 type  1   force =     0.00164697   -0.00443859    0.00826213
     atom    4 type  1   force =    -0.00463035   -0.00208886    0.00573237
     atom    5 type  1   force =    -0.00177352    0.00244131   -0.00909453

     Total force =     0.020883     Total SCF correction =     0.000089

     number of scf cycles    =   7
     number of bfgs steps    =   6

     energy   old            =    -329.4761954031 Ry
     energy   new            =    -329.4769172939 Ry

     CASE: energy  _new < energy  _old

     new trust radius        =       0.0516805590 bohr
     new conv_thr            =       0.0000000007 Ry


ATOMIC_POSITIONS (bohr)
Au      -2.207273682   1.235883650  -0.562629998
Au       0.000215083   2.783498597   3.799655810
Au       2.914045678   1.557089878  -0.435417938
Au       4.217625470   4.888124168   5.734948136
Au       6.740141451   1.422971707   3.036196990



     Writing output data file pwscf.save
     Check: negative starting charge=   -0.006232
     NEW-OLD atomic charge density approx. for the potential
     Check: negative starting charge=   -0.006219

     negative rho (up, down):  7.511E-04 0.000E+00

     total cpu time spent up to now is       42.2 secs

     per-process dynamical memory:    50.7 Mb

     Self-consistent Calculation

     iteration #  1     ecut=    30.00 Ry     beta=0.70
     Davidson diagonalization with overlap
     ethr =  1.00E-06,  avg # of iterations =  5.0

     negative rho (up, down):  3.997E-05 0.000E+00

     total cpu time spent up to now is       43.1 secs

     total energy              =    -329.47753110 Ry
     Harris-Foulkes estimate   =    -329.47724370 Ry
     estimated scf accuracy    <       0.00067706 Ry

     iteration #  2     ecut=    30.00 Ry     beta=0.70
     Davidson diagonalization with overlap
     ethr =  1.23E-06,  avg # of iterations =  4.0

     negative rho (up, down):  9.378E-06 0.000E+00

     total cpu time spent up to now is       43.7 secs

     total energy              =    -329.47759432 Ry
     Harris-Foulkes estimate   =    -329.47795225 Ry
     estimated scf accuracy    <       0.00078455 Ry

     iteration #  3     ecut=    30.00 Ry     beta=0.70
     Davidson diagonalization with overlap
     ethr =  1.23E-06,  avg # of iterations =  2.0

     negative rho (up, down):  1.351E-06 0.000E+00

     total cpu time spent up to now is       44.2 secs

     total energy              =    -329.47773019 Ry
     Harris-Foulkes estimate   =    -329.47783574 Ry
     estimated scf accuracy    <       0.00031020 Ry

     iteration #  4     ecut=    30.00 Ry     beta=0.70
     Davidson diagonalization with overlap
     ethr =  5.64E-07,  avg # of iterations =  2.0

     total cpu time spent up to now is       44.6 secs

     total energy              =    -329.47778633 Ry
     Harris-Foulkes estimate   =    -329.47780058 Ry
     estimated scf accuracy    <       0.00004702 Ry

     iteration #  5     ecut=    30.00 Ry     beta=0.70
     Davidson diagonalization with overlap
     ethr =  8.55E-08,  avg # of iterations =  2.0

     total cpu time spent up to now is       45.1 secs

     total energy              =    -329.47779357 Ry
     Harris-Foulkes estimate   =    -329.47779974 Ry
     estimated scf accuracy    <       0.00001598 Ry

     iteration #  6     ecut=    30.00 Ry     beta=0.70
     Davidson diagonalization with overlap
     ethr =  2.90E-08,  avg # of iterations =  2.0

     total cpu time spent up to now is       45.5 secs

     total energy              =    -329.47779581 Ry
     Harris-Foulkes estimate   =    -329.47779632 Ry
     estimated scf accuracy    <       0.00000041 Ry

     iteration #  7     ecut=    30.00 Ry     beta=0.70
     Davidson diagonalization with overlap
     ethr =  7.44E-10,  avg # of iterations =  3.0

     total cpu time spent up to now is       46.0 secs

     total energy              =    -329.47779598 Ry
     Harris-Foulkes estimate   =    -329.47779602 Ry
     estimated scf accuracy    <       0.00000010 Ry

     iteration #  8     ecut=    30.00 Ry     beta=0.70
     Davidson diagonalization with overlap
     ethr =  1.77E-10,  avg # of iterations =  2.0

     total cpu time spent up to now is       46.6 secs

     total energy              =    -329.47779594 Ry
     Harris-Foulkes estimate   =    -329.47779602 Ry
     estimated scf accuracy    <       0.00000003 Ry

     iteration #  9     ecut=    30.00 Ry     beta=0.70
     Davidson diagonalization with overlap
     ethr =  5.09E-11,  avg # of iterations =  2.0

     total cpu time spent up to now is       47.1 secs

     total energy              =    -329.47779591 Ry
     Harris-Foulkes estimate   =    -329.47779595 Ry
     estimated scf accuracy    <          3.7E-09 Ry

     iteration # 10     ecut=    30.00 Ry     beta=0.70
     Davidson diagonalization with overlap
     ethr =  6.67E-12,  avg # of iterations =  3.0

     total cpu time spent up to now is       47.7 secs

     total energy              =    -329.47779595 Ry
     Harris-Foulkes estimate   =    -329.47779591 Ry
     estimated scf accuracy    <          1.0E-09 Ry

     iteration # 11     ecut=    30.00 Ry     beta=0.70
     Davidson diagonalization with overlap
     ethr =  1.85E-12,  avg # of iterations =  2.0

     total cpu time spent up to now is       48.2 secs

     End of self-consistent calculation

          k = 0.0000 0.0000 0.0000 ( 22119 PWs)   bands (ev):

    -8.1126  -7.5465  -7.4643  -7.2955  -7.0174  -6.6063  -6.5055  -6.4065
    -6.3829  -6.0379  -5.9213  -5.6867  -5.6451  -5.6173  -5.5510  -5.4837
    -5.2309  -5.1998  -5.1738  -5.1339  -5.1226  -4.9938  -4.9801  -4.9436
    -4.8582  -4.5743  -4.3993  -3.7127  -2.5299  -2.2536  -0.4037  -0.2010
     0.3845   0.4896

     the Fermi energy is    -3.6838 ev

!    total energy              =    -329.47779589 Ry
     Harris-Foulkes estimate   =    -329.47779595 Ry
     estimated scf accuracy    <          5.1E-11 Ry

     The total energy is the sum of the following terms:

     one-electron contribution =    -599.87744974 Ry
     hartree contribution      =     321.47987391 Ry
     xc contribution           =     -51.38680325 Ry
     ewald contribution        =       0.31001318 Ry
     smearing contrib. (-TS)   =      -0.00342999 Ry

     convergence has been achieved in  11 iterations

     Forces acting on atoms (Ry/au):

     atom    1 type  1   force =     0.00282012   -0.00001021    0.00057117
     atom    2 type  1   force =     0.00239535    0.00405322   -0.00594860
     atom    3 type  1   force =     0.00169320   -0.00441733    0.00827528
     atom    4 type  1   force =    -0.00416538   -0.00072572    0.00679312
     atom    5 type  1   force =    -0.00274328    0.00110005   -0.00969097

     Total force =     0.017982     Total SCF correction =     0.000032

     number of scf cycles    =   8
     number of bfgs steps    =   7

     energy   old            =    -329.4769172939 Ry
     energy   new            =    -329.4777958941 Ry

     CASE: energy  _new < energy  _old

     new trust radius        =       0.0629859138 bohr
     new conv_thr            =       0.0000000009 Ry


ATOMIC_POSITIONS (bohr)
Au      -2.203620015   1.242826122  -0.522481713
Au      -0.012465801   2.816025133   3.747230196
Au       2.932473346   1.524140662  -0.428064657
Au       4.192055377   4.852632033   5.760155617
Au       6.756311093   1.451944050   3.015913557



     Writing output data file pwscf.save
     Check: negative starting charge=   -0.006219
     NEW-OLD atomic charge density approx. for the potential
     Check: negative starting charge=   -0.006211

     negative rho (up, down):  1.014E-03 0.000E+00

     total cpu time spent up to now is       48.6 secs

     per-process dynamical memory:    50.7 Mb

     Self-consistent Calculation

     iteration #  1     ecut=    30.00 Ry     beta=0.70
     Davidson diagonalization with overlap
     ethr =  1.00E-06,  avg # of iterations =  6.0

     negative rho (up, down):  6.493E-05 0.000E+00

     total cpu time spent up to now is       49.6 secs

     total energy              =    -329.47816863 Ry
     Harris-Foulkes estimate   =    -329.47771717 Ry
     estimated scf accuracy    <       0.00095181 Ry

     iteration #  2     ecut=    30.00 Ry     beta=0.70
     Davidson diagonalization with overlap
     ethr =  1.73E-06,  avg # of iterations =  5.0

     negative rho (up, down):  1.352E-05 0.000E+00

     total cpu time spent up to now is       50.2 secs

     total energy              =    -329.47835418 Ry
     Harris-Foulkes estimate   =    -329.47869562 Ry
     estimated scf accuracy    <       0.00073745 Ry

     iteration #  3     ecut=    30.00 Ry     beta=0.70
     Davidson diagonalization with overlap
     ethr =  1.34E-06,  avg # of iterations =  2.0

     negative rho (up, down):  1.077E-06 0.000E+00

     total cpu time spent up to now is       50.7 secs

     total energy              =    -329.47848596 Ry
     Harris-Foulkes estimate   =    -329.47854392 Ry
     estimated scf accuracy    <       0.00013281 Ry

     iteration #  4     ecut=    30.00 Ry     beta=0.70
     Davidson diagonalization with overlap
     ethr =  2.41E-07,  avg # of iterations =  2.0

     total cpu time spent up to now is       51.1 secs

     total energy              =    -329.47851017 Ry
     Harris-Foulkes estimate   =    -329.47855322 Ry
     estimated scf accuracy    <       0.00015459 Ry

     iteration #  5     ecut=    30.00 Ry     beta=0.70
     Davidson diagonalization with overlap
     ethr =  2.41E-07,  avg # of iterations =  1.0

     total cpu time spent up to now is       51.5 secs

     total energy              =    -329.47852979 Ry
     Harris-Foulkes estimate   =    -329.47853455 Ry
     estimated scf accuracy    <       0.00001169 Ry

     iteration #  6     ecut=    30.00 Ry     beta=0.70
     Davidson diagonalization with overlap
     ethr =  2.13E-08,  avg # of iterations =  2.0

     total cpu time spent up to now is       52.0 secs

     total energy              =    -329.47853195 Ry
     Harris-Foulkes estimate   =    -329.47853249 Ry
     estimated scf accuracy    <       0.00000039 Ry

     iteration #  7     ecut=    30.00 Ry     beta=0.70
     Davidson diagonalization with overlap
     ethr =  7.02E-10,  avg # of iterations =  3.0

     total cpu time spent up to now is       52.5 secs

     total energy              =    -329.47853196 Ry
     Harris-Foulkes estimate   =    -329.47853214 Ry
     estimated scf accuracy    <       0.00000018 Ry

     iteration #  8     ecut=    30.00 Ry     beta=0.70
     Davidson diagonalization with overlap
     ethr =  3.31E-10,  avg # of iterations =  2.0

     total cpu time spent up to now is       53.0 secs

     total energy              =    -329.47853194 Ry
     Harris-Foulkes estimate   =    -329.47853200 Ry
     estimated scf accuracy    <       0.00000001 Ry

     iteration #  9     ecut=    30.00 Ry     beta=0.70
     Davidson diagonalization with overlap
     ethr =  2.06E-11,  avg # of iterations =  3.0

     total cpu time spent up to now is       53.6 secs

     total energy              =    -329.47853188 Ry
     Harris-Foulkes estimate   =    -329.47853194 Ry
     estimated scf accuracy    <          3.3E-09 Ry

     iteration # 10     ecut=    30.00 Ry     beta=0.70
     Davidson diagonalization with overlap
     ethr =  5.96E-12,  avg # of iterations =  2.0

     total cpu time spent up to now is       54.0 secs

     End of self-consistent calculation

          k = 0.0000 0.0000 0.0000 ( 22119 PWs)   bands (ev):

    -8.1665  -7.5599  -7.5066  -7.3086  -7.0299  -6.6373  -6.4960  -6.4114
    -6.3836  -6.0548  -5.9409  -5.6903  -5.6676  -5.6167  -5.5572  -5.4828
    -5.2290  -5.2044  -5.1771  -5.1247  -5.1135  -4.9821  -4.9717  -4.9279
    -4.8477  -4.5706  -4.3780  -3.7201  -2.5170  -2.2180  -0.4160  -0.2116
     0.3971   0.5182

     the Fermi energy is    -3.6957 ev

!    total energy              =    -329.47853188 Ry
     Harris-Foulkes estimate   =    -329.47853188 Ry
     estimated scf accuracy    <          4.0E-10 Ry

     The total energy is the sum of the following terms:

     one-electron contribution =    -601.72742224 Ry
     hartree contribution      =     322.40145890 Ry
     xc contribution           =     -51.39826779 Ry
     ewald contribution        =       1.24815679 Ry
     smearing contrib. (-TS)   =      -0.00245753 Ry

     convergence has been achieved in  10 iterations

     Forces acting on atoms (Ry/au):

     atom    1 type  1   force =    -0.00094611   -0.00163164   -0.00750232
     atom    2 type  1   force =     0.00498883    0.00542580    0.00115819
     atom    3 type  1   force =     0.00106955   -0.00432914    0.00635536
     atom    4 type  1   force =    -0.00246710   -0.00026142    0.00735515
     atom    5 type  1   force =    -0.00264518    0.00079640   -0.00736637

     Total force =     0.017261     Total SCF correction =     0.000076

     number of scf cycles    =   9
     number of bfgs steps    =   8

     energy   old            =    -329.4777958941 Ry
     energy   new            =    -329.4785318785 Ry

     CASE: energy  _new < energy  _old

     new trust radius        =       0.0297678080 bohr
     new conv_thr            =       0.0000000007 Ry


ATOMIC_POSITIONS (bohr)
Au      -2.197827665   1.243943810  -0.515502124
Au      -0.007956789   2.833561606   3.723602600
Au       2.938700777   1.506473668  -0.407817968
Au       4.178629398   4.841283984   5.781005859
Au       6.753208279   1.462304931   2.991464633



     Writing output data file pwscf.save
     Check: negative starting charge=   -0.006211
     NEW-OLD atomic charge density approx. for the potential
     Check: negative starting charge=   -0.006213

     negative rho (up, down):  2.941E-04 0.000E+00

     total cpu time spent up to now is       54.5 secs

     per-process dynamical memory:    50.7 Mb

     Self-consistent Calculation

     iteration #  1     ecut=    30.00 Ry     beta=0.70
     Davidson diagonalization with overlap
     ethr =  1.00E-06,  avg # of iterations =  4.0

     negative rho (up, down):  7.519E-06 0.000E+00

     total cpu time spent up to now is       55.3 secs

     total energy              =    -329.47891944 Ry
     Harris-Foulkes estimate   =    -329.47892867 Ry
     estimated scf accuracy    <       0.00028343 Ry

     iteration #  2     ecut=    30.00 Ry     beta=0.70
     Davidson diagonalization with overlap
     ethr =  5.15E-07,  avg # of iterations =  3.0

     negative rho (up, down):  9.845E-07 0.000E+00

     total cpu time spent up to now is       55.9 secs

     total energy              =    -329.47895056 Ry
     Harris-Foulkes estimate   =    -329.47908573 Ry
     estimated scf accuracy    <       0.00028763 Ry

     iteration #  3     ecut=    30.00 Ry     beta=0.70
     Davidson diagonalization with overlap
     ethr =  5.15E-07,  avg # of iterations =  2.0

     negative rho (up, down):  1.099E-07 0.000E+00

     total cpu time spent up to now is       56.4 secs

     total energy              =    -329.47899515 Ry
     Harris-Foulkes estimate   =    -329.47904353 Ry
     estimated scf accuracy    <       0.00014944 Ry

     iteration #  4     ecut=    30.00 Ry     beta=0.70
     Davidson diagonalization with overlap
     ethr =  2.72E-07,  avg # of iterations =  2.0

     total cpu time spent up to now is       56.8 secs

     total energy              =    -329.47902075 Ry
     Harris-Foulkes estimate   =    -329.47902643 Ry
     estimated scf accuracy    <       0.00001950 Ry

     iteration #  5     ecut=    30.00 Ry     beta=0.70
     Davidson diagonalization with overlap
     ethr =  3.55E-08,  avg # of iterations =  2.0

     total cpu time spent up to now is       57.3 secs

     total energy              =    -329.47902337 Ry
     Harris-Foulkes estimate   =    -329.47902548 Ry
     estimated scf accuracy    <       0.00000495 Ry

     iteration #  6     ecut=    30.00 Ry     beta=0.70
     Davidson diagonalization with overlap
     ethr =  9.01E-09,  avg # of iterations =  2.0

     total cpu time spent up to now is       57.6 secs

     total energy              =    -329.47902402 Ry
     Harris-Foulkes estimate   =    -329.47902430 Ry
     estimated scf accuracy    <       0.00000015 Ry

     iteration #  7     ecut=    30.00 Ry     beta=0.70
     Davidson diagonalization with overlap
     ethr =  2.82E-10,  avg # of iterations =  3.0

     total cpu time spent up to now is       58.2 secs

     total energy              =    -329.47902400 Ry
     Harris-Foulkes estimate   =    -329.47902409 Ry
     estimated scf accuracy    <       0.00000004 Ry

     iteration #  8     ecut=    30.00 Ry     beta=0.70
     Davidson diagonalization with overlap
     ethr =  7.97E-11,  avg # of iterations =  3.0

     total cpu time spent up to now is       58.7 secs

     total energy              =    -329.47902388 Ry
     Harris-Foulkes estimate   =    -329.47902401 Ry
     estimated scf accuracy    <          8.0E-09 Ry

     iteration #  9     ecut=    30.00 Ry     beta=0.70
     Davidson diagonalization with overlap
     ethr =  1.45E-11,  avg # of iterations =  3.0

     total cpu time spent up to now is       59.3 secs

     total energy              =    -329.47902385 Ry
     Harris-Foulkes estimate   =    -329.47902389 Ry
     estimated scf accuracy    <          2.6E-09 Ry

     iteration # 10     ecut=    30.00 Ry     beta=0.70
     Davidson diagonalization with overlap
     ethr =  4.75E-12,  avg # of iterations =  2.0

     total cpu time spent up to now is       59.7 secs

     End of self-consistent calculation

          k = 0.0000 0.0000 0.0000 ( 22119 PWs)   bands (ev):

    -8.1992  -7.5748  -7.5325  -7.3218  -7.0361  -6.6526  -6.5007  -6.4201
    -6.3752  -6.0564  -5.9476  -5.6902  -5.6753  -5.6178  -5.5554  -5.4836
    -5.2263  -5.2054  -5.1807  -5.1192  -5.1077  -4.9742  -4.9573  -4.9179
    -4.8392  -4.5673  -4.3588  -3.7276  -2.5004  -2.1968  -0.4221  -0.2176
     0.4043   0.5381

     the Fermi energy is    -3.7080 ev

!    total energy              =    -329.47902385 Ry
     Harris-Foulkes estimate   =    -329.47902385 Ry
     estimated scf accuracy    <          2.0E-10 Ry

     The total energy is the sum of the following terms:

     one-electron contribution =    -603.15262300 Ry
     hartree contribution      =     323.11546440 Ry
     xc contribution           =     -51.40712474 Ry
     ewald contribution        =       1.96672689 Ry
     smearing contrib. (-TS)   =      -0.00146740 Ry

     convergence has been achieved in  10 iterations

     Forces acting on atoms (Ry/au):

     atom    1 type  1   force =    -0.00301915   -0.00235475   -0.01004773
     atom    2 type  1   force =     0.00438755    0.00587866    0.00352874
     atom    3 type  1   force =    -0.00035294   -0.00464246    0.00330769
     atom    4 type  1   force =    -0.00030719   -0.00067722    0.00681887
     atom    5 type  1   force =    -0.00070827    0.00179577   -0.00360758

     Total force =     0.016682     Total SCF correction =     0.000075

     number of scf cycles    =  10
     number of bfgs steps    =   9

     energy   old            =    -329.4785318785 Ry
     energy   new            =    -329.4790238450 Ry

     CASE: energy  _new < energy  _old

     new trust radius        =       0.0327445887 bohr
     new conv_thr            =       0.0000000005 Ry


ATOMIC_POSITIONS (bohr)
Au      -2.194465633   1.242332054  -0.520397819
Au       0.001703085   2.855514764   3.704523765
Au       2.942671326   1.485152781  -0.383285080
Au       4.166655189   4.830962200   5.808101995
Au       6.748190033   1.473606201   2.963810139



     Writing output data file pwscf.save
     Check: negative starting charge=   -0.006213
     NEW-OLD atomic charge density approx. for the potential
     Check: negative starting charge=   -0.006210

     negative rho (up, down):  3.685E-04 0.000E+00

     total cpu time spent up to now is       60.2 secs

     per-process dynamical memory:    50.7 Mb

     Self-consistent Calculation

     iteration #  1     ecut=    30.00 Ry     beta=0.70
     Davidson diagonalization with overlap
     ethr =  1.00E-06,  avg # of iterations =  4.0

     negative rho (up, down):  1.157E-05 0.000E+00

     total cpu time spent up to now is       61.2 secs

     total energy              =    -329.47936237 Ry
     Harris-Foulkes estimate   =    -329.47937560 Ry
     estimated scf accuracy    <       0.00039533 Ry

     iteration #  2     ecut=    30.00 Ry     beta=0.70
     Davidson diagonalization with overlap
     ethr =  7.19E-07,  avg # of iterations =  3.0

     negative rho (up, down):  2.242E-06 0.000E+00

     total cpu time spent up to now is       61.7 secs

     total energy              =    -329.47937359 Ry
     Harris-Foulkes estimate   =    -329.47962663 Ry
     estimated scf accuracy    <       0.00057268 Ry

     iteration #  3     ecut=    30.00 Ry     beta=0.70
     Davidson diagonalization with overlap
     ethr =  7.19E-07,  avg # of iterations =  2.0

     negative rho (up, down):  3.007E-07 0.000E+00

     total cpu time spent up to now is       62.2 secs

     total energy              =    -329.47946454 Ry
     Harris-Foulkes estimate   =    -329.47955952 Ry
     estimated scf accuracy    <       0.00033040 Ry

     iteration #  4     ecut=    30.00 Ry     beta=0.70
     Davidson diagonalization with overlap
     ethr =  6.01E-07,  avg # of iterations =  1.0

     total cpu time spent up to now is       62.6 secs

     total energy              =    -329.47951241 Ry
     Harris-Foulkes estimate   =    -329.47951953 Ry
     estimated scf accuracy    <       0.00002128 Ry

     iteration #  5     ecut=    30.00 Ry     beta=0.70
     Davidson diagonalization with overlap
     ethr =  3.87E-08,  avg # of iterations =  2.0

     total cpu time spent up to now is       63.1 secs

     total energy              =    -329.47951567 Ry
     Harris-Foulkes estimate   =    -329.47952036 Ry
     estimated scf accuracy    <       0.00001035 Ry

     iteration #  6     ecut=    30.00 Ry     beta=0.70
     Davidson diagonalization with overlap
     ethr =  1.88E-08,  avg # of iterations =  2.0

     total cpu time spent up to now is       63.5 secs

     total energy              =    -329.47951699 Ry
     Harris-Foulkes estimate   =    -329.47951749 Ry
     estimated scf accuracy    <       0.00000032 Ry

     iteration #  7     ecut=    30.00 Ry     beta=0.70
     Davidson diagonalization with overlap
     ethr =  5.85E-10,  avg # of iterations =  3.0

     total cpu time spent up to now is       64.1 secs

     total energy              =    -329.47951708 Ry
     Harris-Foulkes estimate   =    -329.47951710 Ry
     estimated scf accuracy    <       0.00000006 Ry

     iteration #  8     ecut=    30.00 Ry     beta=0.70
     Davidson diagonalization with overlap
     ethr =  1.13E-10,  avg # of iterations =  2.0

     total cpu time spent up to now is       64.6 secs

     total energy              =    -329.47951701 Ry
     Harris-Foulkes estimate   =    -329.47951710 Ry
     estimated scf accuracy    <       0.00000001 Ry

     iteration #  9     ecut=    30.00 Ry     beta=0.70
     Davidson diagonalization with overlap
     ethr =  1.85E-11,  avg # of iterations =  3.0

     total cpu time spent up to now is       65.2 secs

     total energy              =    -329.47951698 Ry
     Harris-Foulkes estimate   =    -329.47951702 Ry
     estimated scf accuracy    <          5.8E-09 Ry

     iteration # 10     ecut=    30.00 Ry     beta=0.70
     Davidson diagonalization with overlap
     ethr =  1.05E-11,  avg # of iterations =  2.0

     total cpu time spent up to now is       65.7 secs

     End of self-consistent calculation

          k = 0.0000 0.0000 0.0000 ( 22119 PWs)   bands (ev):

    -8.2215  -7.5880  -7.5549  -7.3365  -7.0375  -6.6599  -6.5067  -6.4279
    -6.3622  -6.0536  -5.9524  -5.6877  -5.6795  -5.6138  -5.5489  -5.4829
    -5.2250  -5.2046  -5.1863  -5.1135  -5.1020  -4.9655  -4.9397  -4.9083
    -4.8320  -4.5651  -4.3401  -3.7380  -2.4844  -2.1758  -0.4280  -0.2248
     0.4082   0.5605

     the Fermi energy is    -3.7240 ev

!    total energy              =    -329.47951695 Ry
     Harris-Foulkes estimate   =    -329.47951698 Ry
     estimated scf accuracy    <          3.6E-10 Ry

     The total energy is the sum of the following terms:

     one-electron contribution =    -604.25701068 Ry
     hartree contribution      =     323.67226599 Ry
     xc contribution           =     -51.41526304 Ry
     ewald contribution        =       2.52082165 Ry
     smearing contrib. (-TS)   =      -0.00033088 Ry

     convergence has been achieved in  10 iterations

     Forces acting on atoms (Ry/au):

     atom    1 type  1   force =    -0.00377095   -0.00252175   -0.01028750
     atom    2 type  1   force =     0.00230698    0.00557449    0.00401730
     atom    3 type  1   force =    -0.00284322   -0.00514004   -0.00026472
     atom    4 type  1   force =     0.00225270   -0.00093466    0.00582674
     atom    5 type  1   force =     0.00205450    0.00302195    0.00070818

     Total force =     0.016349     Total SCF correction =     0.000088

     number of scf cycles    =  11
     number of bfgs steps    =  10

     energy   old            =    -329.4790238450 Ry
     energy   new            =    -329.4795169522 Ry

     CASE: energy  _new < energy  _old

     new trust radius        =       0.0491168831 bohr
     new conv_thr            =       0.0000000005 Ry


ATOMIC_POSITIONS (bohr)
Au      -2.196394200   1.238092935  -0.533744739
Au       0.012820476   2.894016916   3.680348430
Au       2.946164958   1.447813466  -0.356785042
Au       4.152513867   4.811333177   5.850847669
Au       6.749648899   1.496311506   2.932086682



     Writing output data file pwscf.save
     Check: negative starting charge=   -0.006210
     NEW-OLD atomic charge density approx. for the potential
     Check: negative starting charge=   -0.006197

     negative rho (up, down):  7.967E-04 0.000E+00

     total cpu time spent up to now is       66.1 secs

     per-process dynamical memory:    50.7 Mb

     Self-consistent Calculation

     iteration #  1     ecut=    30.00 Ry     beta=0.70
     Davidson diagonalization with overlap
     ethr =  1.00E-06,  avg # of iterations =  6.0

     negative rho (up, down):  4.358E-05 0.000E+00

     total cpu time spent up to now is       67.1 secs

     total energy              =    -329.47971747 Ry
     Harris-Foulkes estimate   =    -329.47960080 Ry
     estimated scf accuracy    <       0.00095106 Ry

     iteration #  2     ecut=    30.00 Ry     beta=0.70
     Davidson diagonalization with overlap
     ethr =  1.73E-06,  avg # of iterations =  4.0

     negative rho (up, down):  1.073E-05 0.000E+00

     total cpu time spent up to now is       67.7 secs

     total energy              =    -329.47979909 Ry
     Harris-Foulkes estimate   =    -329.48033564 Ry
     estimated scf accuracy    <       0.00119853 Ry

     iteration #  3     ecut=    30.00 Ry     beta=0.70
     Davidson diagonalization with overlap
     ethr =  1.73E-06,  avg # of iterations =  2.0

     negative rho (up, down):  2.630E-06 0.000E+00

     total cpu time spent up to now is       68.2 secs

     total energy              =    -329.47997019 Ry
     Harris-Foulkes estimate   =    -329.48019599 Ry
     estimated scf accuracy    <       0.00082007 Ry

     iteration #  4     ecut=    30.00 Ry     beta=0.70
     Davidson diagonalization with overlap
     ethr =  1.49E-06,  avg # of iterations =  1.0

     total cpu time spent up to now is       68.6 secs

     total energy              =    -329.48008783 Ry
     Harris-Foulkes estimate   =    -329.48010197 Ry
     estimated scf accuracy    <       0.00004920 Ry

     iteration #  5     ecut=    30.00 Ry     beta=0.70
     Davidson diagonalization with overlap
     ethr =  8.95E-08,  avg # of iterations =  2.0

     total cpu time spent up to now is       69.1 secs

     total energy              =    -329.48009569 Ry
     Harris-Foulkes estimate   =    -329.48010419 Ry
     estimated scf accuracy    <       0.00002131 Ry

     iteration #  6     ecut=    30.00 Ry     beta=0.70
     Davidson diagonalization with overlap
     ethr =  3.88E-08,  avg # of iterations =  2.0

     total cpu time spent up to now is       69.5 secs

     total energy              =    -329.48009906 Ry
     Harris-Foulkes estimate   =    -329.48009945 Ry
     estimated scf accuracy    <       0.00000080 Ry

     iteration #  7     ecut=    30.00 Ry     beta=0.70
     Davidson diagonalization with overlap
     ethr =  1.45E-09,  avg # of iterations =  2.0

     total cpu time spent up to now is       70.0 secs

     total energy              =    -329.48009952 Ry
     Harris-Foulkes estimate   =    -329.48009929 Ry
     estimated scf accuracy    <       0.00000014 Ry

     iteration #  8     ecut=    30.00 Ry     beta=0.70
     Davidson diagonalization with overlap
     ethr =  2.52E-10,  avg # of iterations =  2.0

     total cpu time spent up to now is       70.5 secs

     total energy              =    -329.48009952 Ry
     Harris-Foulkes estimate   =    -329.48009956 Ry
     estimated scf accuracy    <       0.00000002 Ry

     iteration #  9     ecut=    30.00 Ry     beta=0.70
     Davidson diagonalization with overlap
     ethr =  3.35E-11,  avg # of iterations =  3.0

     total cpu time spent up to now is       71.1 secs

     total energy              =    -329.48009949 Ry
     Harris-Foulkes estimate   =    -329.48009953 Ry
     estimated scf accuracy    <          8.1E-09 Ry

     iteration # 10     ecut=    30.00 Ry     beta=0.70
     Davidson diagonalization with overlap
     ethr =  1.48E-11,  avg # of iterations =  2.0

     total cpu time spent up to now is       71.6 secs

     total energy              =    -329.48009948 Ry
     Harris-Foulkes estimate   =    -329.48009949 Ry
     estimated scf accuracy    <          7.6E-10 Ry

     iteration # 11     ecut=    30.00 Ry     beta=0.70
     Davidson diagonalization with overlap
     ethr =  1.39E-12,  avg # of iterations =  3.0

     total cpu time spent up to now is       72.1 secs

     End of self-consistent calculation

          k = 0.0000 0.0000 0.0000 ( 22119 PWs)   bands (ev):

    -8.2348  -7.5957  -7.5738  -7.3504  -7.0333  -6.6610  -6.5065  -6.4301
    -6.3433  -6.0503  -5.9610  -5.6945  -5.6723  -5.6013  -5.5375  -5.4786
    -5.2307  -5.1996  -5.1952  -5.1066  -5.0951  -4.9575  -4.9196  -4.8968
    -4.8279  -4.5663  -4.3230  -3.7539  -2.4731  -2.1501  -0.4365  -0.2364
     0.4079   0.5913

     the Fermi energy is    -3.7464 ev

!    total energy              =    -329.48009948 Ry
     Harris-Foulkes estimate   =    -329.48009948 Ry
     estimated scf accuracy    <          1.9E-10 Ry

     The total energy is the sum of the following terms:

     one-electron contribution =    -604.77770378 Ry
     hartree contribution      =     323.94012169 Ry
     xc contribution           =     -51.42221795 Ry
     ewald contribution        =       2.77875526 Ry
     smearing contrib. (-TS)   =       0.00094530 Ry

     convergence has been achieved in  11 iterations

     Forces acting on atoms (Ry/au):

     atom    1 type  1   force =    -0.00310817   -0.00249224   -0.00880400
     atom    2 type  1   force =    -0.00061995    0.00475277    0.00294041
     atom    3 type  1   force =    -0.00648603   -0.00566760   -0.00382610
     atom    4 type  1   force =     0.00507777   -0.00095299    0.00463247
     atom    5 type  1   force =     0.00513638    0.00436006    0.00505722

     Total force =     0.018247     Total SCF correction =     0.000067

     number of scf cycles    =  12
     number of bfgs steps    =  11

     energy   old            =    -329.4795169522 Ry
     energy   new            =    -329.4800994829 Ry

     CASE: energy  _new < energy  _old

     new trust radius        =       0.0736753247 bohr
     new conv_thr            =       0.0000000006 Ry


ATOMIC_POSITIONS (bohr)
Au      -2.204913447   1.231598528  -0.550325288
Au       0.020619035   2.955380428   3.644353594
Au       2.949192491   1.387666383  -0.333165458
Au       4.134927688   4.775598960   5.912830292
Au       6.764928233   1.537323701   2.899059860



     Writing output data file pwscf.save
     Check: negative starting charge=   -0.006197
     NEW-OLD atomic charge density approx. for the potential
     Check: negative starting charge=   -0.006181

     negative rho (up, down):  1.564E-03 0.000E+00

     total cpu time spent up to now is       72.6 secs

     per-process dynamical memory:    50.7 Mb

     Self-consistent Calculation

     iteration #  1     ecut=    30.00 Ry     beta=0.70
     Davidson diagonalization with overlap
     ethr =  1.00E-06,  avg # of iterations = 10.0

     negative rho (up, down):  1.274E-04 0.000E+00

     total cpu time spent up to now is       73.8 secs

     total energy              =    -329.48004965 Ry
     Harris-Foulkes estimate   =    -329.47969983 Ry
     estimated scf accuracy    <       0.00211996 Ry

     iteration #  2     ecut=    30.00 Ry     beta=0.70
     Davidson diagonalization with overlap
     ethr =  3.85E-06,  avg # of iterations =  5.0

     negative rho (up, down):  3.648E-05 0.000E+00

     total cpu time spent up to now is       74.4 secs

     total energy              =    -329.48037828 Ry
     Harris-Foulkes estimate   =    -329.48133932 Ry
     estimated scf accuracy    <       0.00211158 Ry

     iteration #  3     ecut=    30.00 Ry     beta=0.70
[...]
     estimated scf accuracy    <       0.00127707 Ry

     iteration #  4     ecut=    30.00 Ry     beta=0.70
     Davidson diagonalization with overlap
     ethr =  2.32E-06,  avg # of iterations =  3.0

     total cpu time spent up to now is      277.1 secs

     total energy              =    -329.49268709 Ry
     Harris-Foulkes estimate   =    -329.49272445 Ry
     estimated scf accuracy    <       0.00013774 Ry

     iteration #  5     ecut=    30.00 Ry     beta=0.70
     Davidson diagonalization with overlap
     ethr =  2.50E-07,  avg # of iterations =  2.0

     total cpu time spent up to now is      277.6 secs

     total energy              =    -329.49271171 Ry
     Harris-Foulkes estimate   =    -329.49272700 Ry
     estimated scf accuracy    <       0.00003511 Ry

     iteration #  6     ecut=    30.00 Ry     beta=0.70
     Davidson diagonalization with overlap
     ethr =  6.38E-08,  avg # of iterations =  2.0

     total cpu time spent up to now is      278.0 secs

     total energy              =    -329.49271813 Ry
     Harris-Foulkes estimate   =    -329.49271947 Ry
     estimated scf accuracy    <       0.00000207 Ry

     iteration #  7     ecut=    30.00 Ry     beta=0.70
     Davidson diagonalization with overlap
     ethr =  3.76E-09,  avg # of iterations =  3.0

     total cpu time spent up to now is      278.5 secs

     total energy              =    -329.49271838 Ry
     Harris-Foulkes estimate   =    -329.49271877 Ry
     estimated scf accuracy    <       0.00000022 Ry

     iteration #  8     ecut=    30.00 Ry     beta=0.70
     Davidson diagonalization with overlap
     ethr =  4.00E-10,  avg # of iterations =  2.0

     total cpu time spent up to now is      278.9 secs

     total energy              =    -329.49271848 Ry
     Harris-Foulkes estimate   =    -329.49271845 Ry
     estimated scf accuracy    <       0.00000004 Ry

     iteration #  9     ecut=    30.00 Ry     beta=0.70
     Davidson diagonalization with overlap
     ethr =  7.28E-11,  avg # of iterations =  2.0

     total cpu time spent up to now is      279.4 secs

     total energy              =    -329.49271846 Ry
     Harris-Foulkes estimate   =    -329.49271849 Ry
     estimated scf accuracy    <       0.00000001 Ry

     iteration # 10     ecut=    30.00 Ry     beta=0.70
     Davidson diagonalization with overlap
     ethr =  1.92E-11,  avg # of iterations =  2.0

     total cpu time spent up to now is      279.9 secs

     total energy              =    -329.49271844 Ry
     Harris-Foulkes estimate   =    -329.49271846 Ry
     estimated scf accuracy    <          2.8E-09 Ry

     iteration # 11     ecut=    30.00 Ry     beta=0.70
     Davidson diagonalization with overlap
     ethr =  5.01E-12,  avg # of iterations =  2.0

     total cpu time spent up to now is      280.3 secs

     End of self-consistent calculation

          k = 0.0000 0.0000 0.0000 ( 22119 PWs)   bands (ev):

    -8.5580  -7.8177  -7.6876  -7.2444  -6.8561  -6.8354  -6.6023  -6.5040
    -6.3089  -6.1014  -5.9388  -5.7804  -5.7342  -5.6715  -5.4673  -5.3517
    -5.2967  -5.2555  -5.1925  -5.1751  -5.1637  -5.1077  -4.9784  -4.9288
    -4.8291  -4.7077  -4.4900  -3.7412  -2.3700  -2.2328  -0.5241  -0.1823
     0.4025   0.7345

     the Fermi energy is    -3.7035 ev

!    total energy              =    -329.49271843 Ry
     Harris-Foulkes estimate   =    -329.49271844 Ry
     estimated scf accuracy    <          3.8E-10 Ry

     The total energy is the sum of the following terms:

     one-electron contribution =    -605.80967102 Ry
     hartree contribution      =     324.33585096 Ry
     xc contribution           =     -51.40499143 Ry
     ewald contribution        =       3.39162513 Ry
     smearing contrib. (-TS)   =      -0.00553207 Ry

     convergence has been achieved in  11 iterations

     Forces acting on atoms (Ry/au):

     atom    1 type  1   force =    -0.00633938   -0.00227640   -0.00562446
     atom    2 type  1   force =     0.00024032    0.00499225    0.01059560
     atom    3 type  1   force =     0.00552234   -0.00360743   -0.00228986
     atom    4 type  1   force =     0.00108274    0.00151289   -0.00259653
     atom    5 type  1   force =    -0.00050601   -0.00062131   -0.00008476

     Total force =     0.016549     Total SCF correction =     0.000093

     number of scf cycles    =  48
     number of bfgs steps    =  47

     energy   old            =    -329.4924390766 Ry
     energy   new            =    -329.4927184275 Ry

     CASE: energy  _new < energy  _old

     new trust radius        =       0.0300460732 bohr
     new conv_thr            =       0.0000000003 Ry


ATOMIC_POSITIONS (bohr)
Au      -2.207195217   1.435485467  -0.392568243
Au       0.847714193   3.438198422   3.061870900
Au       2.775832185   0.114698944  -0.602991547
Au       4.113584050   4.914488228   6.628087149
Au       6.134818788   1.984696939   2.878354741



     Writing output data file pwscf.save
     Check: negative starting charge=   -0.006223
     NEW-OLD atomic charge density approx. for the potential
     Check: negative starting charge=   -0.006221

     negative rho (up, down):  2.704E-04 0.000E+00

     total cpu time spent up to now is      280.7 secs

     per-process dynamical memory:    50.7 Mb

     Self-consistent Calculation

     iteration #  1     ecut=    30.00 Ry     beta=0.70
     Davidson diagonalization with overlap
     ethr =  1.00E-06,  avg # of iterations =  4.0

     negative rho (up, down):  6.575E-06 0.000E+00

     total cpu time spent up to now is      281.5 secs

     total energy              =    -329.49284478 Ry
     Harris-Foulkes estimate   =    -329.49284789 Ry
     estimated scf accuracy    <       0.00023093 Ry

     iteration #  2     ecut=    30.00 Ry     beta=0.70
     Davidson diagonalization with overlap
     ethr =  4.20E-07,  avg # of iterations =  3.0

     negative rho (up, down):  1.228E-06 0.000E+00

     total cpu time spent up to now is      282.0 secs

     total energy              =    -329.49283672 Ry
     Harris-Foulkes estimate   =    -329.49301862 Ry
     estimated scf accuracy    <       0.00041379 Ry

     iteration #  3     ecut=    30.00 Ry     beta=0.70
     Davidson diagonalization with overlap
     ethr =  4.20E-07,  avg # of iterations =  2.0

     negative rho (up, down):  2.488E-08 0.000E+00

     total cpu time spent up to now is      282.5 secs

     total energy              =    -329.49292209 Ry
     Harris-Foulkes estimate   =    -329.49295049 Ry
     estimated scf accuracy    <       0.00008217 Ry

     iteration #  4     ecut=    30.00 Ry     beta=0.70
     Davidson diagonalization with overlap
     ethr =  1.49E-07,  avg # of iterations =  2.0

     total cpu time spent up to now is      282.8 secs

     total energy              =    -329.49293861 Ry
     Harris-Foulkes estimate   =    -329.49293988 Ry
     estimated scf accuracy    <       0.00000612 Ry

     iteration #  5     ecut=    30.00 Ry     beta=0.70
     Davidson diagonalization with overlap
     ethr =  1.11E-08,  avg # of iterations =  3.0

     total cpu time spent up to now is      283.3 secs

     total energy              =    -329.49293991 Ry
     Harris-Foulkes estimate   =    -329.49294064 Ry
     estimated scf accuracy    <       0.00000163 Ry

     iteration #  6     ecut=    30.00 Ry     beta=0.70
     Davidson diagonalization with overlap
     ethr =  2.97E-09,  avg # of iterations =  2.0

     total cpu time spent up to now is      283.7 secs

     total energy              =    -329.49294017 Ry
     Harris-Foulkes estimate   =    -329.49294028 Ry
     estimated scf accuracy    <       0.00000016 Ry

     iteration #  7     ecut=    30.00 Ry     beta=0.70
     Davidson diagonalization with overlap
     ethr =  2.94E-10,  avg # of iterations =  3.0

     total cpu time spent up to now is      284.2 secs

     total energy              =    -329.49294011 Ry
     Harris-Foulkes estimate   =    -329.49294021 Ry
     estimated scf accuracy    <       0.00000002 Ry

     iteration #  8     ecut=    30.00 Ry     beta=0.70
     Davidson diagonalization with overlap
     ethr =  3.75E-11,  avg # of iterations =  3.0

     total cpu time spent up to now is      284.7 secs

     total energy              =    -329.49294005 Ry
     Harris-Foulkes estimate   =    -329.49294011 Ry
     estimated scf accuracy    <          6.6E-09 Ry

     iteration #  9     ecut=    30.00 Ry     beta=0.70
     Davidson diagonalization with overlap
     ethr =  1.21E-11,  avg # of iterations =  3.0

     total cpu time spent up to now is      285.2 secs

     total energy              =    -329.49294004 Ry
     Harris-Foulkes estimate   =    -329.49294005 Ry
     estimated scf accuracy    <          2.3E-09 Ry

     iteration # 10     ecut=    30.00 Ry     beta=0.70
     Davidson diagonalization with overlap
     ethr =  4.23E-12,  avg # of iterations =  2.0

     total cpu time spent up to now is      285.6 secs

     total energy              =    -329.49294007 Ry
     Harris-Foulkes estimate   =    -329.49294004 Ry
     estimated scf accuracy    <          4.1E-10 Ry

     iteration # 11     ecut=    30.00 Ry     beta=0.70
     Davidson diagonalization with overlap
     ethr =  7.40E-13,  avg # of iterations =  2.0

     total cpu time spent up to now is      286.1 secs

     End of self-consistent calculation

          k = 0.0000 0.0000 0.0000 ( 22119 PWs)   bands (ev):

    -8.5361  -7.7994  -7.6743  -7.2392  -6.8589  -6.8302  -6.5949  -6.4931
    -6.3084  -6.0899  -5.9408  -5.7733  -5.7315  -5.6692  -5.4588  -5.3561
    -5.3015  -5.2488  -5.1941  -5.1731  -5.1673  -5.1107  -4.9812  -4.9268
    -4.8445  -4.7018  -4.4903  -3.7451  -2.3818  -2.2282  -0.5221  -0.1875
     0.4003   0.7342

     the Fermi energy is    -3.7079 ev

!    total energy              =    -329.49294003 Ry
     Harris-Foulkes estimate   =    -329.49294007 Ry
     estimated scf accuracy    <          2.7E-11 Ry

     The total energy is the sum of the following terms:

     one-electron contribution =    -605.10505455 Ry
     hartree contribution      =     323.98787460 Ry
     xc contribution           =     -51.40219967 Ry
     ewald contribution        =       3.03187014 Ry
     smearing contrib. (-TS)   =      -0.00543054 Ry

     convergence has been achieved in  11 iterations

     Forces acting on atoms (Ry/au):

     atom    1 type  1   force =    -0.00336109   -0.00149096   -0.00380044
     atom    2 type  1   force =    -0.00033637    0.00294306    0.00689958
     atom    3 type  1   force =     0.00396172   -0.00281695   -0.00169595
     atom    4 type  1   force =     0.00164714    0.00199068   -0.00126112
     atom    5 type  1   force =    -0.00191140   -0.00062583   -0.00014207

     Total force =     0.011099     Total SCF correction =     0.000025

     number of scf cycles    =  49
     number of bfgs steps    =  48

     energy   old            =    -329.4927184275 Ry
     energy   new            =    -329.4929400318 Ry

     CASE: energy  _new < energy  _old

     new trust radius        =       0.0220277470 bohr
     new conv_thr            =       0.0000000002 Ry


ATOMIC_POSITIONS (bohr)
Au      -2.213591406   1.432638261  -0.402088729
Au       0.841076171   3.445415873   3.081595674
Au       2.788819167   0.107723709  -0.608478578
Au       4.118719829   4.920297493   6.626355521
Au       6.129730239   1.981492663   2.875369112



     Writing output data file pwscf.save
     Check: negative starting charge=   -0.006221
     NEW-OLD atomic charge density approx. for the potential
     Check: negative starting charge=   -0.006204

     negative rho (up, down):  5.950E-05 0.000E+00

     total cpu time spent up to now is      286.4 secs

     per-process dynamical memory:    50.7 Mb

     Self-consistent Calculation

     iteration #  1     ecut=    30.00 Ry     beta=0.70
     Davidson diagonalization with overlap
     ethr =  1.00E-06,  avg # of iterations =  4.0

     negative rho (up, down):  2.998E-07 0.000E+00

     total cpu time spent up to now is      287.2 secs

     total energy              =    -329.49314687 Ry
     Harris-Foulkes estimate   =    -329.49314632 Ry
     estimated scf accuracy    <       0.00005933 Ry

     iteration #  2     ecut=    30.00 Ry     beta=0.70
     Davidson diagonalization with overlap
     ethr =  1.08E-07,  avg # of iterations =  3.0

     negative rho (up, down):  2.999E-08 0.000E+00

     total cpu time spent up to now is      287.7 secs

     total energy              =    -329.49314276 Ry
     Harris-Foulkes estimate   =    -329.49318961 Ry
     estimated scf accuracy    <       0.00010829 Ry

     iteration #  3     ecut=    30.00 Ry     beta=0.70
     Davidson diagonalization with overlap
     ethr =  1.08E-07,  avg # of iterations =  2.0

     total cpu time spent up to now is      288.1 secs

     total energy              =    -329.49316597 Ry
     Harris-Foulkes estimate   =    -329.49317251 Ry
     estimated scf accuracy    <       0.00002108 Ry

     iteration #  4     ecut=    30.00 Ry     beta=0.70
     Davidson diagonalization with overlap
     ethr =  3.83E-08,  avg # of iterations =  2.0

     total cpu time spent up to now is      288.5 secs

     total energy              =    -329.49317000 Ry
     Harris-Foulkes estimate   =    -329.49317077 Ry
     estimated scf accuracy    <       0.00000201 Ry

     iteration #  5     ecut=    30.00 Ry     beta=0.70
     Davidson diagonalization with overlap
     ethr =  3.65E-09,  avg # of iterations =  2.0

     total cpu time spent up to now is      288.9 secs

     total energy              =    -329.49317061 Ry
     Harris-Foulkes estimate   =    -329.49317061 Ry
     estimated scf accuracy    <       0.00000042 Ry

     iteration #  6     ecut=    30.00 Ry     beta=0.70
     Davidson diagonalization with overlap
     ethr =  7.64E-10,  avg # of iterations =  2.0

     total cpu time spent up to now is      289.4 secs

     total energy              =    -329.49317065 Ry
     Harris-Foulkes estimate   =    -329.49317070 Ry
     estimated scf accuracy    <       0.00000003 Ry

     iteration #  7     ecut=    30.00 Ry     beta=0.70
     Davidson diagonalization with overlap
     ethr =  6.11E-11,  avg # of iterations =  3.0

     total cpu time spent up to now is      289.9 secs

     total energy              =    -329.49317073 Ry
     Harris-Foulkes estimate   =    -329.49317066 Ry
     estimated scf accuracy    <          8.7E-09 Ry

     iteration #  8     ecut=    30.00 Ry     beta=0.70
     Davidson diagonalization with overlap
     ethr =  1.58E-11,  avg # of iterations =  3.0

     total cpu time spent up to now is      290.4 secs

     total energy              =    -329.49317079 Ry
     Harris-Foulkes estimate   =    -329.49317073 Ry
     estimated scf accuracy    <          1.4E-09 Ry

     iteration #  9     ecut=    30.00 Ry     beta=0.70
     Davidson diagonalization with overlap
     ethr =  2.61E-12,  avg # of iterations =  2.0

     total cpu time spent up to now is      290.8 secs

     total energy              =    -329.49317077 Ry
     Harris-Foulkes estimate   =    -329.49317079 Ry
     estimated scf accuracy    <          4.3E-10 Ry

     iteration # 10     ecut=    30.00 Ry     beta=0.70
     Davidson diagonalization with overlap
     ethr =  7.79E-13,  avg # of iterations =  2.0

     total cpu time spent up to now is      291.2 secs

     End of self-consistent calculation

          k = 0.0000 0.0000 0.0000 ( 22119 PWs)   bands (ev):

    -8.5058  -7.7733  -7.6603  -7.2256  -6.8543  -6.8129  -6.5849  -6.4786
    -6.3062  -6.0774  -5.9350  -5.7652  -5.7267  -5.6647  -5.4512  -5.3580
    -5.3054  -5.2463  -5.1975  -5.1728  -5.1650  -5.1140  -4.9839  -4.9259
    -4.8445  -4.7141  -4.4887  -3.7541  -2.3893  -2.2310  -0.5187  -0.1932
     0.3979   0.7330

     the Fermi energy is    -3.7178 ev

!    total energy              =    -329.49317077 Ry
     Harris-Foulkes estimate   =    -329.49317077 Ry
     estimated scf accuracy    <          7.1E-11 Ry

     The total energy is the sum of the following terms:

     one-electron contribution =    -603.91450644 Ry
     hartree contribution      =     323.40048663 Ry
     xc contribution           =     -51.39782623 Ry
     ewald contribution        =       2.42388966 Ry
     smearing contrib. (-TS)   =      -0.00521439 Ry

     convergence has been achieved in  10 iterations

     Forces acting on atoms (Ry/au):

     atom    1 type  1   force =     0.00082212   -0.00064175   -0.00160162
     atom    2 type  1   force =    -0.00153812    0.00015000    0.00227924
     atom    3 type  1   force =     0.00059340   -0.00151338   -0.00059426
     atom    4 type  1   force =     0.00210831    0.00205463   -0.00060951
     atom    5 type  1   force =    -0.00198570   -0.00004950    0.00052615

     Total force =     0.005243     Total SCF correction =     0.000032

     number of scf cycles    =  50
     number of bfgs steps    =  49

     energy   old            =    -329.4929400318 Ry
     energy   new            =    -329.4931707748 Ry

     CASE: energy  _new < energy  _old

     new trust radius        =       0.0262062606 bohr
     new conv_thr            =       0.0000000002 Ry


ATOMIC_POSITIONS (bohr)
Au      -2.206201984   1.436668812  -0.402854303
Au       0.839471517   3.456436049   3.093617291
Au       2.798037986   0.086237796  -0.620316525
Au       4.123920023   4.932405936   6.629260247
Au       6.109526458   1.975819407   2.873046289



     Writing output data file pwscf.save
     Check: negative starting charge=   -0.006204
     NEW-OLD atomic charge density approx. for the potential
     Check: negative starting charge=   -0.006179

     negative rho (up, down):  1.238E-04 0.000E+00

     Writing output data file pwscf.save
 
     init_run     :      0.38s CPU      0.46s WALL (       1 calls)
     electrons    :    257.63s CPU    272.09s WALL (      50 calls)
     update_pot   :      7.47s CPU      8.46s WALL (      50 calls)
     forces       :      3.95s CPU      4.04s WALL (      50 calls)

     Called by init_run:
     wfcinit      :      0.15s CPU      0.22s WALL (       1 calls)
     potinit      :      0.07s CPU      0.07s WALL (       1 calls)

     Called by electrons:
     c_bands      :    193.81s CPU    198.44s WALL (     523 calls)
     sum_band     :     26.88s CPU     27.64s WALL (     523 calls)
     v_of_rho     :     21.54s CPU     22.02s WALL (     567 calls)
     mix_rho      :      8.40s CPU     12.63s WALL (     523 calls)

     Called by c_bands:
     init_us_2    :      1.56s CPU      1.61s WALL (    1047 calls)
     cegterg      :    182.33s CPU    186.63s WALL (     523 calls)

     Called by sum_band:

     Called by *egterg:
     h_psi        :    142.22s CPU    145.53s WALL (    2022 calls)
     g_psi        :      0.63s CPU      0.63s WALL (    1498 calls)
     cdiaghg      :      8.97s CPU      9.12s WALL (    1965 calls)

     Called by h_psi:
     h_psi:pot    :    141.31s CPU    144.61s WALL (    2022 calls)
     h_psi:calbec :     11.26s CPU     11.56s WALL (    2022 calls)
     vloc_psi     :    126.11s CPU    129.08s WALL (    2022 calls)
     add_vuspsi   :      3.93s CPU      3.96s WALL (    2022 calls)

     General routines
     calbec       :     12.46s CPU     12.78s WALL (    2222 calls)
     fft          :     14.91s CPU     15.33s WALL (    6351 calls)
     fftw         :    142.41s CPU    146.24s WALL (  120506 calls)
     davcio       :      0.68s CPU      3.83s WALL (    5674 calls)
 
     Parallel routines
     fft_scatter  :    108.53s CPU    111.88s WALL (  126857 calls)
 
     PWSCF        :  4m33.71s CPU     4m51.89s WALL

 
   This run was terminated on:   0:44:46  29Jul2017            

=------------------------------------------------------------------------------=
   JOB DONE.
=------------------------------------------------------------------------------=
