
     Program PWSCF v.6.0 (svn rev. 13079) starts on 29Jul2017 at  1:23: 0 

     This program is part of the open-source Quantum ESPRESSO suite
     for quantum simulation of materials; please cite
         "P. Giannozzi et al., J. Phys.:Condens. Matter 21 395502 (2009);
          URL http://www.quantum-espresso.org", 
     in publications or presentations arising from this work. More details at
     http://www.quantum-espresso.org/quote

     Parallel version (MPI), running on    10 processors
     R & G space division:  proc/nbgrp/npool/nimage =      10
     Reading input from input/dftmin-Gold5-multi-18.in

     Current dimensions of program PWSCF are:
     Max number of different atomic species (ntypx) = 10
     Max number of k-points (npk) =  40000
     Max angular momentum in pseudopotentials (lmaxx) =  3
     Message from routine iosys:
     pot_extrapolation='second-order' not available, using 'atomic'
     Message from routine iosys:
     wfc_extrapolation='second-order' not available, using 'atomic'

     Subspace diagonalization in iterative solution of the eigenvalue problem:
     a serial algorithm will be used

 
     Parallelization info
     --------------------
     sticks:   dense  smooth     PW     G-vecs:    dense   smooth      PW
     Min         380     380     94                17748    17748    2208
     Max         381     381     95                17753    17753    2213
     Sum        3809    3809    949               177509   177509   22119
 


     bravais-lattice index     =            1
     lattice parameter (alat)  =      20.0000  a.u.
     unit-cell volume          =    8000.0000 (a.u.)^3
     number of atoms/cell      =            5
     number of atomic types    =            1
     number of electrons       =        55.00
     number of Kohn-Sham states=           34
     kinetic-energy cutoff     =      30.0000  Ry
     charge density cutoff     =     120.0000  Ry
     convergence threshold     =      1.0E-08
     mixing beta               =       0.7000
     number of iterations used =            8  plain     mixing
     Exchange-correlation      = BLYP ( 1  3  1  3 0 0)
     nstep                     =           50


     celldm(1)=  20.000000  celldm(2)=   0.000000  celldm(3)=   0.000000
     celldm(4)=   0.000000  celldm(5)=   0.000000  celldm(6)=   0.000000

     crystal axes: (cart. coord. in units of alat)
               a(1) = (   1.000000   0.000000   0.000000 )  
               a(2) = (   0.000000   1.000000   0.000000 )  
               a(3) = (   0.000000   0.000000   1.000000 )  

     reciprocal axes: (cart. coord. in units 2 pi/alat)
               b(1) = (  1.000000  0.000000  0.000000 )  
               b(2) = (  0.000000  1.000000  0.000000 )  
               b(3) = (  0.000000  0.000000  1.000000 )  


     PseudoPot. # 1 for Au read from file:
     ./Au.blyp-d-hgh.UPF
     MD5 check sum: c10d8bae01f806c36a1643a1c69a8479
     Pseudo is Norm-conserving, Zval = 11.0
     Generated in analytical, separable form
     Using radial grid of 1279 points,  6 beta functions with: 
                l(1) =   0
                l(2) =   0
                l(3) =   1
                l(4) =   1
                l(5) =   2
                l(6) =   2

     atomic species   valence    mass     pseudopotential
        Au            11.00    28.08600     Au( 1.00)

     No symmetry found



   Cartesian axes

     site n.     atom                  positions (alat units)
         1           Au  tau(   1) = (  -0.1099625   0.1349327  -0.0218463  )
         2           Au  tau(   2) = (   0.0014539   0.1069333   0.2130404  )
         3           Au  tau(   3) = (   0.1418775   0.0999861  -0.0025003  )
         4           Au  tau(   4) = (   0.2224138   0.2058716   0.2843548  )
         5           Au  tau(   5) = (   0.3546311   0.0587097   0.1151675  )

     number of k points=     1  Marzari-Vanderbilt smearing, width (Ry)=  0.0250
                       cart. coord. in units 2pi/alat
        k(    1) = (   0.0000000   0.0000000   0.0000000), wk =   2.0000000

     Dense  grid:   177509 G-vectors     FFT dimensions: (  72,  72,  72)

     Estimated max dynamical RAM per process >      15.04Mb

     Estimated total allocated dynamical RAM >     150.39Mb

     Initial potential from superposition of free atoms
     Check: negative starting charge=   -0.006359

     starting charge   54.99940, renormalised to   55.00000

     negative rho (up, down):  6.359E-03 0.000E+00
     Starting wfc are   45 randomized atomic wfcs

     total cpu time spent up to now is        0.4 secs

     per-process dynamical memory:    41.0 Mb

     Self-consistent Calculation

     iteration #  1     ecut=    30.00 Ry     beta=0.70
     Davidson diagonalization with overlap
     ethr =  1.00E-02,  avg # of iterations =  3.0

     Threshold (ethr) on eigenvalues was too large:
     Diagonalizing with lowered threshold

     Davidson diagonalization with overlap
     ethr =  3.84E-04,  avg # of iterations =  8.0

     negative rho (up, down):  8.623E-04 0.000E+00

     total cpu time spent up to now is        1.0 secs

     total energy              =    -329.36602120 Ry
     Harris-Foulkes estimate   =    -329.52685073 Ry
     estimated scf accuracy    <       0.27004334 Ry

     iteration #  2     ecut=    30.00 Ry     beta=0.70
     Davidson diagonalization with overlap
     ethr =  4.91E-04,  avg # of iterations =  4.0

     negative rho (up, down):  3.644E-04 0.000E+00

     total cpu time spent up to now is        1.3 secs

     total energy              =    -329.41008160 Ry
     Harris-Foulkes estimate   =    -329.53314343 Ry
     estimated scf accuracy    <       0.24485183 Ry

     iteration #  3     ecut=    30.00 Ry     beta=0.70
     Davidson diagonalization with overlap
     ethr =  4.45E-04,  avg # of iterations =  2.0

     negative rho (up, down):  1.563E-04 0.000E+00

     total cpu time spent up to now is        1.6 secs

     total energy              =    -329.45715414 Ry
     Harris-Foulkes estimate   =    -329.48547629 Ry
     estimated scf accuracy    <       0.07870106 Ry

     iteration #  4     ecut=    30.00 Ry     beta=0.70
     Davidson diagonalization with overlap
     ethr =  1.43E-04,  avg # of iterations =  2.0

     negative rho (up, down):  2.343E-05 0.000E+00

     total cpu time spent up to now is        1.9 secs

     total energy              =    -329.46991361 Ry
     Harris-Foulkes estimate   =    -329.47280281 Ry
     estimated scf accuracy    <       0.00765893 Ry

     iteration #  5     ecut=    30.00 Ry     beta=0.70
     Davidson diagonalization with overlap
     ethr =  1.39E-05,  avg # of iterations =  4.0

     total cpu time spent up to now is        2.2 secs

     total energy              =    -329.47162775 Ry
     Harris-Foulkes estimate   =    -329.47246470 Ry
     estimated scf accuracy    <       0.00251500 Ry

     iteration #  6     ecut=    30.00 Ry     beta=0.70
     Davidson diagonalization with overlap
     ethr =  4.57E-06,  avg # of iterations =  2.0

     total cpu time spent up to now is        2.5 secs

     total energy              =    -329.47200021 Ry
     Harris-Foulkes estimate   =    -329.47214936 Ry
     estimated scf accuracy    <       0.00033278 Ry

     iteration #  7     ecut=    30.00 Ry     beta=0.70
     Davidson diagonalization with overlap
     ethr =  6.05E-07,  avg # of iterations =  2.0

     total cpu time spent up to now is        2.7 secs

     total energy              =    -329.47207409 Ry
     Harris-Foulkes estimate   =    -329.47208663 Ry
     estimated scf accuracy    <       0.00002791 Ry

     iteration #  8     ecut=    30.00 Ry     beta=0.70
     Davidson diagonalization with overlap
     ethr =  5.07E-08,  avg # of iterations =  3.0

     total cpu time spent up to now is        3.1 secs

     total energy              =    -329.47207956 Ry
     Harris-Foulkes estimate   =    -329.47208411 Ry
     estimated scf accuracy    <       0.00000899 Ry

     iteration #  9     ecut=    30.00 Ry     beta=0.70
     Davidson diagonalization with overlap
     ethr =  1.63E-08,  avg # of iterations =  2.0

     total cpu time spent up to now is        3.4 secs

     total energy              =    -329.47208103 Ry
     Harris-Foulkes estimate   =    -329.47208183 Ry
     estimated scf accuracy    <       0.00000100 Ry

     iteration # 10     ecut=    30.00 Ry     beta=0.70
     Davidson diagonalization with overlap
     ethr =  1.82E-09,  avg # of iterations =  2.0

     total cpu time spent up to now is        3.7 secs

     total energy              =    -329.47208118 Ry
     Harris-Foulkes estimate   =    -329.47208135 Ry
     estimated scf accuracy    <       0.00000028 Ry

     iteration # 11     ecut=    30.00 Ry     beta=0.70
     Davidson diagonalization with overlap
     ethr =  5.04E-10,  avg # of iterations =  2.0

     total cpu time spent up to now is        4.0 secs

     total energy              =    -329.47208124 Ry
     Harris-Foulkes estimate   =    -329.47208125 Ry
     estimated scf accuracy    <       0.00000003 Ry

     iteration # 12     ecut=    30.00 Ry     beta=0.70
     Davidson diagonalization with overlap
     ethr =  6.10E-11,  avg # of iterations =  2.0

     total cpu time spent up to now is        4.3 secs

     End of self-consistent calculation

          k = 0.0000 0.0000 0.0000 ( 22119 PWs)   bands (ev):

    -8.3020  -7.7040  -7.5945  -7.2667  -7.0066  -6.7110  -6.6732  -6.5128
    -6.2299  -5.9646  -5.9215  -5.7378  -5.6424  -5.5716  -5.5258  -5.4710
    -5.2266  -5.2031  -5.1524  -5.1440  -5.1268  -4.9822  -4.9513  -4.9142
    -4.8600  -4.4640  -4.3762  -3.7256  -2.4784  -2.2642  -0.3560  -0.1897
     0.3677   0.7132

     the Fermi energy is    -3.7114 ev

!    total energy              =    -329.47208119 Ry
     Harris-Foulkes estimate   =    -329.47208125 Ry
     estimated scf accuracy    <          2.6E-09 Ry

     The total energy is the sum of the following terms:

     one-electron contribution =    -610.66683618 Ry
     hartree contribution      =     326.86969280 Ry
     xc contribution           =     -51.41873126 Ry
     ewald contribution        =       5.74387538 Ry
     smearing contrib. (-TS)   =      -0.00008193 Ry

     convergence has been achieved in  12 iterations

     Forces acting on atoms (Ry/au):

     atom    1 type  1   force =     0.00223476   -0.00297911    0.00268026
     atom    2 type  1   force =    -0.01784519    0.00747731   -0.00305930
     atom    3 type  1   force =    -0.01427149    0.00068521   -0.01022491
     atom    4 type  1   force =     0.01227158   -0.00694546   -0.00006951
     atom    5 type  1   force =     0.01761034    0.00176205    0.01067347

     Total force =     0.036599     Total SCF correction =     0.000178

     BFGS Geometry Optimization

     number of scf cycles    =   1
     number of bfgs steps    =   0

     energy   new            =    -329.4720811927 Ry

     new trust radius        =       0.0206676487 bohr
     new conv_thr            =       0.0000000100 Ry


ATOMIC_POSITIONS (bohr)
Au      -2.197015240   2.695673895  -0.434245745
Au       0.011232813   2.146144311   4.257748704
Au       2.823277511   2.000406209  -0.060230915
Au       4.460548577   4.110486537   5.687026490
Au       7.110231339   1.175956048   2.314023465



     Writing output data file pwscf.save
     Check: negative starting charge=   -0.006359
     NEW-OLD atomic charge density approx. for the potential
     Check: negative starting charge=   -0.006360

     negative rho (up, down):  9.484E-05 0.000E+00

     total cpu time spent up to now is        4.7 secs

     per-process dynamical memory:    42.9 Mb

     Self-consistent Calculation

     iteration #  1     ecut=    30.00 Ry     beta=0.70
     Davidson diagonalization with overlap
     ethr =  1.00E-06,  avg # of iterations =  4.0

     negative rho (up, down):  8.629E-07 0.000E+00

     total cpu time spent up to now is        5.1 secs

     total energy              =    -329.47317994 Ry
     Harris-Foulkes estimate   =    -329.47320023 Ry
     estimated scf accuracy    <       0.00010694 Ry

     iteration #  2     ecut=    30.00 Ry     beta=0.70
     Davidson diagonalization with overlap
     ethr =  1.94E-07,  avg # of iterations =  3.0

     negative rho (up, down):  1.388E-07 0.000E+00

     total cpu time spent up to now is        5.5 secs

     total energy              =    -329.47317654 Ry
     Harris-Foulkes estimate   =    -329.47327577 Ry
     estimated scf accuracy    <       0.00024325 Ry

     iteration #  3     ecut=    30.00 Ry     beta=0.70
     Davidson diagonalization with overlap
     ethr =  1.94E-07,  avg # of iterations =  2.0

     total cpu time spent up to now is        5.8 secs

     total energy              =    -329.47322819 Ry
     Harris-Foulkes estimate   =    -329.47323018 Ry
     estimated scf accuracy    <       0.00001224 Ry

     iteration #  4     ecut=    30.00 Ry     beta=0.70
     Davidson diagonalization with overlap
     ethr =  2.23E-08,  avg # of iterations =  2.0

     total cpu time spent up to now is        6.0 secs

     total energy              =    -329.47323141 Ry
     Harris-Foulkes estimate   =    -329.47323172 Ry
     estimated scf accuracy    <       0.00000239 Ry

     iteration #  5     ecut=    30.00 Ry     beta=0.70
     Davidson diagonalization with overlap
     ethr =  4.34E-09,  avg # of iterations =  2.0

     total cpu time spent up to now is        6.4 secs

     total energy              =    -329.47323218 Ry
     Harris-Foulkes estimate   =    -329.47323197 Ry
     estimated scf accuracy    <       0.00000016 Ry

     iteration #  6     ecut=    30.00 Ry     beta=0.70
     Davidson diagonalization with overlap
     ethr =  2.91E-10,  avg # of iterations =  3.0

     total cpu time spent up to now is        6.6 secs

     total energy              =    -329.47323223 Ry
     Harris-Foulkes estimate   =    -329.47323224 Ry
     estimated scf accuracy    <       0.00000005 Ry

     iteration #  7     ecut=    30.00 Ry     beta=0.70
     Davidson diagonalization with overlap
     ethr =  9.18E-11,  avg # of iterations =  2.0

     total cpu time spent up to now is        7.0 secs

     total energy              =    -329.47323226 Ry
     Harris-Foulkes estimate   =    -329.47323225 Ry
     estimated scf accuracy    <       0.00000003 Ry

     iteration #  8     ecut=    30.00 Ry     beta=0.70
     Davidson diagonalization with overlap
     ethr =  4.99E-11,  avg # of iterations =  2.0

     total cpu time spent up to now is        7.2 secs

     End of self-consistent calculation

          k = 0.0000 0.0000 0.0000 ( 22119 PWs)   bands (ev):

    -8.2951  -7.6899  -7.5741  -7.2507  -7.0080  -6.7047  -6.6685  -6.5036
    -6.2190  -5.9714  -5.9225  -5.7381  -5.6506  -5.5811  -5.5444  -5.4706
    -5.2252  -5.2025  -5.1498  -5.1449  -5.1370  -4.9917  -4.9653  -4.9265
    -4.8746  -4.4745  -4.3845  -3.7174  -2.4859  -2.2773  -0.3594  -0.1863
     0.3646   0.7018

     the Fermi energy is    -3.6984 ev

!    total energy              =    -329.47323229 Ry
     Harris-Foulkes estimate   =    -329.47323227 Ry
     estimated scf accuracy    <          3.3E-09 Ry

     The total energy is the sum of the following terms:

     one-electron contribution =    -609.79220778 Ry
     hartree contribution      =     326.42699352 Ry
     xc contribution           =     -51.41279545 Ry
     ewald contribution        =       5.30589449 Ry
     smearing contrib. (-TS)   =      -0.00111707 Ry

     convergence has been achieved in   8 iterations

     Forces acting on atoms (Ry/au):

     atom    1 type  1   force =    -0.00014171   -0.00260209    0.00158990
     atom    2 type  1   force =    -0.01414079    0.00842262   -0.00146055
     atom    3 type  1   force =    -0.00695326   -0.00069370   -0.00681345
     atom    4 type  1   force =     0.00889423   -0.00776706   -0.00062506
     atom    5 type  1   force =     0.01234153    0.00264023    0.00730916

     Total force =     0.027021     Total SCF correction =     0.000197

     number of scf cycles    =   2
     number of bfgs steps    =   1

     energy   old            =    -329.4720811927 Ry
     energy   new            =    -329.4732322919 Ry

     CASE: energy  _new < energy  _old

     new trust radius        =       0.0227344136 bohr
     new conv_thr            =       0.0000000012 Ry


ATOMIC_POSITIONS (bohr)
Au      -2.196914032   2.692102725  -0.431957638
Au      -0.008378555   2.157436546   4.255573099
Au       2.812956199   1.999636663  -0.069880906
Au       4.473012884   4.100067029   5.686248345
Au       7.127598504   1.179424038   2.324339100



     Writing output data file pwscf.save
     Check: negative starting charge=   -0.006360
     NEW-OLD atomic charge density approx. for the potential
     Check: negative starting charge=   -0.006364

     negative rho (up, down):  1.050E-04 0.000E+00

     total cpu time spent up to now is        7.5 secs

     per-process dynamical memory:    50.7 Mb

     Self-consistent Calculation

     iteration #  1     ecut=    30.00 Ry     beta=0.70
     Davidson diagonalization with overlap
     ethr =  1.00E-06,  avg # of iterations =  4.0

     negative rho (up, down):  1.010E-06 0.000E+00

     total cpu time spent up to now is        7.9 secs

     total energy              =    -329.47405896 Ry
     Harris-Foulkes estimate   =    -329.47407454 Ry
     estimated scf accuracy    <       0.00010845 Ry

     iteration #  2     ecut=    30.00 Ry     beta=0.70
     Davidson diagonalization with overlap
     ethr =  1.97E-07,  avg # of iterations =  3.0

     negative rho (up, down):  1.337E-07 0.000E+00

     total cpu time spent up to now is        8.2 secs

     total energy              =    -329.47405725 Ry
     Harris-Foulkes estimate   =    -329.47414587 Ry
     estimated scf accuracy    <       0.00020972 Ry

     iteration #  3     ecut=    30.00 Ry     beta=0.70
     Davidson diagonalization with overlap
     ethr =  1.97E-07,  avg # of iterations =  2.0

     total cpu time spent up to now is        8.5 secs

     total energy              =    -329.47410228 Ry
     Harris-Foulkes estimate   =    -329.47410795 Ry
     estimated scf accuracy    <       0.00001992 Ry

     iteration #  4     ecut=    30.00 Ry     beta=0.70
     Davidson diagonalization with overlap
     ethr =  3.62E-08,  avg # of iterations =  2.0

     total cpu time spent up to now is        8.8 secs

     total energy              =    -329.47410617 Ry
     Harris-Foulkes estimate   =    -329.47410840 Ry
     estimated scf accuracy    <       0.00000775 Ry

     iteration #  5     ecut=    30.00 Ry     beta=0.70
     Davidson diagonalization with overlap
     ethr =  1.41E-08,  avg # of iterations =  2.0

     total cpu time spent up to now is        9.1 secs

     total energy              =    -329.47410730 Ry
     Harris-Foulkes estimate   =    -329.47410887 Ry
     estimated scf accuracy    <       0.00000470 Ry

     iteration #  6     ecut=    30.00 Ry     beta=0.70
     Davidson diagonalization with overlap
     ethr =  8.55E-09,  avg # of iterations =  1.0

     total cpu time spent up to now is        9.3 secs

     total energy              =    -329.47410806 Ry
     Harris-Foulkes estimate   =    -329.47410802 Ry
     estimated scf accuracy    <       0.00000006 Ry

     iteration #  7     ecut=    30.00 Ry     beta=0.70
     Davidson diagonalization with overlap
     ethr =  1.15E-10,  avg # of iterations =  3.0

     total cpu time spent up to now is        9.7 secs

     total energy              =    -329.47410825 Ry
     Harris-Foulkes estimate   =    -329.47410810 Ry
     estimated scf accuracy    <       0.00000003 Ry

     iteration #  8     ecut=    30.00 Ry     beta=0.70
     Davidson diagonalization with overlap
     ethr =  5.09E-11,  avg # of iterations =  2.0

     total cpu time spent up to now is        9.9 secs

     total energy              =    -329.47410827 Ry
     Harris-Foulkes estimate   =    -329.47410825 Ry
     estimated scf accuracy    <          3.6E-09 Ry

     iteration #  9     ecut=    30.00 Ry     beta=0.70
     Davidson diagonalization with overlap
     ethr =  6.59E-12,  avg # of iterations =  2.0

     total cpu time spent up to now is       10.2 secs

     End of self-consistent calculation

          k = 0.0000 0.0000 0.0000 ( 22119 PWs)   bands (ev):

    -8.2870  -7.6751  -7.5543  -7.2361  -7.0135  -6.6999  -6.6660  -6.4912
    -6.2112  -5.9789  -5.9242  -5.7376  -5.6568  -5.5908  -5.5533  -5.4694
    -5.2245  -5.2027  -5.1502  -5.1444  -5.1427  -4.9997  -4.9764  -4.9355
    -4.8875  -4.4827  -4.3925  -3.7107  -2.4928  -2.2883  -0.3632  -0.1844
     0.3627   0.6921

     the Fermi energy is    -3.6881 ev

!    total energy              =    -329.47410827 Ry
     Harris-Foulkes estimate   =    -329.47410827 Ry
     estimated scf accuracy    <          3.9E-10 Ry

     The total energy is the sum of the following terms:

     one-electron contribution =    -608.93443146 Ry
     hartree contribution      =     325.99389936 Ry
     xc contribution           =     -51.40761824 Ry
     ewald contribution        =       4.87596102 Ry
     smearing contrib. (-TS)   =      -0.00191894 Ry

     convergence has been achieved in   9 iterations

     Forces acting on atoms (Ry/au):

     atom    1 type  1   force =    -0.00176079   -0.00226700    0.00065398
     atom    2 type  1   force =    -0.01061582    0.00907428   -0.00030942
     atom    3 type  1   force =    -0.00166211   -0.00174994   -0.00378156
     atom    4 type  1   force =     0.00580294   -0.00817694   -0.00101002
     atom    5 type  1   force =     0.00823578    0.00311960    0.00444703

     Total force =     0.020563     Total SCF correction =     0.000101

     number of scf cycles    =   3
     number of bfgs steps    =   2

     energy   old            =    -329.4732322919 Ry
     energy   new            =    -329.4741082688 Ry

     CASE: energy  _new < energy  _old

     new trust radius        =       0.0341016204 bohr
     new conv_thr            =       0.0000000009 Ry


ATOMIC_POSITIONS (bohr)
Au      -2.199177996   2.686606864  -0.429542320
Au      -0.035940114   2.177426197   4.253650910
Au       2.803583408   1.996735526  -0.081459736
Au       4.489227369   4.081933778   5.684358684
Au       7.150582333   1.185964635   2.337314462



     Writing output data file pwscf.save
     Check: negative starting charge=   -0.006364
     NEW-OLD atomic charge density approx. for the potential
     Check: negative starting charge=   -0.006374

     negative rho (up, down):  2.430E-04 0.000E+00

     total cpu time spent up to now is       10.6 secs

     per-process dynamical memory:    50.7 Mb

     Self-consistent Calculation

     iteration #  1     ecut=    30.00 Ry     beta=0.70
     Davidson diagonalization with overlap
     ethr =  1.00E-06,  avg # of iterations =  4.0

     negative rho (up, down):  5.106E-06 0.000E+00

     total cpu time spent up to now is       11.1 secs

     total energy              =    -329.47489261 Ry
     Harris-Foulkes estimate   =    -329.47489533 Ry
     estimated scf accuracy    <       0.00021157 Ry

     iteration #  2     ecut=    30.00 Ry     beta=0.70
     Davidson diagonalization with overlap
     ethr =  3.85E-07,  avg # of iterations =  3.0

     negative rho (up, down):  9.117E-07 0.000E+00

     total cpu time spent up to now is       11.4 secs

     total energy              =    -329.47489121 Ry
     Harris-Foulkes estimate   =    -329.47504954 Ry
     estimated scf accuracy    <       0.00036652 Ry

     iteration #  3     ecut=    30.00 Ry     beta=0.70
     Davidson diagonalization with overlap
     ethr =  3.85E-07,  avg # of iterations =  2.0

     negative rho (up, down):  1.620E-08 0.000E+00

     total cpu time spent up to now is       11.7 secs

     total energy              =    -329.47496674 Ry
     Harris-Foulkes estimate   =    -329.47498799 Ry
     estimated scf accuracy    <       0.00006350 Ry

     iteration #  4     ecut=    30.00 Ry     beta=0.70
     Davidson diagonalization with overlap
     ethr =  1.15E-07,  avg # of iterations =  2.0

     total cpu time spent up to now is       12.0 secs

     total energy              =    -329.47497745 Ry
     Harris-Foulkes estimate   =    -329.47498427 Ry
     estimated scf accuracy    <       0.00002032 Ry

     iteration #  5     ecut=    30.00 Ry     beta=0.70
     Davidson diagonalization with overlap
     ethr =  3.70E-08,  avg # of iterations =  2.0

     total cpu time spent up to now is       12.2 secs

     total energy              =    -329.47498138 Ry
     Harris-Foulkes estimate   =    -329.47498375 Ry
     estimated scf accuracy    <       0.00000816 Ry

     iteration #  6     ecut=    30.00 Ry     beta=0.70
     Davidson diagonalization with overlap
     ethr =  1.48E-08,  avg # of iterations =  1.0

     total cpu time spent up to now is       12.5 secs

     total energy              =    -329.47498262 Ry
     Harris-Foulkes estimate   =    -329.47498269 Ry
     estimated scf accuracy    <       0.00000014 Ry

     iteration #  7     ecut=    30.00 Ry     beta=0.70
     Davidson diagonalization with overlap
     ethr =  2.53E-10,  avg # of iterations =  3.0

     total cpu time spent up to now is       12.8 secs

     total energy              =    -329.47498256 Ry
     Harris-Foulkes estimate   =    -329.47498273 Ry
     estimated scf accuracy    <       0.00000005 Ry

     iteration #  8     ecut=    30.00 Ry     beta=0.70
     Davidson diagonalization with overlap
     ethr =  9.84E-11,  avg # of iterations =  2.0

     total cpu time spent up to now is       13.1 secs

     total energy              =    -329.47498266 Ry
     Harris-Foulkes estimate   =    -329.47498258 Ry
     estimated scf accuracy    <          7.9E-09 Ry

     iteration #  9     ecut=    30.00 Ry     beta=0.70
     Davidson diagonalization with overlap
     ethr =  1.44E-11,  avg # of iterations =  2.0

     total cpu time spent up to now is       13.4 secs

     End of self-consistent calculation

          k = 0.0000 0.0000 0.0000 ( 22119 PWs)   bands (ev):

    -8.2747  -7.6560  -7.5299  -7.2198  -7.0246  -6.6948  -6.6647  -6.4737
    -6.2039  -5.9893  -5.9291  -5.7356  -5.6635  -5.6050  -5.5538  -5.4670
    -5.2247  -5.2036  -5.1575  -5.1432  -5.1421  -5.0095  -4.9875  -4.9441
    -4.9030  -4.4914  -4.4031  -3.7036  -2.5019  -2.2998  -0.3689  -0.1835
     0.3615   0.6811

     the Fermi energy is    -3.6773 ev

!    total energy              =    -329.47498265 Ry
     Harris-Foulkes estimate   =    -329.47498266 Ry
     estimated scf accuracy    <          7.2E-10 Ry

     The total energy is the sum of the following terms:

     one-electron contribution =    -607.84895456 Ry
     hartree contribution      =     325.44691473 Ry
     xc contribution           =     -51.40172948 Ry
     ewald contribution        =       4.33153598 Ry
     smearing contrib. (-TS)   =      -0.00274932 Ry

     convergence has been achieved in   9 iterations

     Forces acting on atoms (Ry/au):

     atom    1 type  1   force =    -0.00299057   -0.00187472   -0.00044275
     atom    2 type  1   force =    -0.00641955    0.00958808    0.00072164
     atom    3 type  1   force =     0.00320959   -0.00268541   -0.00024994
     atom    4 type  1   force =     0.00220962   -0.00834035   -0.00120388
     atom    5 type  1   force =     0.00399091    0.00331240    0.00117492

     Total force =     0.016373     Total SCF correction =     0.000138

     number of scf cycles    =   4
     number of bfgs steps    =   3

     energy   old            =    -329.4741082688 Ry
     energy   new            =    -329.4749826501 Ry

     CASE: energy  _new < energy  _old

     new trust radius        =       0.0511524306 bohr
     new conv_thr            =       0.0000000009 Ry


ATOMIC_POSITIONS (bohr)
Au      -2.205003207   2.678194698  -0.427488867
Au      -0.074122873   2.211435900   4.252240882
Au       2.796463142   1.990307183  -0.094364263
Au       4.509698048   4.051647013   5.680917702
Au       7.181239891   1.197082207   2.353016546



     Writing output data file pwscf.save
     Check: negative starting charge=   -0.006374
     NEW-OLD atomic charge density approx. for the potential
     Check: negative starting charge=   -0.006393

     negative rho (up, down):  5.240E-04 0.000E+00

     total cpu time spent up to now is       13.8 secs

     per-process dynamical memory:    50.7 Mb

     Self-consistent Calculation

     iteration #  1     ecut=    30.00 Ry     beta=0.70
     Davidson diagonalization with overlap
     ethr =  1.00E-06,  avg # of iterations =  5.0

     negative rho (up, down):  2.062E-05 0.000E+00

     total cpu time spent up to now is       14.3 secs

     total energy              =    -329.47561611 Ry
     Harris-Foulkes estimate   =    -329.47549323 Ry
     estimated scf accuracy    <       0.00043547 Ry

     iteration #  2     ecut=    30.00 Ry     beta=0.70
     Davidson diagonalization with overlap
     ethr =  7.92E-07,  avg # of iterations =  4.0

     negative rho (up, down):  4.640E-06 0.000E+00

     total cpu time spent up to now is       14.6 secs

     total energy              =    -329.47562661 Ry
     Harris-Foulkes estimate   =    -329.47591459 Ry
     estimated scf accuracy    <       0.00064669 Ry

     iteration #  3     ecut=    30.00 Ry     beta=0.70
     Davidson diagonalization with overlap
     ethr =  7.92E-07,  avg # of iterations =  2.0

     negative rho (up, down):  2.350E-07 0.000E+00

     total cpu time spent up to now is       14.9 secs

     total energy              =    -329.47575487 Ry
     Harris-Foulkes estimate   =    -329.47581155 Ry
     estimated scf accuracy    <       0.00016281 Ry

     iteration #  4     ecut=    30.00 Ry     beta=0.70
     Davidson diagonalization with overlap
     ethr =  2.96E-07,  avg # of iterations =  2.0

     total cpu time spent up to now is       15.2 secs

     total energy              =    -329.47578418 Ry
     Harris-Foulkes estimate   =    -329.47579477 Ry
     estimated scf accuracy    <       0.00003316 Ry

     iteration #  5     ecut=    30.00 Ry     beta=0.70
     Davidson diagonalization with overlap
     ethr =  6.03E-08,  avg # of iterations =  2.0

     total cpu time spent up to now is       15.4 secs

     total energy              =    -329.47578991 Ry
     Harris-Foulkes estimate   =    -329.47579563 Ry
     estimated scf accuracy    <       0.00001618 Ry

     iteration #  6     ecut=    30.00 Ry     beta=0.70
     Davidson diagonalization with overlap
     ethr =  2.94E-08,  avg # of iterations =  1.0

     total cpu time spent up to now is       15.7 secs

     total energy              =    -329.47579243 Ry
     Harris-Foulkes estimate   =    -329.47579255 Ry
     estimated scf accuracy    <       0.00000034 Ry

     iteration #  7     ecut=    30.00 Ry     beta=0.70
     Davidson diagonalization with overlap
     ethr =  6.13E-10,  avg # of iterations =  3.0

     total cpu time spent up to now is       16.0 secs

     total energy              =    -329.47579255 Ry
     Harris-Foulkes estimate   =    -329.47579263 Ry
     estimated scf accuracy    <       0.00000010 Ry

     iteration #  8     ecut=    30.00 Ry     beta=0.70
     Davidson diagonalization with overlap
     ethr =  1.78E-10,  avg # of iterations =  2.0

     total cpu time spent up to now is       16.3 secs

     total energy              =    -329.47579249 Ry
     Harris-Foulkes estimate   =    -329.47579258 Ry
     estimated scf accuracy    <       0.00000002 Ry

     iteration #  9     ecut=    30.00 Ry     beta=0.70
     Davidson diagonalization with overlap
     ethr =  2.81E-11,  avg # of iterations =  2.0

     total cpu time spent up to now is       16.6 secs

     total energy              =    -329.47579249 Ry
     Harris-Foulkes estimate   =    -329.47579250 Ry
     estimated scf accuracy    <          1.5E-09 Ry

     iteration # 10     ecut=    30.00 Ry     beta=0.70
     Davidson diagonalization with overlap
     ethr =  2.81E-12,  avg # of iterations =  3.0

     total cpu time spent up to now is       16.9 secs

     End of self-consistent calculation

          k = 0.0000 0.0000 0.0000 ( 22119 PWs)   bands (ev):

    -8.2561  -7.6336  -7.5021  -7.2043  -7.0416  -6.6907  -6.6629  -6.4523
    -6.1971  -6.0040  -5.9384  -5.7302  -5.6719  -5.6200  -5.5462  -5.4631
    -5.2267  -5.2052  -5.1670  -5.1431  -5.1377  -5.0226  -4.9967  -4.9518
    -4.9212  -4.5003  -4.4174  -3.6967  -2.5152  -2.3094  -0.3773  -0.1844
     0.3616   0.6687

     the Fermi energy is    -3.6667 ev

!    total energy              =    -329.47579244 Ry
     Harris-Foulkes estimate   =    -329.47579249 Ry
     estimated scf accuracy    <          5.3E-10 Ry

     The total energy is the sum of the following terms:

     one-electron contribution =    -606.51406388 Ry
     hartree contribution      =     324.77481826 Ry
     xc contribution           =     -51.39525103 Ry
     ewald contribution        =       3.66228435 Ry
     smearing contrib. (-TS)   =      -0.00358014 Ry

     convergence has been achieved in  10 iterations

     Forces acting on atoms (Ry/au):

     atom    1 type  1   force =    -0.00341764   -0.00142092   -0.00163598
     atom    2 type  1   force =    -0.00162357    0.00967600    0.00123132
     atom    3 type  1   force =     0.00708143   -0.00318074    0.00375100
     atom    4 type  1   force =    -0.00184356   -0.00816985   -0.00088510
     atom    5 type  1   force =    -0.00019665    0.00309551   -0.00246125

     Total force =     0.016586     Total SCF correction =     0.000116

     number of scf cycles    =   5
     number of bfgs steps    =   4

     energy   old            =    -329.4749826501 Ry
     energy   new            =    -329.4757924373 Ry

     CASE: energy  _new < energy  _old

     new trust radius        =       0.0665490246 bohr
     new conv_thr            =       0.0000000008 Ry


ATOMIC_POSITIONS (bohr)
Au      -2.214589204   2.667037999  -0.427232138
Au      -0.118530550   2.260995624   4.251489496
Au       2.795201098   1.979753185  -0.103977260
Au       4.530138793   4.008116707   5.676537256
Au       7.216054864   1.212763485   2.367504646



     Writing output data file pwscf.save
     Check: negative starting charge=   -0.006393
     NEW-OLD atomic charge density approx. for the potential
     Check: negative starting charge=   -0.006406

     negative rho (up, down):  8.204E-04 0.000E+00

     total cpu time spent up to now is       17.2 secs

     per-process dynamical memory:    50.7 Mb

     Self-consistent Calculation

     iteration #  1     ecut=    30.00 Ry     beta=0.70
     Davidson diagonalization with overlap
     ethr =  1.00E-06,  avg # of iterations =  6.0

     negative rho (up, down):  4.440E-05 0.000E+00

     total cpu time spent up to now is       17.8 secs

     total energy              =    -329.47615127 Ry
     Harris-Foulkes estimate   =    -329.47584400 Ry
     estimated scf accuracy    <       0.00071576 Ry

     iteration #  2     ecut=    30.00 Ry     beta=0.70
     Davidson diagonalization with overlap
     ethr =  1.30E-06,  avg # of iterations =  4.0

     negative rho (up, down):  1.125E-05 0.000E+00

     total cpu time spent up to now is       18.2 secs

     total energy              =    -329.47618942 Ry
     Harris-Foulkes estimate   =    -329.47661568 Ry
     estimated scf accuracy    <       0.00094401 Ry

     iteration #  3     ecut=    30.00 Ry     beta=0.70
     Davidson diagonalization with overlap
     ethr =  1.30E-06,  avg # of iterations =  2.0

     negative rho (up, down):  1.139E-06 0.000E+00

     total cpu time spent up to now is       18.5 secs

     total energy              =    -329.47636780 Ry
     Harris-Foulkes estimate   =    -329.47647233 Ry
     estimated scf accuracy    <       0.00029837 Ry

     iteration #  4     ecut=    30.00 Ry     beta=0.70
     Davidson diagonalization with overlap
     ethr =  5.42E-07,  avg # of iterations =  2.0

     total cpu time spent up to now is       18.7 secs

     total energy              =    -329.47642289 Ry
     Harris-Foulkes estimate   =    -329.47643637 Ry
     estimated scf accuracy    <       0.00004317 Ry

     iteration #  5     ecut=    30.00 Ry     beta=0.70
     Davidson diagonalization with overlap
     ethr =  7.85E-08,  avg # of iterations =  2.0

     total cpu time spent up to now is       19.0 secs

     total energy              =    -329.47642954 Ry
     Harris-Foulkes estimate   =    -329.47643752 Ry
     estimated scf accuracy    <       0.00002089 Ry

     iteration #  6     ecut=    30.00 Ry     beta=0.70
     Davidson diagonalization with overlap
     ethr =  3.80E-08,  avg # of iterations =  2.0

     total cpu time spent up to now is       19.2 secs

     total energy              =    -329.47643268 Ry
     Harris-Foulkes estimate   =    -329.47643318 Ry
     estimated scf accuracy    <       0.00000054 Ry

     iteration #  7     ecut=    30.00 Ry     beta=0.70
     Davidson diagonalization with overlap
     ethr =  9.76E-10,  avg # of iterations =  3.0

     total cpu time spent up to now is       19.6 secs

     total energy              =    -329.47643304 Ry
     Harris-Foulkes estimate   =    -329.47643293 Ry
     estimated scf accuracy    <       0.00000013 Ry

     iteration #  8     ecut=    30.00 Ry     beta=0.70
     Davidson diagonalization with overlap
     ethr =  2.39E-10,  avg # of iterations =  2.0

     total cpu time spent up to now is       19.8 secs

     total energy              =    -329.47643306 Ry
     Harris-Foulkes estimate   =    -329.47643308 Ry
     estimated scf accuracy    <       0.00000002 Ry

     iteration #  9     ecut=    30.00 Ry     beta=0.70
     Davidson diagonalization with overlap
     ethr =  3.91E-11,  avg # of iterations =  2.0

     total cpu time spent up to now is       20.1 secs

     total energy              =    -329.47643304 Ry
     Harris-Foulkes estimate   =    -329.47643307 Ry
     estimated scf accuracy    <          3.0E-09 Ry

     iteration # 10     ecut=    30.00 Ry     beta=0.70
     Davidson diagonalization with overlap
     ethr =  5.48E-12,  avg # of iterations =  3.0

     total cpu time spent up to now is       20.5 secs

     total energy              =    -329.47643303 Ry
     Harris-Foulkes estimate   =    -329.47643304 Ry
     estimated scf accuracy    <          8.9E-10 Ry

     iteration # 11     ecut=    30.00 Ry     beta=0.70
     Davidson diagonalization with overlap
     ethr =  1.62E-12,  avg # of iterations =  2.0

     total cpu time spent up to now is       20.7 secs

     End of self-consistent calculation

          k = 0.0000 0.0000 0.0000 ( 22119 PWs)   bands (ev):

    -8.2329  -7.6153  -7.4795  -7.1986  -7.0583  -6.6945  -6.6558  -6.4352
    -6.1915  -6.0242  -5.9485  -5.7221  -5.6822  -5.6287  -5.5346  -5.4581
    -5.2312  -5.2071  -5.1746  -5.1453  -5.1327  -5.0384  -5.0018  -4.9580
    -4.9370  -4.5076  -4.4335  -3.6921  -2.5328  -2.3110  -0.3884  -0.1879
     0.3641   0.6580

     the Fermi energy is    -3.6594 ev

!    total energy              =    -329.47643302 Ry
     Harris-Foulkes estimate   =    -329.47643303 Ry
     estimated scf accuracy    <          6.5E-11 Ry

     The total energy is the sum of the following terms:

     one-electron contribution =    -605.22614231 Ry
     hartree contribution      =     324.12570045 Ry
     xc contribution           =     -51.38969253 Ry
     ewald contribution        =       3.01794449 Ry
     smearing contrib. (-TS)   =      -0.00424312 Ry

     convergence has been achieved in  11 iterations

     Forces acting on atoms (Ry/au):

     atom    1 type  1   force =    -0.00228705   -0.00105772   -0.00275397
     atom    2 type  1   force =     0.00218227    0.00883602    0.00136823
     atom    3 type  1   force =     0.00865801   -0.00280565    0.00728276
     atom    4 type  1   force =    -0.00564252   -0.00742153    0.00010358
     atom    5 type  1   force =    -0.00291072    0.00244888   -0.00600060

     Total force =     0.019285     Total SCF correction =     0.000034

     number of scf cycles    =   6
     number of bfgs steps    =   5

     energy   old            =    -329.4757924373 Ry
     energy   new            =    -329.4764330210 Ry

     CASE: energy  _new < energy  _old

     new trust radius        =       0.0640534188 bohr
     new conv_thr            =       0.0000000006 Ry


ATOMIC_POSITIONS (bohr)
Au      -2.223897289   2.656041535  -0.430124689
Au      -0.155153934   2.313545772   4.251713637
Au       2.801255401   1.968206609  -0.104191263
Au       4.541561170   3.962267218   5.673585039
Au       7.244509651   1.228605866   2.373339276



     Writing output data file pwscf.save
     Check: negative starting charge=   -0.006406
     NEW-OLD atomic charge density approx. for the potential
     Check: negative starting charge=   -0.006412

     negative rho (up, down):  7.678E-04 0.000E+00

     total cpu time spent up to now is       21.0 secs

     per-process dynamical memory:    50.7 Mb

     Self-consistent Calculation

     iteration #  1     ecut=    30.00 Ry     beta=0.70
     Davidson diagonalization with overlap
     ethr =  1.00E-06,  avg # of iterations =  5.0

     negative rho (up, down):  3.988E-05 0.000E+00

     total cpu time spent up to now is       21.6 secs

     total energy              =    -329.47674335 Ry
     Harris-Foulkes estimate   =    -329.47651843 Ry
     estimated scf accuracy    <       0.00067911 Ry

     iteration #  2     ecut=    30.00 Ry     beta=0.70
     Davidson diagonalization with overlap
     ethr =  1.23E-06,  avg # of iterations =  4.0

     negative rho (up, down):  8.980E-06 0.000E+00

     total cpu time spent up to now is       21.9 secs

     total energy              =    -329.47680853 Ry
     Harris-Foulkes estimate   =    -329.47716785 Ry
     estimated scf accuracy    <       0.00078208 Ry

     iteration #  3     ecut=    30.00 Ry     beta=0.70
     Davidson diagonalization with overlap
     ethr =  1.23E-06,  avg # of iterations =  2.0

     negative rho (up, down):  1.067E-06 0.000E+00

     total cpu time spent up to now is       22.2 secs

     total energy              =    -329.47694786 Ry
     Harris-Foulkes estimate   =    -329.47704863 Ry
     estimated scf accuracy    <       0.00028813 Ry

     iteration #  4     ecut=    30.00 Ry     beta=0.70
     Davidson diagonalization with overlap
     ethr =  5.24E-07,  avg # of iterations =  2.0

     total cpu time spent up to now is       22.4 secs

     total energy              =    -329.47700291 Ry
     Harris-Foulkes estimate   =    -329.47701202 Ry
     estimated scf accuracy    <       0.00003212 Ry

     iteration #  5     ecut=    30.00 Ry     beta=0.70
     Davidson diagonalization with overlap
     ethr =  5.84E-08,  avg # of iterations =  2.0

     total cpu time spent up to now is       22.8 secs

     total energy              =    -329.47700791 Ry
     Harris-Foulkes estimate   =    -329.47701168 Ry
     estimated scf accuracy    <       0.00000939 Ry

     iteration #  6     ecut=    30.00 Ry     beta=0.70
     Davidson diagonalization with overlap
     ethr =  1.71E-08,  avg # of iterations =  2.0

     total cpu time spent up to now is       23.0 secs

     total energy              =    -329.47700942 Ry
     Harris-Foulkes estimate   =    -329.47700982 Ry
     estimated scf accuracy    <       0.00000055 Ry

     iteration #  7     ecut=    30.00 Ry     beta=0.70
     Davidson diagonalization with overlap
     ethr =  9.97E-10,  avg # of iterations =  3.0

     total cpu time spent up to now is       23.4 secs

     total energy              =    -329.47700915 Ry
     Harris-Foulkes estimate   =    -329.47700960 Ry
     estimated scf accuracy    <       0.00000009 Ry

     iteration #  8     ecut=    30.00 Ry     beta=0.70
     Davidson diagonalization with overlap
     ethr =  1.55E-10,  avg # of iterations =  2.0

     total cpu time spent up to now is       23.6 secs

     total energy              =    -329.47700910 Ry
     Harris-Foulkes estimate   =    -329.47700918 Ry
     estimated scf accuracy    <       0.00000002 Ry

     iteration #  9     ecut=    30.00 Ry     beta=0.70
     Davidson diagonalization with overlap
     ethr =  4.11E-11,  avg # of iterations =  2.0

     total cpu time spent up to now is       23.9 secs

     total energy              =    -329.47700915 Ry
     Harris-Foulkes estimate   =    -329.47700911 Ry
     estimated scf accuracy    <          2.9E-09 Ry

     iteration # 10     ecut=    30.00 Ry     beta=0.70
     Davidson diagonalization with overlap
     ethr =  5.23E-12,  avg # of iterations =  2.0

     total cpu time spent up to now is       24.2 secs

     total energy              =    -329.47700914 Ry
     Harris-Foulkes estimate   =    -329.47700915 Ry
     estimated scf accuracy    <          8.4E-10 Ry

     iteration # 11     ecut=    30.00 Ry     beta=0.70
     Davidson diagonalization with overlap
     ethr =  1.52E-12,  avg # of iterations =  2.0

     total cpu time spent up to now is       24.5 secs

     End of self-consistent calculation

          k = 0.0000 0.0000 0.0000 ( 22119 PWs)   bands (ev):

    -8.2137  -7.6094  -7.4717  -7.2055  -7.0679  -6.7053  -6.6452  -6.4297
    -6.1881  -6.0458  -5.9525  -5.7151  -5.6882  -5.6311  -5.5264  -5.4535
    -5.2359  -5.2091  -5.1782  -5.1495  -5.1305  -5.0526  -5.0023  -4.9658
    -4.9403  -4.5109  -4.4463  -3.6928  -2.5483  -2.3028  -0.3998  -0.1933
     0.3687   0.6540

     the Fermi energy is    -3.6588 ev

!    total energy              =    -329.47700913 Ry
     Harris-Foulkes estimate   =    -329.47700914 Ry
     estimated scf accuracy    <          5.5E-11 Ry

     The total energy is the sum of the following terms:

     one-electron contribution =    -604.48773669 Ry
     hartree contribution      =     323.75150976 Ry
     xc contribution           =     -51.38693996 Ry
     ewald contribution        =       2.65069309 Ry
     smearing contrib. (-TS)   =      -0.00453533 Ry

     convergence has been achieved in  11 iterations

     Forces acting on atoms (Ry/au):

     atom    1 type  1   force =    -0.00001824   -0.00133103   -0.00340120
     atom    2 type  1   force =     0.00377744    0.00823903    0.00119500
     atom    3 type  1   force =     0.00758270   -0.00211034    0.00939581
     atom    4 type  1   force =    -0.00803754   -0.00619326    0.00133996
     atom    5 type  1   force =    -0.00330436    0.00139560   -0.00852958

     Total force =     0.020917     Total SCF correction =     0.000028

     number of scf cycles    =   7
     number of bfgs steps    =   6

     energy   old            =    -329.4764330210 Ry
     energy   new            =    -329.4770091273 Ry

     CASE: energy  _new < energy  _old

     new trust radius        =       0.0704587607 bohr
     new conv_thr            =       0.0000000006 Ry


ATOMIC_POSITIONS (bohr)
Au      -2.232100505   2.643274454  -0.435871863
Au      -0.190549354   2.374463711   4.252492025
Au       2.811542850   1.955080160  -0.096813471
Au       4.546826687   3.910270023   5.672233889
Au       7.272555321   1.245578652   2.372281420



     Writing output data file pwscf.save
     Check: negative starting charge=   -0.006412
     NEW-OLD atomic charge density approx. for the potential
     Check: negative starting charge=   -0.006415

     negative rho (up, down):  9.197E-04 0.000E+00

     total cpu time spent up to now is       24.7 secs

     per-process dynamical memory:    50.7 Mb

     Self-consistent Calculation

     iteration #  1     ecut=    30.00 Ry     beta=0.70
     Davidson diagonalization with overlap
     ethr =  1.00E-06,  avg # of iterations =  6.0

     negative rho (up, down):  5.525E-05 0.000E+00

     total cpu time spent up to now is       25.3 secs

     total energy              =    -329.47739302 Ry
     Harris-Foulkes estimate   =    -329.47709718 Ry
     estimated scf accuracy    <       0.00085115 Ry

     iteration #  2     ecut=    30.00 Ry     beta=0.70
     Davidson diagonalization with overlap
     ethr =  1.55E-06,  avg # of iterations =  5.0

     negative rho (up, down):  1.263E-05 0.000E+00

     total cpu time spent up to now is       25.7 secs

     total energy              =    -329.47750583 Ry
     Harris-Foulkes estimate   =    -329.47790965 Ry
     estimated scf accuracy    <       0.00086958 Ry

     iteration #  3     ecut=    30.00 Ry     beta=0.70
     Davidson diagonalization with overlap
     ethr =  1.55E-06,  avg # of iterations =  2.0

     negative rho (up, down):  1.904E-06 0.000E+00

     total cpu time spent up to now is       26.0 secs

     total energy              =    -329.47765668 Ry
     Harris-Foulkes estimate   =    -329.47776788 Ry
     estimated scf accuracy    <       0.00030798 Ry

     iteration #  4     ecut=    30.00 Ry     beta=0.70
     Davidson diagonalization with overlap
     ethr =  5.60E-07,  avg # of iterations =  2.0

     total cpu time spent up to now is       26.2 secs

     total energy              =    -329.47771899 Ry
     Harris-Foulkes estimate   =    -329.47773111 Ry
     estimated scf accuracy    <       0.00004457 Ry

     iteration #  5     ecut=    30.00 Ry     beta=0.70
     Davidson diagonalization with overlap
     ethr =  8.10E-08,  avg # of iterations =  2.0

     total cpu time spent up to now is       26.5 secs

     total energy              =    -329.47772567 Ry
     Harris-Foulkes estimate   =    -329.47772772 Ry
     estimated scf accuracy    <       0.00000471 Ry

     iteration #  6     ecut=    30.00 Ry     beta=0.70
     Davidson diagonalization with overlap
     ethr =  8.56E-09,  avg # of iterations =  2.0

     total cpu time spent up to now is       26.8 secs

     total energy              =    -329.47772636 Ry
     Harris-Foulkes estimate   =    -329.47772692 Ry
     estimated scf accuracy    <       0.00000049 Ry

     iteration #  7     ecut=    30.00 Ry     beta=0.70
     Davidson diagonalization with overlap
     ethr =  8.99E-10,  avg # of iterations =  2.0

     total cpu time spent up to now is       27.1 secs

     total energy              =    -329.47772631 Ry
     Harris-Foulkes estimate   =    -329.47772652 Ry
     estimated scf accuracy    <       0.00000010 Ry

     iteration #  8     ecut=    30.00 Ry     beta=0.70
     Davidson diagonalization with overlap
     ethr =  1.82E-10,  avg # of iterations =  2.0

     total cpu time spent up to now is       27.4 secs

     total energy              =    -329.47772617 Ry
     Harris-Foulkes estimate   =    -329.47772634 Ry
     estimated scf accuracy    <       0.00000002 Ry

     iteration #  9     ecut=    30.00 Ry     beta=0.70
     Davidson diagonalization with overlap
     ethr =  4.32E-11,  avg # of iterations =  2.0

     total cpu time spent up to now is       27.7 secs

     total energy              =    -329.47772614 Ry
     Harris-Foulkes estimate   =    -329.47772617 Ry
     estimated scf accuracy    <          1.2E-09 Ry

     iteration # 10     ecut=    30.00 Ry     beta=0.70
     Davidson diagonalization with overlap
     ethr =  2.14E-12,  avg # of iterations =  2.0

     total cpu time spent up to now is       27.9 secs

     End of self-consistent calculation

          k = 0.0000 0.0000 0.0000 ( 22119 PWs)   bands (ev):

    -8.1982  -7.6107  -7.4736  -7.2164  -7.0732  -6.7187  -6.6347  -6.4303
    -6.1849  -6.0699  -5.9513  -5.7086  -5.6911  -5.6318  -5.5206  -5.4483
    -5.2404  -5.2121  -5.1801  -5.1548  -5.1307  -5.0676  -5.0001  -4.9760
    -4.9364  -4.5121  -4.4580  -3.6977  -2.5628  -2.2884  -0.4127  -0.2005
     0.3753   0.6548

     the Fermi energy is    -3.6634 ev

!    total energy              =    -329.47772616 Ry
     Harris-Foulkes estimate   =    -329.47772614 Ry
     estimated scf accuracy    <          3.1E-10 Ry

     The total energy is the sum of the following terms:

     one-electron contribution =    -604.03191419 Ry
     hartree contribution      =     323.51823030 Ry
     xc contribution           =     -51.38567409 Ry
     ewald contribution        =       2.42624843 Ry
     smearing contrib. (-TS)   =      -0.00461661 Ry

     convergence has been achieved in  10 iterations

     Forces acting on atoms (Ry/au):

     atom    1 type  1   force =     0.00251305   -0.00236531   -0.00377900
     atom    2 type  1   force =     0.00478536    0.00849942    0.00055166
     atom    3 type  1   force =     0.00524978   -0.00163520    0.01099668
     atom    4 type  1   force =    -0.00978171   -0.00437226    0.00276235
     atom    5 type  1   force =    -0.00276648   -0.00012665   -0.01053168

     Total force =     0.022667     Total SCF correction =     0.000085

     number of scf cycles    =   8
     number of bfgs steps    =   7

     energy   old            =    -329.4770091273 Ry
     energy   new            =    -329.4777261559 Ry

     CASE: energy  _new < energy  _old

     new trust radius        =       0.1056881410 bohr
     new conv_thr            =       0.0000000007 Ry


ATOMIC_POSITIONS (bohr)
Au      -2.241206046   2.622565478  -0.446550063
Au      -0.238823178   2.468478380   4.253420981
Au       2.827918714   1.935192591  -0.078974626
Au       4.548078478   3.833180386   5.672661154
Au       7.312307032   1.269250164   2.363764553



     Writing output data file pwscf.save
     Check: negative starting charge=   -0.006415
     NEW-OLD atomic charge density approx. for the potential
     Check: negative starting charge=   -0.006394

     negative rho (up, down):  1.776E-03 0.000E+00

     total cpu time spent up to now is       28.3 secs

     per-process dynamical memory:    50.7 Mb

     Self-consistent Calculation

     iteration #  1     ecut=    30.00 Ry     beta=0.70
     Davidson diagonalization with overlap
     ethr =  1.00E-06,  avg # of iterations =  9.0

     negative rho (up, down):  1.558E-04 0.000E+00

     total cpu time spent up to now is       28.8 secs

     total energy              =    -329.47802719 Ry
     Harris-Foulkes estimate   =    -329.47732417 Ry
     estimated scf accuracy    <       0.00193151 Ry

     iteration #  2     ecut=    30.00 Ry     beta=0.70
     Davidson diagonalization with overlap
     ethr =  3.51E-06,  avg # of iterations =  5.0

     negative rho (up, down):  4.438E-05 0.000E+00

     total cpu time spent up to now is       29.2 secs

     total energy              =    -329.47836783 Ry
     Harris-Foulkes estimate   =    -329.47915318 Ry
     estimated scf accuracy    <       0.00170787 Ry

     iteration #  3     ecut=    30.00 Ry     beta=0.70
     Davidson diagonalization with overlap
     ethr =  3.11E-06,  avg # of iterations =  2.0

     negative rho (up, down):  9.246E-06 0.000E+00

     total cpu time spent up to now is       29.5 secs

     total energy              =    -329.47866578 Ry
     Harris-Foulkes estimate   =    -329.47885205 Ry
     estimated scf accuracy    <       0.00048484 Ry

     iteration #  4     ecut=    30.00 Ry     beta=0.70
     Davidson diagonalization with overlap
     ethr =  8.82E-07,  avg # of iterations =  2.0

     total cpu time spent up to now is       29.7 secs

     total energy              =    -329.47877413 Ry
     Harris-Foulkes estimate   =    -329.47881072 Ry
     estimated scf accuracy    <       0.00013585 Ry

     iteration #  5     ecut=    30.00 Ry     beta=0.70
     Davidson diagonalization with overlap
     ethr =  2.47E-07,  avg # of iterations =  1.0

     total cpu time spent up to now is       30.0 secs

     total energy              =    -329.47879312 Ry
     Harris-Foulkes estimate   =    -329.47879630 Ry
     estimated scf accuracy    <       0.00000702 Ry

     iteration #  6     ecut=    30.00 Ry     beta=0.70
     Davidson diagonalization with overlap
     ethr =  1.28E-08,  avg # of iterations =  3.0

     total cpu time spent up to now is       30.3 secs

     total energy              =    -329.47879503 Ry
     Harris-Foulkes estimate   =    -329.47879555 Ry
     estimated scf accuracy    <       0.00000070 Ry

     iteration #  7     ecut=    30.00 Ry     beta=0.70
     Davidson diagonalization with overlap
     ethr =  1.27E-09,  avg # of iterations =  2.0

     total cpu time spent up to now is       30.6 secs

     total energy              =    -329.47879513 Ry
     Harris-Foulkes estimate   =    -329.47879530 Ry
     estimated scf accuracy    <       0.00000027 Ry

     iteration #  8     ecut=    30.00 Ry     beta=0.70
     Davidson diagonalization with overlap
     ethr =  4.97E-10,  avg # of iterations =  2.0

     total cpu time spent up to now is       30.9 secs

     total energy              =    -329.47879511 Ry
     Harris-Foulkes estimate   =    -329.47879520 Ry
     estimated scf accuracy    <       0.00000004 Ry

     iteration #  9     ecut=    30.00 Ry     beta=0.70
     Davidson diagonalization with overlap
     ethr =  7.47E-11,  avg # of iterations =  2.0

     total cpu time spent up to now is       31.2 secs

     total energy              =    -329.47879512 Ry
     Harris-Foulkes estimate   =    -329.47879512 Ry
     estimated scf accuracy    <          2.4E-09 Ry

     iteration # 10     ecut=    30.00 Ry     beta=0.70
     Davidson diagonalization with overlap
     ethr =  4.39E-12,  avg # of iterations =  2.0

     total cpu time spent up to now is       31.5 secs

     End of self-consistent calculation

          k = 0.0000 0.0000 0.0000 ( 22119 PWs)   bands (ev):

    -8.1822  -7.6167  -7.4849  -7.2267  -7.0737  -6.7357  -6.6234  -6.4346
    -6.1815  -6.1025  -5.9434  -5.6998  -5.6905  -5.6319  -5.5145  -5.4392
    -5.2468  -5.2167  -5.1837  -5.1608  -5.1341  -5.0889  -4.9954  -4.9901
    -4.9283  -4.5136  -4.4730  -3.7085  -2.5821  -2.2646  -0.4319  -0.2115
     0.3858   0.6615

     the Fermi energy is    -3.6744 ev

!    total energy              =    -329.47879510 Ry
     Harris-Foulkes estimate   =    -329.47879512 Ry
     estimated scf accuracy    <          3.9E-10 Ry

     The total energy is the sum of the following terms:

     one-electron contribution =    -603.54766255 Ry
     hartree contribution      =     323.26899319 Ry
     xc contribution           =     -51.38482783 Ry
     ewald contribution        =       2.18925964 Ry
     smearing contrib. (-TS)   =      -0.00455754 Ry

     convergence has been achieved in  10 iterations

     Forces acting on atoms (Ry/au):

     atom    1 type  1   force =     0.00554554   -0.00365919   -0.00425170
     atom    2 type  1   force =     0.00617222    0.00720987   -0.00022484
     atom    3 type  1   force =     0.00151935   -0.00059562    0.01269533
     atom    4 type  1   force =    -0.01151113   -0.00122133    0.00457499
     atom    5 type  1   force =    -0.00172598   -0.00173373   -0.01279378

     Total force =     0.025314     Total SCF correction =     0.000095

     number of scf cycles    =   9
     number of bfgs steps    =   8

     energy   old            =    -329.4777261559 Ry
     energy   new            =    -329.4787951010 Ry

     CASE: energy  _new < energy  _old

     new trust radius        =       0.1585322115 bohr
     new conv_thr            =       0.0000000011 Ry


ATOMIC_POSITIONS (bohr)
Au      -2.249456250   2.588177649  -0.467986167
Au      -0.299823320   2.614796026   4.255030758
Au       2.856555132   1.904851217  -0.035774853
Au       4.534639263   3.718133657   5.678432899
Au       7.366360175   1.302708451   2.334619363



     Writing output data file pwscf.save
     Check: negative starting charge=   -0.006394
     NEW-OLD atomic charge density approx. for the potential
     Check: negative starting charge=   -0.006348

     negative rho (up, down):  3.327E-03 0.000E+00

     total cpu time spent up to now is       31.8 secs

     per-process dynamical memory:    50.7 Mb

     Self-consistent Calculation

     iteration #  1     ecut=    30.00 Ry     beta=0.70
     Davidson diagonalization with overlap
     ethr =  1.00E-06,  avg # of iterations = 11.0

     negative rho (up, down):  3.818E-04 0.000E+00

     total cpu time spent up to now is       32.6 secs

     total energy              =    -329.47857399 Ry
     Harris-Foulkes estimate   =    -329.47879186 Ry
     estimated scf accuracy    <       0.00451599 Ry

     iteration #  2     ecut=    30.00 Ry     beta=0.70
     Davidson diagonalization with overlap
     ethr =  8.21E-06,  avg # of iterations =  6.0

     negative rho (up, down):  1.275E-04 0.000E+00

     total cpu time spent up to now is       33.0 secs

     total energy              =    -329.47954642 Ry
     Harris-Foulkes estimate   =    -329.48108603 Ry
     estimated scf accuracy    <       0.00340810 Ry

     iteration #  3     ecut=    30.00 Ry     beta=0.70
     Davidson diagonalization with overlap
     ethr =  6.20E-06,  avg # of iterations =  2.0

     negative rho (up, down):  2.439E-05 0.000E+00

     total cpu time spent up to now is       33.3 secs

     total energy              =    -329.48017573 Ry
     Harris-Foulkes estimate   =    -329.48041450 Ry
     estimated scf accuracy    <       0.00056114 Ry

     iteration #  4     ecut=    30.00 Ry     beta=0.70
     Davidson diagonalization with overlap
     ethr =  1.02E-06,  avg # of iterations =  3.0

     total cpu time spent up to now is       33.6 secs

     total energy              =    -329.48029940 Ry
     Harris-Foulkes estimate   =    -329.48044305 Ry
     estimated scf accuracy    <       0.00048475 Ry

     iteration #  5     ecut=    30.00 Ry     beta=0.70
     Davidson diagonalization with overlap
     ethr =  8.81E-07,  avg # of iterations =  1.0

     total cpu time spent up to now is       33.8 secs

     total energy              =    -329.48036606 Ry
     Harris-Foulkes estimate   =    -329.48037385 Ry
     estimated scf accuracy    <       0.00001730 Ry

     iteration #  6     ecut=    30.00 Ry     beta=0.70
     Davidson diagonalization with overlap
     ethr =  3.14E-08,  avg # of iterations =  3.0

     total cpu time spent up to now is       34.1 secs

     total energy              =    -329.48037159 Ry
     Harris-Foulkes estimate   =    -329.48037226 Ry
     estimated scf accuracy    <       0.00000158 Ry

     iteration #  7     ecut=    30.00 Ry     beta=0.70
     Davidson diagonalization with overlap
     ethr =  2.87E-09,  avg # of iterations =  2.0

     total cpu time spent up to now is       34.5 secs

     total energy              =    -329.48037166 Ry
     Harris-Foulkes estimate   =    -329.48037210 Ry
     estimated scf accuracy    <       0.00000050 Ry

     iteration #  8     ecut=    30.00 Ry     beta=0.70
     Davidson diagonalization with overlap
     ethr =  9.09E-10,  avg # of iterations =  2.0

     total cpu time spent up to now is       34.9 secs

     total energy              =    -329.48037180 Ry
     Harris-Foulkes estimate   =    -329.48037180 Ry
     estimated scf accuracy    <       0.00000011 Ry

     iteration #  9     ecut=    30.00 Ry     beta=0.70
     Davidson diagonalization with overlap
     ethr =  1.94E-10,  avg # of iterations =  2.0

     total cpu time spent up to now is       35.2 secs

     total energy              =    -329.48037185 Ry
     Harris-Foulkes estimate   =    -329.48037183 Ry
     estimated scf accuracy    <          7.1E-09 Ry

     iteration # 10     ecut=    30.00 Ry     beta=0.70
     Davidson diagonalization with overlap
     ethr =  1.29E-11,  avg # of iterations =  3.0

     total cpu time spent up to now is       35.7 secs

     total energy              =    -329.48037184 Ry
     Harris-Foulkes estimate   =    -329.48037185 Ry
     estimated scf accuracy    <          2.0E-09 Ry

     iteration # 11     ecut=    30.00 Ry     beta=0.70
     Davidson diagonalization with overlap
     ethr =  3.56E-12,  avg # of iterations =  2.0

     total cpu time spent up to now is       36.1 secs

     End of self-consistent calculation

          k = 0.0000 0.0000 0.0000 ( 22119 PWs)   bands (ev):

    -8.1739  -7.6271  -7.5136  -7.2297  -7.0708  -6.7482  -6.6148  -6.4391
    -6.1832  -6.1339  -5.9284  -5.6867  -5.6773  -5.6315  -5.5083  -5.4226
    -5.2570  -5.2272  -5.1864  -5.1697  -5.1442  -5.1150  -5.0057  -4.9845
    -4.9127  -4.5234  -4.4832  -3.7330  -2.6025  -2.2266  -0.4599  -0.2288
     0.4024   0.6854

     the Fermi energy is    -3.7011 ev

!    total energy              =    -329.48037183 Ry
     Harris-Foulkes estimate   =    -329.48037184 Ry
     estimated scf accuracy    <          2.0E-10 Ry

     The total energy is the sum of the following terms:

     one-electron contribution =    -603.22814210 Ry
     hartree contribution      =     323.10199408 Ry
     xc contribution           =     -51.38506118 Ry
     ewald contribution        =       2.03486197 Ry
     smearing contrib. (-TS)   =      -0.00402461 Ry

     convergence has been achieved in  11 iterations

     Forces acting on atoms (Ry/au):

     atom    1 type  1   force =     0.00968578   -0.00407568   -0.00365152
     atom    2 type  1   force =     0.00647807    0.00441493   -0.00317254
     atom    3 type  1   force =    -0.00527386    0.00224854    0.01435753
     atom    4 type  1   force =    -0.01151752   -0.00054871    0.00589561
     atom    5 type  1   force =     0.00062752   -0.00203908   -0.01342908

     Total force =     0.028052     Total SCF correction =     0.000058

     number of scf cycles    =  10
     number of bfgs steps    =   9

     energy   old            =    -329.4787951010 Ry
     energy   new            =    -329.4803718279 Ry

     CASE: energy  _new < energy  _old

     new trust radius        =       0.2377983173 bohr
     new conv_thr            =       0.0000000014 Ry


ATOMIC_POSITIONS (bohr)
Au      -2.253259475   2.533931038  -0.503537958
Au      -0.383248500   2.837472663   4.253188443
Au       2.895741512   1.862431268   0.045281143
Au       4.502809859   3.541783054   5.691902638
Au       7.446231604   1.353048977   2.277487734



     Writing output data file pwscf.save
     Check: negative starting charge=   -0.006348
     NEW-OLD atomic charge density approx. for the potential
     Check: negative starting charge=   -0.006367

     negative rho (up, down):  5.589E-03 0.000E+00

     total cpu time spent up to now is       36.5 secs

     per-process dynamical memory:    50.7 Mb

     Self-consistent Calculation

     iteration #  1     ecut=    30.00 Ry     beta=0.70
     Davidson diagonalization with overlap
     ethr =  1.00E-06,  avg # of iterations = 20.0

     negative rho (up, down):  3.429E-04 0.000E+00

     total cpu time spent up to now is       37.6 secs

     total energy              =    -290.92332754 Ry
     Harris-Foulkes estimate   =    -336.91055425 Ry
     estimated scf accuracy    <       3.39234639 Ry

     iteration #  2     ecut=    30.00 Ry     beta=0.70
     Davidson diagonalization with overlap
     ethr =  6.17E-03,  avg # of iterations =  3.0

     negative rho (up, down):  7.157E-05 0.000E+00

     total cpu time spent up to now is       37.9 secs

     total energy              =    -326.02663409 Ry
     Harris-Foulkes estimate   =    -332.16610752 Ry
     estimated scf accuracy    <      21.94279858 Ry

     iteration #  3     ecut=    30.00 Ry     beta=0.70
     Davidson diagonalization with overlap
     ethr =  6.17E-03,  avg # of iterations =  3.0

     negative rho (up, down):  2.978E-05 0.000E+00

     total cpu time spent up to now is       38.2 secs

     total energy              =    -328.95091329 Ry
     Harris-Foulkes estimate   =    -330.69944157 Ry
     estimated scf accuracy    <       5.20989064 Ry

     iteration #  4     ecut=    30.00 Ry     beta=0.70
     Davidson diagonalization with overlap
     ethr =  6.17E-03,  avg # of iterations =  2.0

     negative rho (up, down):  2.149E-05 0.000E+00

     total cpu time spent up to now is       38.5 secs

     total energy              =    -329.50722043 Ry
     Harris-Foulkes estimate   =    -329.80781828 Ry
     estimated scf accuracy    <       1.09743954 Ry

     iteration #  5     ecut=    30.00 Ry     beta=0.70
     Davidson diagonalization with overlap
     ethr =  2.00E-03,  avg # of iterations =  1.0

     negative rho (up, down):  1.758E-05 0.000E+00

     total cpu time spent up to now is       38.8 secs

     total energy              =    -329.53032225 Ry
     Harris-Foulkes estimate   =    -329.59030087 Ry
     estimated scf accuracy    <       0.45268627 Ry

     iteration #  6     ecut=    30.00 Ry     beta=0.70
     Davidson diagonalization with overlap
     ethr =  8.23E-04,  avg # of iterations =  1.0

     negative rho (up, down):  1.408E-05 0.000E+00

     total cpu time spent up to now is       39.1 secs

     total energy              =    -329.49832136 Ry
     Harris-Foulkes estimate   =    -329.53896234 Ry
     estimated scf accuracy    <       0.31614165 Ry

     iteration #  7     ecut=    30.00 Ry     beta=0.70
     Davidson diagonalization with overlap
     ethr =  5.75E-04,  avg # of iterations =  1.0

     negative rho (up, down):  9.732E-06 0.000E+00

     total cpu time spent up to now is       39.3 secs

     total energy              =    -329.47833159 Ry
     Harris-Foulkes estimate   =    -329.50224414 Ry
     estimated scf accuracy    <       0.21084850 Ry

     iteration #  8     ecut=    30.00 Ry     beta=0.70
     Davidson diagonalization with overlap
     ethr =  3.83E-04,  avg # of iterations =  6.0

     negative rho (up, down):  7.057E-06 0.000E+00

     total cpu time spent up to now is       39.6 secs

     total energy              =    -329.47337109 Ry
     Harris-Foulkes estimate   =    -329.48073334 Ry
     estimated scf accuracy    <       0.13298161 Ry

     iteration #  9     ecut=    30.00 Ry     beta=0.70
     Davidson diagonalization with overlap
     ethr =  2.42E-04,  avg # of iterations =  1.0

     negative rho (up, down):  4.187E-06 0.000E+00

     total cpu time spent up to now is       39.8 secs

     total energy              =    -329.47057374 Ry
     Harris-Foulkes estimate   =    -329.47403404 Ry
     estimated scf accuracy    <       0.09680377 Ry

     iteration # 10     ecut=    30.00 Ry     beta=0.70
     Davidson diagonalization with overlap
     ethr =  1.76E-04,  avg # of iterations =  4.0

     negative rho (up, down):  3.465E-06 0.000E+00

     total cpu time spent up to now is       40.1 secs

     total energy              =    -329.48165961 Ry
     Harris-Foulkes estimate   =    -329.47102762 Ry
     estimated scf accuracy    <       0.06768276 Ry

     iteration # 11     ecut=    30.00 Ry     beta=0.70
     Davidson diagonalization with overlap
     ethr =  1.23E-04,  avg # of iterations =  2.0

     total cpu time spent up to now is       40.4 secs

     total energy              =    -329.48201330 Ry
     Harris-Foulkes estimate   =    -329.48639360 Ry
     estimated scf accuracy    <       0.00922253 Ry

     iteration # 12     ecut=    30.00 Ry     beta=0.70
     Davidson diagonalization with overlap
     ethr =  1.68E-05,  avg # of iterations =  5.0

     total cpu time spent up to now is       40.7 secs

     total energy              =    -329.48225111 Ry
     Harris-Foulkes estimate   =    -329.48345382 Ry
     estimated scf accuracy    <       0.00292035 Ry

     iteration # 13     ecut=    30.00 Ry     beta=0.70
     Davidson diagonalization with overlap
     ethr =  5.31E-06,  avg # of iterations =  4.0

     total cpu time spent up to now is       41.0 secs

     total energy              =    -329.48259292 Ry
     Harris-Foulkes estimate   =    -329.48304091 Ry
     estimated scf accuracy    <       0.00076822 Ry

     iteration # 14     ecut=    30.00 Ry     beta=0.70
     Davidson diagonalization with overlap
     ethr =  1.40E-06,  avg # of iterations =  2.0

     total cpu time spent up to now is       41.3 secs

     total energy              =    -329.48272944 Ry
     Harris-Foulkes estimate   =    -329.48278506 Ry
     estimated scf accuracy    <       0.00011372 Ry

     iteration # 15     ecut=    30.00 Ry     beta=0.70
     Davidson diagonalization with overlap
     ethr =  2.07E-07,  avg # of iterations =  2.0

     total cpu time spent up to now is       41.6 secs

     total energy              =    -329.48274465 Ry
     Harris-Foulkes estimate   =    -329.48276369 Ry
     estimated scf accuracy    <       0.00004479 Ry

     iteration # 16     ecut=    30.00 Ry     beta=0.70
     Davidson diagonalization with overlap
     ethr =  8.14E-08,  avg # of iterations =  2.0

     total cpu time spent up to now is       42.0 secs

     total energy              =    -329.48275127 Ry
     Harris-Foulkes estimate   =    -329.48275790 Ry
     estimated scf accuracy    <       0.00001687 Ry

     iteration # 17     ecut=    30.00 Ry     beta=0.70
     Davidson diagonalization with overlap
     ethr =  3.07E-08,  avg # of iterations =  2.0

     total cpu time spent up to now is       42.2 secs

     total energy              =    -329.48275475 Ry
     Harris-Foulkes estimate   =    -329.48275548 Ry
     estimated scf accuracy    <       0.00000281 Ry

     iteration # 18     ecut=    30.00 Ry     beta=0.70
     Davidson diagonalization with overlap
     ethr =  5.12E-09,  avg # of iterations =  2.0

     total cpu time spent up to now is       42.4 secs

     total energy              =    -329.48275531 Ry
     Harris-Foulkes estimate   =    -329.48275540 Ry
     estimated scf accuracy    <       0.00000035 Ry

     iteration # 19     ecut=    30.00 Ry     beta=0.70
     Davidson diagonalization with overlap
     ethr =  6.31E-10,  avg # of iterations =  2.0

     total cpu time spent up to now is       42.7 secs

     total energy              =    -329.48275537 Ry
     Harris-Foulkes estimate   =    -329.48275538 Ry
     estimated scf accuracy    <       0.00000003 Ry

     iteration # 20     ecut=    30.00 Ry     beta=0.70
     Davidson diagonalization with overlap
     ethr =  6.33E-11,  avg # of iterations =  2.0

     total cpu time spent up to now is       42.9 secs

     total energy              =    -329.48275539 Ry
     Harris-Foulkes estimate   =    -329.48275539 Ry
     estimated scf accuracy    <       0.00000001 Ry

     iteration # 21     ecut=    30.00 Ry     beta=0.70
     Davidson diagonalization with overlap
     ethr =  2.63E-11,  avg # of iterations =  2.0

     total cpu time spent up to now is       43.3 secs

     total energy              =    -329.48275540 Ry
     Harris-Foulkes estimate   =    -329.48275540 Ry
     estimated scf accuracy    <          1.8E-09 Ry

     iteration # 22     ecut=    30.00 Ry     beta=0.70
     Davidson diagonalization with overlap
     ethr =  3.33E-12,  avg # of iterations =  2.0

     total cpu time spent up to now is       43.6 secs

     End of self-consistent calculation

          k = 0.0000 0.0000 0.0000 ( 22119 PWs)   bands (ev):

    -8.1829  -7.6328  -7.5493  -7.2069  -7.0491  -6.7361  -6.6206  -6.4391
    -6.2129  -6.1198  -5.9174  -5.6665  -5.6570  -5.6311  -5.4834  -5.3938
    -5.2761  -5.2515  -5.1883  -5.1823  -5.1532  -5.1392  -5.0235  -4.9645
    -4.8928  -4.5677  -4.4735  -3.7702  -2.6240  -2.1815  -0.4971  -0.2496
     0.4244   0.7375

     the Fermi energy is    -3.7428 ev

!    total energy              =    -329.48275540 Ry
     Harris-Foulkes estimate   =    -329.48275540 Ry
     estimated scf accuracy    <          1.6E-10 Ry

     The total energy is the sum of the following terms:

     one-electron contribution =    -602.68772634 Ry
     hartree contribution      =     322.82922819 Ry
     xc contribution           =     -51.38546197 Ry
     ewald contribution        =       1.76418795 Ry
     smearing contrib. (-TS)   =      -0.00298323 Ry

     convergence has been achieved in  22 iterations

     Forces acting on atoms (Ry/au):

     atom    1 type  1   force =     0.01437596   -0.00339972   -0.00047644
     atom    2 type  1   force =     0.00588021    0.00071135   -0.00683466
     atom    3 type  1   force =    -0.01362365    0.00478777    0.01390546
     atom    4 type  1   force =    -0.00919814    0.00157368    0.00460296
     atom    5 type  1   force =     0.00256562   -0.00367308   -0.01119732

     Total force =     0.030917     Total SCF correction =     0.000040

     number of scf cycles    =  11
     number of bfgs steps    =  10

     energy   old            =    -329.4803718279 Ry
     energy   new            =    -329.4827553965 Ry

     CASE: energy  _new < energy  _old

     new trust radius        =       0.1144351891 bohr
     new conv_thr            =       0.0000000014 Ry


ATOMIC_POSITIONS (bohr)
Au      -2.240454618   2.504952532  -0.523883686
Au      -0.407364215   2.949103948   4.245956499
Au       2.910351826   1.845447095   0.110755383
Au       4.467505146   3.454975728   5.703160257
Au       7.478236863   1.374187697   2.228333547



     Writing output data file pwscf.save
     Check: negative starting charge=   -0.006367
     NEW-OLD atomic charge density approx. for the potential
     Check: negative starting charge=   -0.006416

     negative rho (up, down):  2.511E-03 0.000E+00

     total cpu time spent up to now is       44.0 secs

     per-process dynamical memory:    50.7 Mb

     Self-consistent Calculation

     iteration #  1     ecut=    30.00 Ry     beta=0.70
     Davidson diagonalization with overlap
     ethr =  1.00E-06,  avg # of iterations = 10.0

     negative rho (up, down):  2.637E-04 0.000E+00

     total cpu time spent up to now is       44.7 secs

     total energy              =    -329.48303956 Ry
     Harris-Foulkes estimate   =    -329.48218520 Ry
     estimated scf accuracy    <       0.00300761 Ry

     iteration #  2     ecut=    30.00 Ry     beta=0.70
     Davidson diagonalization with overlap
     ethr =  5.47E-06,  avg # of iterations =  6.0

     negative rho (up, down):  7.985E-05 0.000E+00

     total cpu time spent up to now is       45.0 secs

     total energy              =    -329.48367854 Ry
     Harris-Foulkes estimate   =    -329.48469702 Ry
     estimated scf accuracy    <       0.00226404 Ry

     iteration #  3     ecut=    30.00 Ry     beta=0.70
     Davidson diagonalization with overlap
     ethr =  4.12E-06,  avg # of iterations =  2.0

     negative rho (up, down):  1.343E-05 0.000E+00

     total cpu time spent up to now is       45.3 secs

     total energy              =    -329.48409897 Ry
     Harris-Foulkes estimate   =    -329.48427378 Ry
     estimated scf accuracy    <       0.00042491 Ry

     iteration #  4     ecut=    30.00 Ry     beta=0.70
     Davidson diagonalization with overlap
     ethr =  7.73E-07,  avg # of iterations =  2.0

     total cpu time spent up to now is       45.6 secs

     total energy              =    -329.48419932 Ry
     Harris-Foulkes estimate   =    -329.48427482 Ry
     estimated scf accuracy    <       0.00025608 Ry

     iteration #  5     ecut=    30.00 Ry     beta=0.70
     Davidson diagonalization with overlap
     ethr =  4.66E-07,  avg # of iterations =  1.0

     total cpu time spent up to now is       45.8 secs

     total energy              =    -329.48423408 Ry
     Harris-Foulkes estimate   =    -329.48424138 Ry
     estimated scf accuracy    <       0.00001817 Ry

     iteration #  6     ecut=    30.00 Ry     beta=0.70
     Davidson diagonalization with overlap
     ethr =  3.30E-08,  avg # of iterations =  2.0

     total cpu time spent up to now is       46.1 secs

     total energy              =    -329.48423885 Ry
     Harris-Foulkes estimate   =    -329.48423956 Ry
     estimated scf accuracy    <       0.00000158 Ry

     iteration #  7     ecut=    30.00 Ry     beta=0.70
[...]

     iteration #  4     ecut=    30.00 Ry     beta=0.70
     Davidson diagonalization with overlap
     ethr =  1.52E-08,  avg # of iterations =  2.0

     total cpu time spent up to now is      170.0 secs

     total energy              =    -329.49165221 Ry
     Harris-Foulkes estimate   =    -329.49165633 Ry
     estimated scf accuracy    <       0.00001039 Ry

     iteration #  5     ecut=    30.00 Ry     beta=0.70
     Davidson diagonalization with overlap
     ethr =  1.52E-08,  avg # of iterations =  2.0

     total cpu time spent up to now is      170.3 secs

     total energy              =    -329.49165396 Ry
     Harris-Foulkes estimate   =    -329.49165409 Ry
     estimated scf accuracy    <       0.00000035 Ry

     iteration #  6     ecut=    30.00 Ry     beta=0.70
     Davidson diagonalization with overlap
     ethr =  6.30E-10,  avg # of iterations =  2.0

     total cpu time spent up to now is      170.5 secs

     total energy              =    -329.49165402 Ry
     Harris-Foulkes estimate   =    -329.49165406 Ry
     estimated scf accuracy    <       0.00000002 Ry

     iteration #  7     ecut=    30.00 Ry     beta=0.70
     Davidson diagonalization with overlap
     ethr =  3.85E-11,  avg # of iterations =  3.0

     total cpu time spent up to now is      170.9 secs

     total energy              =    -329.49165397 Ry
     Harris-Foulkes estimate   =    -329.49165404 Ry
     estimated scf accuracy    <       0.00000001 Ry

     iteration #  8     ecut=    30.00 Ry     beta=0.70
     Davidson diagonalization with overlap
     ethr =  2.36E-11,  avg # of iterations =  2.0

     total cpu time spent up to now is      171.3 secs

     total energy              =    -329.49165392 Ry
     Harris-Foulkes estimate   =    -329.49165397 Ry
     estimated scf accuracy    <          3.8E-09 Ry

     iteration #  9     ecut=    30.00 Ry     beta=0.70
     Davidson diagonalization with overlap
     ethr =  6.94E-12,  avg # of iterations =  2.0

     total cpu time spent up to now is      171.5 secs

     total energy              =    -329.49165390 Ry
     Harris-Foulkes estimate   =    -329.49165393 Ry
     estimated scf accuracy    <          1.9E-10 Ry

     iteration # 10     ecut=    30.00 Ry     beta=0.70
     Davidson diagonalization with overlap
     ethr =  3.42E-13,  avg # of iterations =  2.0

     total cpu time spent up to now is      171.9 secs

     End of self-consistent calculation

          k = 0.0000 0.0000 0.0000 ( 22119 PWs)   bands (ev):

    -8.5192  -7.7922  -7.6551  -7.2375  -6.8540  -6.8219  -6.6190  -6.4857
    -6.3058  -6.0770  -5.9574  -5.7736  -5.7303  -5.6866  -5.4574  -5.3630
    -5.3138  -5.2470  -5.2006  -5.1798  -5.1734  -5.1232  -4.9997  -4.9242
    -4.8357  -4.7324  -4.4799  -3.7844  -2.4922  -2.1841  -0.5575  -0.2172
     0.5569   0.8448

     the Fermi energy is    -3.7526 ev

!    total energy              =    -329.49165389 Ry
     Harris-Foulkes estimate   =    -329.49165390 Ry
     estimated scf accuracy    <          3.6E-11 Ry

     The total energy is the sum of the following terms:

     one-electron contribution =    -609.32846589 Ry
     hartree contribution      =     326.09453524 Ry
     xc contribution           =     -51.40334474 Ry
     ewald contribution        =       5.14980512 Ry
     smearing contrib. (-TS)   =      -0.00418362 Ry

     convergence has been achieved in  10 iterations

     Forces acting on atoms (Ry/au):

     atom    1 type  1   force =    -0.00011466   -0.00105371    0.00026223
     atom    2 type  1   force =     0.00006128    0.00046330   -0.00044800
     atom    3 type  1   force =     0.00152519    0.00131649   -0.00005232
     atom    4 type  1   force =    -0.00022441   -0.00008925    0.00016665
     atom    5 type  1   force =    -0.00124740   -0.00063683    0.00007144

     Total force =     0.002780     Total SCF correction =     0.000026

     number of scf cycles    =  48
     number of bfgs steps    =  47

     energy   old            =    -329.4916074503 Ry
     energy   new            =    -329.4916538908 Ry

     CASE: energy  _new < energy  _old

     new trust radius        =       0.0368021342 bohr
     new conv_thr            =            1.0E-10 Ry


ATOMIC_POSITIONS (bohr)
Au      -2.033424618   2.587055339  -0.605422435
Au      -0.564177316   3.659431585   4.229216270
Au       2.813724775   1.725937598   0.518415381
Au       4.407011773   3.079308984   5.568479327
Au       7.585140387   1.076933495   2.053633456



     Writing output data file pwscf.save
     Check: negative starting charge=   -0.006476
     NEW-OLD atomic charge density approx. for the potential
     Check: negative starting charge=   -0.006474

     negative rho (up, down):  4.267E-04 0.000E+00

     total cpu time spent up to now is      172.1 secs

     per-process dynamical memory:    50.7 Mb

     Self-consistent Calculation

     iteration #  1     ecut=    30.00 Ry     beta=0.70
     Davidson diagonalization with overlap
     ethr =  1.00E-06,  avg # of iterations =  5.0

     negative rho (up, down):  1.449E-05 0.000E+00

     total cpu time spent up to now is      172.7 secs

     total energy              =    -329.49156897 Ry
     Harris-Foulkes estimate   =    -329.49156333 Ry
     estimated scf accuracy    <       0.00039024 Ry

     iteration #  2     ecut=    30.00 Ry     beta=0.70
     Davidson diagonalization with overlap
     ethr =  7.10E-07,  avg # of iterations =  5.0

     negative rho (up, down):  1.998E-06 0.000E+00

     total cpu time spent up to now is      173.0 secs

     total energy              =    -329.49163425 Ry
     Harris-Foulkes estimate   =    -329.49180334 Ry
     estimated scf accuracy    <       0.00036066 Ry

     iteration #  3     ecut=    30.00 Ry     beta=0.70
     Davidson diagonalization with overlap
     ethr =  6.56E-07,  avg # of iterations =  2.0

     negative rho (up, down):  2.087E-08 0.000E+00

     total cpu time spent up to now is      173.3 secs

     total energy              =    -329.49170661 Ry
     Harris-Foulkes estimate   =    -329.49172268 Ry
     estimated scf accuracy    <       0.00003727 Ry

     iteration #  4     ecut=    30.00 Ry     beta=0.70
     Davidson diagonalization with overlap
     ethr =  6.78E-08,  avg # of iterations =  2.0

     total cpu time spent up to now is      173.6 secs

     total energy              =    -329.49171474 Ry
     Harris-Foulkes estimate   =    -329.49172607 Ry
     estimated scf accuracy    <       0.00003300 Ry

     iteration #  5     ecut=    30.00 Ry     beta=0.70
     Davidson diagonalization with overlap
     ethr =  6.00E-08,  avg # of iterations =  2.0

     total cpu time spent up to now is      173.8 secs

     total energy              =    -329.49172004 Ry
     Harris-Foulkes estimate   =    -329.49172086 Ry
     estimated scf accuracy    <       0.00000146 Ry

     iteration #  6     ecut=    30.00 Ry     beta=0.70
     Davidson diagonalization with overlap
     ethr =  2.65E-09,  avg # of iterations =  3.0

     total cpu time spent up to now is      174.1 secs

     total energy              =    -329.49172050 Ry
     Harris-Foulkes estimate   =    -329.49172047 Ry
     estimated scf accuracy    <       0.00000009 Ry

     iteration #  7     ecut=    30.00 Ry     beta=0.70
     Davidson diagonalization with overlap
     ethr =  1.58E-10,  avg # of iterations =  2.0

     total cpu time spent up to now is      174.4 secs

     total energy              =    -329.49172058 Ry
     Harris-Foulkes estimate   =    -329.49172054 Ry
     estimated scf accuracy    <       0.00000006 Ry

     iteration #  8     ecut=    30.00 Ry     beta=0.70
     Davidson diagonalization with overlap
     ethr =  1.07E-10,  avg # of iterations =  2.0

     total cpu time spent up to now is      174.7 secs

     total energy              =    -329.49172054 Ry
     Harris-Foulkes estimate   =    -329.49172060 Ry
     estimated scf accuracy    <       0.00000002 Ry

     iteration #  9     ecut=    30.00 Ry     beta=0.70
     Davidson diagonalization with overlap
     ethr =  3.09E-11,  avg # of iterations =  2.0

     total cpu time spent up to now is      175.0 secs

     total energy              =    -329.49172056 Ry
     Harris-Foulkes estimate   =    -329.49172055 Ry
     estimated scf accuracy    <          5.2E-10 Ry

     iteration # 10     ecut=    30.00 Ry     beta=0.70
     Davidson diagonalization with overlap
     ethr =  9.37E-13,  avg # of iterations =  3.0

     total cpu time spent up to now is      175.4 secs

     total energy              =    -329.49172057 Ry
     Harris-Foulkes estimate   =    -329.49172056 Ry
     estimated scf accuracy    <          1.7E-10 Ry

     iteration # 11     ecut=    30.00 Ry     beta=0.70
     Davidson diagonalization with overlap
     ethr =  3.06E-13,  avg # of iterations =  2.0

     total cpu time spent up to now is      175.8 secs

     End of self-consistent calculation

          k = 0.0000 0.0000 0.0000 ( 22119 PWs)   bands (ev):

    -8.5180  -7.7962  -7.6617  -7.2475  -6.8558  -6.8198  -6.6218  -6.4913
    -6.3123  -6.0757  -5.9589  -5.7716  -5.7277  -5.6886  -5.4630  -5.3620
    -5.3144  -5.2476  -5.1996  -5.1824  -5.1725  -5.1228  -5.0049  -4.9223
    -4.8363  -4.7311  -4.4807  -3.7814  -2.4950  -2.1799  -0.5585  -0.2147
     0.5489   0.8495

     the Fermi energy is    -3.7490 ev

!    total energy              =    -329.49172056 Ry
     Harris-Foulkes estimate   =    -329.49172057 Ry
     estimated scf accuracy    <          3.8E-11 Ry

     The total energy is the sum of the following terms:

     one-electron contribution =    -609.42139783 Ry
     hartree contribution      =     326.13828079 Ry
     xc contribution           =     -51.40346989 Ry
     ewald contribution        =       5.19916398 Ry
     smearing contrib. (-TS)   =      -0.00429761 Ry

     convergence has been achieved in  11 iterations

     Forces acting on atoms (Ry/au):

     atom    1 type  1   force =     0.00081120   -0.00103397    0.00003253
     atom    2 type  1   force =    -0.00041415    0.00099099    0.00007765
     atom    3 type  1   force =     0.00119875    0.00014872   -0.00024810
     atom    4 type  1   force =    -0.00031213   -0.00000372    0.00072902
     atom    5 type  1   force =    -0.00128366   -0.00010203   -0.00059110

     Total force =     0.002654     Total SCF correction =     0.000023

     number of scf cycles    =  49
     number of bfgs steps    =  48

     energy   old            =    -329.4916538908 Ry
     energy   new            =    -329.4917205591 Ry

     CASE: energy  _new < energy  _old

     new trust radius        =       0.0404503729 bohr
     new conv_thr            =            1.0E-10 Ry


ATOMIC_POSITIONS (bohr)
Au      -2.032877601   2.569680697  -0.613757964
Au      -0.562152294   3.693873913   4.208100921
Au       2.820813874   1.747896372   0.525437060
Au       4.394113857   3.048540091   5.578365687
Au       7.588377164   1.068675927   2.066176296



     Writing output data file pwscf.save
     Check: negative starting charge=   -0.006474
     NEW-OLD atomic charge density approx. for the potential
     Check: negative starting charge=   -0.006475

     negative rho (up, down):  4.509E-04 0.000E+00

     total cpu time spent up to now is      176.2 secs

     per-process dynamical memory:    50.7 Mb

     Self-consistent Calculation

     iteration #  1     ecut=    30.00 Ry     beta=0.70
     Davidson diagonalization with overlap
     ethr =  1.00E-06,  avg # of iterations =  5.0

     negative rho (up, down):  1.579E-05 0.000E+00

     total cpu time spent up to now is      176.7 secs

     total energy              =    -329.49161418 Ry
     Harris-Foulkes estimate   =    -329.49160226 Ry
     estimated scf accuracy    <       0.00039179 Ry

     iteration #  2     ecut=    30.00 Ry     beta=0.70
     Davidson diagonalization with overlap
     ethr =  7.12E-07,  avg # of iterations =  4.0

     negative rho (up, down):  1.957E-06 0.000E+00

     total cpu time spent up to now is      177.0 secs

     total energy              =    -329.49169265 Ry
     Harris-Foulkes estimate   =    -329.49184155 Ry
     estimated scf accuracy    <       0.00031327 Ry

     iteration #  3     ecut=    30.00 Ry     beta=0.70
     Davidson diagonalization with overlap
     ethr =  5.70E-07,  avg # of iterations =  2.0

     negative rho (up, down):  1.305E-08 0.000E+00

     total cpu time spent up to now is      177.4 secs

     total energy              =    -329.49175438 Ry
     Harris-Foulkes estimate   =    -329.49176582 Ry
     estimated scf accuracy    <       0.00002384 Ry

     iteration #  4     ecut=    30.00 Ry     beta=0.70
     Davidson diagonalization with overlap
     ethr =  4.33E-08,  avg # of iterations =  2.0

     total cpu time spent up to now is      177.8 secs

     total energy              =    -329.49175954 Ry
     Harris-Foulkes estimate   =    -329.49176962 Ry
     estimated scf accuracy    <       0.00003107 Ry

     iteration #  5     ecut=    30.00 Ry     beta=0.70
     Davidson diagonalization with overlap
     ethr =  4.33E-08,  avg # of iterations =  2.0

     total cpu time spent up to now is      178.1 secs

     total energy              =    -329.49176466 Ry
     Harris-Foulkes estimate   =    -329.49176518 Ry
     estimated scf accuracy    <       0.00000132 Ry

     iteration #  6     ecut=    30.00 Ry     beta=0.70
     Davidson diagonalization with overlap
     ethr =  2.39E-09,  avg # of iterations =  2.0

     total cpu time spent up to now is      178.3 secs

     total energy              =    -329.49176490 Ry
     Harris-Foulkes estimate   =    -329.49176499 Ry
     estimated scf accuracy    <       0.00000010 Ry

     iteration #  7     ecut=    30.00 Ry     beta=0.70
     Davidson diagonalization with overlap
     ethr =  1.91E-10,  avg # of iterations =  3.0

     total cpu time spent up to now is      178.6 secs

     total energy              =    -329.49176503 Ry
     Harris-Foulkes estimate   =    -329.49176494 Ry
     estimated scf accuracy    <       0.00000005 Ry

     iteration #  8     ecut=    30.00 Ry     beta=0.70
     Davidson diagonalization with overlap
     ethr =  8.79E-11,  avg # of iterations =  2.0

     total cpu time spent up to now is      178.9 secs

     total energy              =    -329.49176505 Ry
     Harris-Foulkes estimate   =    -329.49176504 Ry
     estimated scf accuracy    <          9.8E-09 Ry

     iteration #  9     ecut=    30.00 Ry     beta=0.70
     Davidson diagonalization with overlap
     ethr =  1.78E-11,  avg # of iterations =  2.0

     total cpu time spent up to now is      179.1 secs

     total energy              =    -329.49176504 Ry
     Harris-Foulkes estimate   =    -329.49176505 Ry
     estimated scf accuracy    <          1.3E-09 Ry

     iteration # 10     ecut=    30.00 Ry     beta=0.70
     Davidson diagonalization with overlap
     ethr =  2.34E-12,  avg # of iterations =  2.0

     total cpu time spent up to now is      179.4 secs

     total energy              =    -329.49176505 Ry
     Harris-Foulkes estimate   =    -329.49176504 Ry
     estimated scf accuracy    <          1.9E-10 Ry

     iteration # 11     ecut=    30.00 Ry     beta=0.70
     Davidson diagonalization with overlap
     ethr =  3.53E-13,  avg # of iterations =  2.0

     total cpu time spent up to now is      179.7 secs

     End of self-consistent calculation

          k = 0.0000 0.0000 0.0000 ( 22119 PWs)   bands (ev):

    -8.5249  -7.8040  -7.6715  -7.2545  -6.8502  -6.8233  -6.6214  -6.4993
    -6.3165  -6.0808  -5.9562  -5.7718  -5.7282  -5.6896  -5.4710  -5.3586
    -5.3136  -5.2514  -5.1987  -5.1825  -5.1727  -5.1214  -5.0073  -4.9223
    -4.8315  -4.7332  -4.4835  -3.7789  -2.4949  -2.1781  -0.5605  -0.2112
     0.5473   0.8452

     the Fermi energy is    -3.7459 ev

!    total energy              =    -329.49176506 Ry
     Harris-Foulkes estimate   =    -329.49176505 Ry
     estimated scf accuracy    <          2.4E-11 Ry

     The total energy is the sum of the following terms:

     one-electron contribution =    -609.66255449 Ry
     hartree contribution      =     326.25547049 Ry
     xc contribution           =     -51.40398647 Ry
     ewald contribution        =       5.32375366 Ry
     smearing contrib. (-TS)   =      -0.00444825 Ry

     convergence has been achieved in  11 iterations

     Forces acting on atoms (Ry/au):

     atom    1 type  1   force =     0.00126910   -0.00066837    0.00004955
     atom    2 type  1   force =    -0.00059239    0.00104842    0.00002114
     atom    3 type  1   force =     0.00072842   -0.00092533   -0.00098249
     atom    4 type  1   force =    -0.00024841    0.00024142    0.00138747
     atom    5 type  1   force =    -0.00115673    0.00030386   -0.00047567

     Total force =     0.003093     Total SCF correction =     0.000021

     number of scf cycles    =  50
     number of bfgs steps    =  49

     energy   old            =    -329.4917205591 Ry
     energy   new            =    -329.4917650643 Ry

     CASE: energy  _new < energy  _old

     new trust radius        =       0.0353318580 bohr
     new conv_thr            =            1.0E-10 Ry


ATOMIC_POSITIONS (bohr)
Au      -2.029320725   2.555397360  -0.622305539
Au      -0.560125992   3.720609934   4.187835511
Au       2.827754123   1.760892019   0.534559798
Au       4.381844086   3.018718386   5.592803791
Au       7.588123508   1.073049300   2.071428439



     Writing output data file pwscf.save
     Check: negative starting charge=   -0.006475
     NEW-OLD atomic charge density approx. for the potential
     Check: negative starting charge=   -0.006484

     negative rho (up, down):  3.285E-04 0.000E+00

     Writing output data file pwscf.save
 
     init_run     :      0.20s CPU      0.24s WALL (       1 calls)
     electrons    :    156.12s CPU    166.02s WALL (      50 calls)
     update_pot   :      4.66s CPU      5.82s WALL (      50 calls)
     forces       :      2.51s CPU      2.57s WALL (      50 calls)

     Called by init_run:
     wfcinit      :      0.07s CPU      0.10s WALL (       1 calls)
     potinit      :      0.03s CPU      0.03s WALL (       1 calls)

     Called by electrons:
     c_bands      :    117.30s CPU    119.33s WALL (     527 calls)
     sum_band     :     14.16s CPU     14.50s WALL (     527 calls)
     v_of_rho     :     13.24s CPU     13.48s WALL (     564 calls)
     mix_rho      :      6.93s CPU     11.03s WALL (     527 calls)

     Called by c_bands:
     init_us_2    :      1.67s CPU      1.73s WALL (    1055 calls)
     cegterg      :    107.35s CPU    109.10s WALL (     527 calls)

     Called by sum_band:

     Called by *egterg:
     h_psi        :     81.55s CPU     82.84s WALL (    1956 calls)
     g_psi        :      0.63s CPU      0.64s WALL (    1428 calls)
     cdiaghg      :      6.91s CPU      7.02s WALL (    1892 calls)

     Called by h_psi:
     h_psi:pot    :     80.62s CPU     81.91s WALL (    1956 calls)
     h_psi:calbec :      9.73s CPU      9.98s WALL (    1956 calls)
     vloc_psi     :     66.99s CPU     68.01s WALL (    1956 calls)
     add_vuspsi   :      3.90s CPU      3.91s WALL (    1956 calls)

     General routines
     calbec       :     10.53s CPU     10.82s WALL (    2156 calls)
     fft          :      7.83s CPU      8.03s WALL (    6332 calls)
     fftw         :     71.06s CPU     72.62s WALL (  119324 calls)
     davcio       :      0.70s CPU      3.84s WALL (    5614 calls)
 
     Parallel routines
     fft_scatter  :     30.61s CPU     30.91s WALL (  125656 calls)
 
     PWSCF        :  2m45.97s CPU     3m 0.19s WALL

 
   This run was terminated on:   1:26: 0  29Jul2017            

=------------------------------------------------------------------------------=
   JOB DONE.
=------------------------------------------------------------------------------=
