
     Program PWSCF v.6.0 (svn rev. 13079) starts on 29Jul2017 at  0:56:46 

     This program is part of the open-source Quantum ESPRESSO suite
     for quantum simulation of materials; please cite
         "P. Giannozzi et al., J. Phys.:Condens. Matter 21 395502 (2009);
          URL http://www.quantum-espresso.org", 
     in publications or presentations arising from this work. More details at
     http://www.quantum-espresso.org/quote

     Parallel version (MPI), running on    10 processors
     R & G space division:  proc/nbgrp/npool/nimage =      10
     Reading input from input/dftmin-Gold5-multi-5.in

     Current dimensions of program PWSCF are:
     Max number of different atomic species (ntypx) = 10
     Max number of k-points (npk) =  40000
     Max angular momentum in pseudopotentials (lmaxx) =  3
     Message from routine iosys:
     pot_extrapolation='second-order' not available, using 'atomic'
     Message from routine iosys:
     wfc_extrapolation='second-order' not available, using 'atomic'

     Subspace diagonalization in iterative solution of the eigenvalue problem:
     a serial algorithm will be used

 
     Parallelization info
     --------------------
     sticks:   dense  smooth     PW     G-vecs:    dense   smooth      PW
     Min         380     380     94                17748    17748    2208
     Max         381     381     95                17753    17753    2213
     Sum        3809    3809    949               177509   177509   22119
 


     bravais-lattice index     =            1
     lattice parameter (alat)  =      20.0000  a.u.
     unit-cell volume          =    8000.0000 (a.u.)^3
     number of atoms/cell      =            5
     number of atomic types    =            1
     number of electrons       =        55.00
     number of Kohn-Sham states=           34
     kinetic-energy cutoff     =      30.0000  Ry
     charge density cutoff     =     120.0000  Ry
     convergence threshold     =      1.0E-08
     mixing beta               =       0.7000
     number of iterations used =            8  plain     mixing
     Exchange-correlation      = BLYP ( 1  3  1  3 0 0)
     nstep                     =           50


     celldm(1)=  20.000000  celldm(2)=   0.000000  celldm(3)=   0.000000
     celldm(4)=   0.000000  celldm(5)=   0.000000  celldm(6)=   0.000000

     crystal axes: (cart. coord. in units of alat)
               a(1) = (   1.000000   0.000000   0.000000 )  
               a(2) = (   0.000000   1.000000   0.000000 )  
               a(3) = (   0.000000   0.000000   1.000000 )  

     reciprocal axes: (cart. coord. in units 2 pi/alat)
               b(1) = (  1.000000  0.000000  0.000000 )  
               b(2) = (  0.000000  1.000000  0.000000 )  
               b(3) = (  0.000000  0.000000  1.000000 )  


     PseudoPot. # 1 for Au read from file:
     ./Au.blyp-d-hgh.UPF
     MD5 check sum: c10d8bae01f806c36a1643a1c69a8479
     Pseudo is Norm-conserving, Zval = 11.0
     Generated in analytical, separable form
     Using radial grid of 1279 points,  6 beta functions with: 
                l(1) =   0
                l(2) =   0
                l(3) =   1
                l(4) =   1
                l(5) =   2
                l(6) =   2

     atomic species   valence    mass     pseudopotential
        Au            11.00    28.08600     Au( 1.00)

     No symmetry found



   Cartesian axes

     site n.     atom                  positions (alat units)
         1           Au  tau(   1) = (  -0.0747871   0.1272414  -0.0556586  )
         2           Au  tau(   2) = (  -0.0454169   0.1992376   0.1803559  )
         3           Au  tau(   3) = (   0.1590590   0.0830210   0.0280320  )
         4           Au  tau(   4) = (   0.1952487   0.1601435   0.2920366  )
         5           Au  tau(   5) = (   0.3751364   0.0620448   0.1550196  )

     number of k points=     1  Marzari-Vanderbilt smearing, width (Ry)=  0.0250
                       cart. coord. in units 2pi/alat
        k(    1) = (   0.0000000   0.0000000   0.0000000), wk =   2.0000000

     Dense  grid:   177509 G-vectors     FFT dimensions: (  72,  72,  72)

     Estimated max dynamical RAM per process >      15.04Mb

     Estimated total allocated dynamical RAM >     150.39Mb

     Initial potential from superposition of free atoms
     Check: negative starting charge=   -0.006360

     starting charge   54.99940, renormalised to   55.00000

     negative rho (up, down):  6.361E-03 0.000E+00
     Starting wfc are   45 randomized atomic wfcs

     total cpu time spent up to now is        0.4 secs

     per-process dynamical memory:    41.0 Mb

     Self-consistent Calculation

     iteration #  1     ecut=    30.00 Ry     beta=0.70
     Davidson diagonalization with overlap
     ethr =  1.00E-02,  avg # of iterations =  3.0

     Threshold (ethr) on eigenvalues was too large:
     Diagonalizing with lowered threshold

     Davidson diagonalization with overlap
     ethr =  4.19E-04,  avg # of iterations =  5.0

     negative rho (up, down):  8.744E-04 0.000E+00

     total cpu time spent up to now is        0.9 secs

     total energy              =    -329.37139307 Ry
     Harris-Foulkes estimate   =    -329.54662169 Ry
     estimated scf accuracy    <       0.28889531 Ry

     iteration #  2     ecut=    30.00 Ry     beta=0.70
     Davidson diagonalization with overlap
     ethr =  5.25E-04,  avg # of iterations =  2.0

     negative rho (up, down):  3.995E-04 0.000E+00

     total cpu time spent up to now is        1.2 secs

     total energy              =    -329.39993997 Ry
     Harris-Foulkes estimate   =    -329.56687401 Ry
     estimated scf accuracy    <       0.34927357 Ry

     iteration #  3     ecut=    30.00 Ry     beta=0.70
     Davidson diagonalization with overlap
     ethr =  5.25E-04,  avg # of iterations =  2.0

     negative rho (up, down):  1.439E-04 0.000E+00

     total cpu time spent up to now is        1.5 secs

     total energy              =    -329.47272840 Ry
     Harris-Foulkes estimate   =    -329.50036368 Ry
     estimated scf accuracy    <       0.07137882 Ry

     iteration #  4     ecut=    30.00 Ry     beta=0.70
     Davidson diagonalization with overlap
     ethr =  1.30E-04,  avg # of iterations =  2.0

     negative rho (up, down):  9.260E-07 0.000E+00

     total cpu time spent up to now is        1.8 secs

     total energy              =    -329.48552426 Ry
     Harris-Foulkes estimate   =    -329.48601285 Ry
     estimated scf accuracy    <       0.00151839 Ry

     iteration #  5     ecut=    30.00 Ry     beta=0.70
     Davidson diagonalization with overlap
     ethr =  2.76E-06,  avg # of iterations =  8.0

     total cpu time spent up to now is        2.2 secs

     total energy              =    -329.48590975 Ry
     Harris-Foulkes estimate   =    -329.48660408 Ry
     estimated scf accuracy    <       0.00174275 Ry

     iteration #  6     ecut=    30.00 Ry     beta=0.70
     Davidson diagonalization with overlap
     ethr =  2.76E-06,  avg # of iterations =  2.0

     total cpu time spent up to now is        2.5 secs

     total energy              =    -329.48620053 Ry
     Harris-Foulkes estimate   =    -329.48625802 Ry
     estimated scf accuracy    <       0.00013641 Ry

     iteration #  7     ecut=    30.00 Ry     beta=0.70
     Davidson diagonalization with overlap
     ethr =  2.48E-07,  avg # of iterations =  2.0

     total cpu time spent up to now is        2.8 secs

     total energy              =    -329.48622913 Ry
     Harris-Foulkes estimate   =    -329.48623748 Ry
     estimated scf accuracy    <       0.00002027 Ry

     iteration #  8     ecut=    30.00 Ry     beta=0.70
     Davidson diagonalization with overlap
     ethr =  3.69E-08,  avg # of iterations =  2.0

     total cpu time spent up to now is        3.1 secs

     total energy              =    -329.48623238 Ry
     Harris-Foulkes estimate   =    -329.48623673 Ry
     estimated scf accuracy    <       0.00001081 Ry

     iteration #  9     ecut=    30.00 Ry     beta=0.70
     Davidson diagonalization with overlap
     ethr =  1.97E-08,  avg # of iterations =  2.0

     total cpu time spent up to now is        3.3 secs

     total energy              =    -329.48623447 Ry
     Harris-Foulkes estimate   =    -329.48623492 Ry
     estimated scf accuracy    <       0.00000101 Ry

     iteration # 10     ecut=    30.00 Ry     beta=0.70
     Davidson diagonalization with overlap
     ethr =  1.83E-09,  avg # of iterations =  2.0

     total cpu time spent up to now is        3.7 secs

     total energy              =    -329.48623451 Ry
     Harris-Foulkes estimate   =    -329.48623478 Ry
     estimated scf accuracy    <       0.00000019 Ry

     iteration # 11     ecut=    30.00 Ry     beta=0.70
     Davidson diagonalization with overlap
     ethr =  3.42E-10,  avg # of iterations =  2.0

     total cpu time spent up to now is        3.9 secs

     End of self-consistent calculation

          k = 0.0000 0.0000 0.0000 ( 22119 PWs)   bands (ev):

    -8.4932  -7.8816  -7.6380  -7.1545  -6.9331  -6.8783  -6.8244  -6.5492
    -6.2053  -6.1651  -6.0526  -5.7564  -5.7422  -5.6627  -5.4335  -5.3350
    -5.2914  -5.2639  -5.2212  -5.1590  -5.1455  -5.1379  -5.0131  -4.9136
    -4.9024  -4.6646  -4.4572  -3.6929  -2.4807  -2.1918  -0.5386  -0.1833
     0.4519   0.7662

     the Fermi energy is    -3.6539 ev

!    total energy              =    -329.48623442 Ry
     Harris-Foulkes estimate   =    -329.48623455 Ry
     estimated scf accuracy    <          8.8E-09 Ry

     The total energy is the sum of the following terms:

     one-electron contribution =    -608.64955815 Ry
     hartree contribution      =     325.74232415 Ry
     xc contribution           =     -51.41401692 Ry
     ewald contribution        =       4.84091409 Ry
     smearing contrib. (-TS)   =      -0.00589759 Ry

     convergence has been achieved in  11 iterations

     Forces acting on atoms (Ry/au):

     atom    1 type  1   force =    -0.00289034   -0.00685636   -0.02132251
     atom    2 type  1   force =     0.01743633    0.00252282    0.02265491
     atom    3 type  1   force =    -0.00601009    0.00384078    0.00544533
     atom    4 type  1   force =    -0.03098695    0.01266640    0.00754496
     atom    5 type  1   force =     0.02245105   -0.01217365   -0.01432268

     Total force =     0.058729     Total SCF correction =     0.000411

     BFGS Geometry Optimization

     number of scf cycles    =   1
     number of bfgs steps    =   0

     energy   new            =    -329.4862344185 Ry

     new trust radius        =       0.0343155222 bohr
     new conv_thr            =       0.0000000100 Ry


ATOMIC_POSITIONS (bohr)
Au      -1.498633337   2.537970643  -1.134494508
Au      -0.890902675   3.987274818   3.629773911
Au       3.175168906   1.664260782   0.566085325
Au       3.873988052   3.215537402   5.848276956
Au       7.525178054   1.228723355   3.086068315



     Writing output data file pwscf.save
     Check: negative starting charge=   -0.006360
     NEW-OLD atomic charge density approx. for the potential
     Check: negative starting charge=   -0.006329

     negative rho (up, down):  3.031E-04 0.000E+00

     total cpu time spent up to now is        4.2 secs

     per-process dynamical memory:    42.9 Mb

     Self-consistent Calculation

     iteration #  1     ecut=    30.00 Ry     beta=0.70
     Davidson diagonalization with overlap
     ethr =  1.00E-06,  avg # of iterations =  5.0

     negative rho (up, down):  7.994E-06 0.000E+00

     total cpu time spent up to now is        4.8 secs

     total energy              =    -329.48899697 Ry
     Harris-Foulkes estimate   =    -329.48897043 Ry
     estimated scf accuracy    <       0.00024361 Ry

     iteration #  2     ecut=    30.00 Ry     beta=0.70
     Davidson diagonalization with overlap
     ethr =  4.43E-07,  avg # of iterations =  3.0

     negative rho (up, down):  2.152E-06 0.000E+00

     total cpu time spent up to now is        5.0 secs

     total energy              =    -329.48896192 Ry
     Harris-Foulkes estimate   =    -329.48921781 Ry
     estimated scf accuracy    <       0.00064988 Ry

     iteration #  3     ecut=    30.00 Ry     beta=0.70
     Davidson diagonalization with overlap
     ethr =  4.43E-07,  avg # of iterations =  3.0

     total cpu time spent up to now is        5.4 secs

     total energy              =    -329.48909783 Ry
     Harris-Foulkes estimate   =    -329.48910582 Ry
     estimated scf accuracy    <       0.00004183 Ry

     iteration #  4     ecut=    30.00 Ry     beta=0.70
     Davidson diagonalization with overlap
     ethr =  7.61E-08,  avg # of iterations =  2.0

     total cpu time spent up to now is        5.7 secs

     total energy              =    -329.48910623 Ry
     Harris-Foulkes estimate   =    -329.48910853 Ry
     estimated scf accuracy    <       0.00000847 Ry

     iteration #  5     ecut=    30.00 Ry     beta=0.70
     Davidson diagonalization with overlap
     ethr =  1.54E-08,  avg # of iterations =  2.0

     total cpu time spent up to now is        5.9 secs

     total energy              =    -329.48910793 Ry
     Harris-Foulkes estimate   =    -329.48910854 Ry
     estimated scf accuracy    <       0.00000140 Ry

     iteration #  6     ecut=    30.00 Ry     beta=0.70
     Davidson diagonalization with overlap
     ethr =  2.54E-09,  avg # of iterations =  2.0

     total cpu time spent up to now is        6.2 secs

     total energy              =    -329.48910826 Ry
     Harris-Foulkes estimate   =    -329.48910833 Ry
     estimated scf accuracy    <       0.00000021 Ry

     iteration #  7     ecut=    30.00 Ry     beta=0.70
     Davidson diagonalization with overlap
     ethr =  3.73E-10,  avg # of iterations =  2.0

     total cpu time spent up to now is        6.6 secs

     total energy              =    -329.48910837 Ry
     Harris-Foulkes estimate   =    -329.48910833 Ry
     estimated scf accuracy    <       0.00000006 Ry

     iteration #  8     ecut=    30.00 Ry     beta=0.70
     Davidson diagonalization with overlap
     ethr =  1.12E-10,  avg # of iterations =  2.0

     total cpu time spent up to now is        6.8 secs

     End of self-consistent calculation

          k = 0.0000 0.0000 0.0000 ( 22119 PWs)   bands (ev):

    -8.4635  -7.8259  -7.6024  -7.1682  -6.8833  -6.8386  -6.8004  -6.5086
    -6.2197  -6.1144  -6.0402  -5.7495  -5.7448  -5.6619  -5.4253  -5.3476
    -5.2995  -5.2426  -5.2204  -5.1624  -5.1551  -5.1455  -5.0130  -4.9072
    -4.9034  -4.6873  -4.4584  -3.7205  -2.4819  -2.1968  -0.5361  -0.1920
     0.4525   0.7778

     the Fermi energy is    -3.6836 ev

!    total energy              =    -329.48910837 Ry
     Harris-Foulkes estimate   =    -329.48910838 Ry
     estimated scf accuracy    <          5.6E-09 Ry

     The total energy is the sum of the following terms:

     one-electron contribution =    -607.14291507 Ry
     hartree contribution      =     325.00264755 Ry
     xc contribution           =     -51.40538163 Ry
     ewald contribution        =       4.06190599 Ry
     smearing contrib. (-TS)   =      -0.00536520 Ry

     convergence has been achieved in   8 iterations

     Forces acting on atoms (Ry/au):

     atom    1 type  1   force =    -0.00163058   -0.00490025   -0.01406409
     atom    2 type  1   force =     0.01469805    0.00092729    0.01468971
     atom    3 type  1   force =    -0.00485003    0.00385373    0.00689988
     atom    4 type  1   force =    -0.02096669    0.00854726    0.00222693
     atom    5 type  1   force =     0.01274926   -0.00842803   -0.00975243

     Total force =     0.039868     Total SCF correction =     0.000262

     number of scf cycles    =   2
     number of bfgs steps    =   1

     energy   old            =    -329.4862344185 Ry
     energy   new            =    -329.4891083676 Ry

     CASE: energy  _new < energy  _old

     new trust radius        =       0.0377470744 bohr
     new conv_thr            =       0.0000000021 Ry


ATOMIC_POSITIONS (bohr)
Au      -1.501361487   2.529864963  -1.157842021
Au      -0.866749163   3.988870979   3.654179522
Au       3.167185740   1.670556519   0.577284714
Au       3.839222368   3.229711680   5.852185752
Au       7.546501542   1.214762859   3.069902034



     Writing output data file pwscf.save
     Check: negative starting charge=   -0.006329
     NEW-OLD atomic charge density approx. for the potential
     Check: negative starting charge=   -0.006313

     negative rho (up, down):  3.908E-04 0.000E+00

     total cpu time spent up to now is        7.1 secs

     per-process dynamical memory:    50.7 Mb

     Self-consistent Calculation

     iteration #  1     ecut=    30.00 Ry     beta=0.70
     Davidson diagonalization with overlap
     ethr =  1.00E-06,  avg # of iterations =  5.0

     negative rho (up, down):  1.295E-05 0.000E+00

     total cpu time spent up to now is        7.6 secs

     total energy              =    -329.49099124 Ry
     Harris-Foulkes estimate   =    -329.49094106 Ry
     estimated scf accuracy    <       0.00033149 Ry

     iteration #  2     ecut=    30.00 Ry     beta=0.70
     Davidson diagonalization with overlap
     ethr =  6.03E-07,  avg # of iterations =  3.0

     negative rho (up, down):  3.948E-06 0.000E+00

     total cpu time spent up to now is        7.9 secs

     total energy              =    -329.49093678 Ry
     Harris-Foulkes estimate   =    -329.49130706 Ry
     estimated scf accuracy    <       0.00095161 Ry

     iteration #  3     ecut=    30.00 Ry     beta=0.70
     Davidson diagonalization with overlap
     ethr =  6.03E-07,  avg # of iterations =  3.0

     negative rho (up, down):  1.488E-08 0.000E+00

     total cpu time spent up to now is        8.3 secs

     total energy              =    -329.49113133 Ry
     Harris-Foulkes estimate   =    -329.49114104 Ry
     estimated scf accuracy    <       0.00005276 Ry

     iteration #  4     ecut=    30.00 Ry     beta=0.70
     Davidson diagonalization with overlap
     ethr =  9.59E-08,  avg # of iterations =  2.0

     total cpu time spent up to now is        8.5 secs

     total energy              =    -329.49114114 Ry
     Harris-Foulkes estimate   =    -329.49114437 Ry
     estimated scf accuracy    <       0.00000971 Ry

     iteration #  5     ecut=    30.00 Ry     beta=0.70
     Davidson diagonalization with overlap
     ethr =  1.77E-08,  avg # of iterations =  3.0

     total cpu time spent up to now is        8.8 secs

     total energy              =    -329.49114311 Ry
     Harris-Foulkes estimate   =    -329.49114391 Ry
     estimated scf accuracy    <       0.00000176 Ry

     iteration #  6     ecut=    30.00 Ry     beta=0.70
     Davidson diagonalization with overlap
     ethr =  3.21E-09,  avg # of iterations =  2.0

     total cpu time spent up to now is        9.1 secs

     total energy              =    -329.49114334 Ry
     Harris-Foulkes estimate   =    -329.49114358 Ry
     estimated scf accuracy    <       0.00000018 Ry

     iteration #  7     ecut=    30.00 Ry     beta=0.70
     Davidson diagonalization with overlap
     ethr =  3.31E-10,  avg # of iterations =  2.0

     total cpu time spent up to now is        9.4 secs

     total energy              =    -329.49114330 Ry
     Harris-Foulkes estimate   =    -329.49114340 Ry
     estimated scf accuracy    <       0.00000005 Ry

     iteration #  8     ecut=    30.00 Ry     beta=0.70
     Davidson diagonalization with overlap
     ethr =  9.15E-11,  avg # of iterations =  2.0

     total cpu time spent up to now is        9.7 secs

     total energy              =    -329.49114332 Ry
     Harris-Foulkes estimate   =    -329.49114332 Ry
     estimated scf accuracy    <          7.8E-09 Ry

     iteration #  9     ecut=    30.00 Ry     beta=0.70
     Davidson diagonalization with overlap
     ethr =  1.42E-11,  avg # of iterations =  2.0

     total cpu time spent up to now is        9.9 secs

     End of self-consistent calculation

          k = 0.0000 0.0000 0.0000 ( 22119 PWs)   bands (ev):

    -8.4420  -7.7766  -7.5867  -7.1861  -6.8762  -6.7828  -6.7597  -6.4734
    -6.2479  -6.0584  -6.0304  -5.7563  -5.7323  -5.6632  -5.4199  -5.3607
    -5.3091  -5.2215  -5.2176  -5.1724  -5.1667  -5.1423  -5.0124  -4.9071
    -4.8871  -4.7112  -4.4564  -3.7489  -2.4805  -2.1966  -0.5351  -0.2001
     0.4543   0.7918

     the Fermi energy is    -3.7152 ev

!    total energy              =    -329.49114332 Ry
     Harris-Foulkes estimate   =    -329.49114332 Ry
     estimated scf accuracy    <          1.4E-09 Ry

     The total energy is the sum of the following terms:

     one-electron contribution =    -606.10891723 Ry
     hartree contribution      =     324.49694313 Ry
     xc contribution           =     -51.39933145 Ry
     ewald contribution        =       3.52480323 Ry
     smearing contrib. (-TS)   =      -0.00464100 Ry

     convergence has been achieved in   9 iterations

     Forces acting on atoms (Ry/au):

     atom    1 type  1   force =    -0.00032978   -0.00299979   -0.00732941
     atom    2 type  1   force =     0.01029088   -0.00025808    0.00678435
     atom    3 type  1   force =    -0.00377710    0.00354640    0.00739204
     atom    4 type  1   force =    -0.01089300    0.00496964   -0.00116134
     atom    5 type  1   force =     0.00470901   -0.00525817   -0.00568563

     Total force =     0.022873     Total SCF correction =     0.000178

     number of scf cycles    =   3
     number of bfgs steps    =   2

     energy   old            =    -329.4891083676 Ry
     energy   new            =    -329.4911433244 Ry

     CASE: energy  _new < energy  _old

     new trust radius        =       0.0476019956 bohr
     new conv_thr            =       0.0000000011 Ry


ATOMIC_POSITIONS (bohr)
Au      -1.503662921   2.518698418  -1.187244905
Au      -0.830776006   3.989299094   3.682993347
Au       3.154429144   1.681788633   0.599537433
Au       3.795569152   3.248694476   5.852198573
Au       7.569239632   1.195286378   3.048225552



     Writing output data file pwscf.save
     Check: negative starting charge=   -0.006313
     NEW-OLD atomic charge density approx. for the potential
     Check: negative starting charge=   -0.006312

     negative rho (up, down):  6.669E-04 0.000E+00

     total cpu time spent up to now is       10.2 secs

     per-process dynamical memory:    50.7 Mb

     Self-consistent Calculation

     iteration #  1     ecut=    30.00 Ry     beta=0.70
     Davidson diagonalization with overlap
     ethr =  1.00E-06,  avg # of iterations =  5.0

     negative rho (up, down):  3.335E-05 0.000E+00

     total cpu time spent up to now is       10.8 secs

     total energy              =    -329.49197988 Ry
     Harris-Foulkes estimate   =    -329.49178322 Ry
     estimated scf accuracy    <       0.00061732 Ry

     iteration #  2     ecut=    30.00 Ry     beta=0.70
     Davidson diagonalization with overlap
     ethr =  1.12E-06,  avg # of iterations =  4.0

     negative rho (up, down):  1.257E-05 0.000E+00

     total cpu time spent up to now is       11.1 secs

     total energy              =    -329.49187006 Ry
     Harris-Foulkes estimate   =    -329.49258987 Ry
     estimated scf accuracy    <       0.00186659 Ry

     iteration #  3     ecut=    30.00 Ry     beta=0.70
     Davidson diagonalization with overlap
     ethr =  1.12E-06,  avg # of iterations =  3.0

     negative rho (up, down):  9.796E-08 0.000E+00

     total cpu time spent up to now is       11.4 secs

     total energy              =    -329.49224097 Ry
     Harris-Foulkes estimate   =    -329.49226052 Ry
     estimated scf accuracy    <       0.00009292 Ry

     iteration #  4     ecut=    30.00 Ry     beta=0.70
     Davidson diagonalization with overlap
     ethr =  1.69E-07,  avg # of iterations =  2.0

     total cpu time spent up to now is       11.7 secs

     total energy              =    -329.49225957 Ry
     Harris-Foulkes estimate   =    -329.49226367 Ry
     estimated scf accuracy    <       0.00001550 Ry

     iteration #  5     ecut=    30.00 Ry     beta=0.70
     Davidson diagonalization with overlap
     ethr =  2.82E-08,  avg # of iterations =  2.0

     total cpu time spent up to now is       12.0 secs

     total energy              =    -329.49226276 Ry
     Harris-Foulkes estimate   =    -329.49226394 Ry
     estimated scf accuracy    <       0.00000281 Ry

     iteration #  6     ecut=    30.00 Ry     beta=0.70
     Davidson diagonalization with overlap
     ethr =  5.11E-09,  avg # of iterations =  2.0

     total cpu time spent up to now is       12.3 secs

     total energy              =    -329.49226327 Ry
     Harris-Foulkes estimate   =    -329.49226352 Ry
     estimated scf accuracy    <       0.00000025 Ry

     iteration #  7     ecut=    30.00 Ry     beta=0.70
     Davidson diagonalization with overlap
     ethr =  4.61E-10,  avg # of iterations =  2.0

     total cpu time spent up to now is       12.6 secs

     total energy              =    -329.49226339 Ry
     Harris-Foulkes estimate   =    -329.49226334 Ry
     estimated scf accuracy    <       0.00000004 Ry

     iteration #  8     ecut=    30.00 Ry     beta=0.70
     Davidson diagonalization with overlap
     ethr =  6.56E-11,  avg # of iterations =  2.0

     total cpu time spent up to now is       12.9 secs

     total energy              =    -329.49226337 Ry
     Harris-Foulkes estimate   =    -329.49226340 Ry
     estimated scf accuracy    <          4.1E-09 Ry

     iteration #  9     ecut=    30.00 Ry     beta=0.70
     Davidson diagonalization with overlap
     ethr =  7.39E-12,  avg # of iterations =  2.0

     total cpu time spent up to now is       13.2 secs

     total energy              =    -329.49226336 Ry
     Harris-Foulkes estimate   =    -329.49226337 Ry
     estimated scf accuracy    <          2.0E-09 Ry

     iteration # 10     ecut=    30.00 Ry     beta=0.70
     Davidson diagonalization with overlap
     ethr =  3.66E-12,  avg # of iterations =  2.0

     total cpu time spent up to now is       13.5 secs

     End of self-consistent calculation

          k = 0.0000 0.0000 0.0000 ( 22119 PWs)   bands (ev):

    -8.4299  -7.7318  -7.6084  -7.2057  -6.8838  -6.7705  -6.6576  -6.4462
    -6.2955  -6.0250  -5.9892  -5.7608  -5.7174  -5.6694  -5.4174  -5.3741
    -5.3221  -5.2204  -5.1936  -5.1888  -5.1718  -5.1350  -5.0106  -4.9001
    -4.8595  -4.7398  -4.4508  -3.7815  -2.4746  -2.1898  -0.5365  -0.2081
     0.4584   0.8106

     the Fermi energy is    -3.7527 ev

!    total energy              =    -329.49226339 Ry
     Harris-Foulkes estimate   =    -329.49226336 Ry
     estimated scf accuracy    <          2.5E-10 Ry

     The total energy is the sum of the following terms:

     one-electron contribution =    -605.62218995 Ry
     hartree contribution      =     324.26320505 Ry
     xc contribution           =     -51.39634629 Ry
     ewald contribution        =       3.26661747 Ry
     smearing contrib. (-TS)   =      -0.00354967 Ry

     convergence has been achieved in  10 iterations

     Forces acting on atoms (Ry/au):

     atom    1 type  1   force =     0.00119987   -0.00093645   -0.00086455
     atom    2 type  1   force =     0.00261631   -0.00099604   -0.00190783
     atom    3 type  1   force =    -0.00243801    0.00276553    0.00681783
     atom    4 type  1   force =     0.00101638    0.00137578   -0.00240002
     atom    5 type  1   force =    -0.00239456   -0.00220882   -0.00164543

     Total force =     0.009830     Total SCF correction =     0.000048

     number of scf cycles    =   4
     number of bfgs steps    =   3

     energy   old            =    -329.4911433244 Ry
     energy   new            =    -329.4922633885 Ry

     CASE: energy  _new < energy  _old

     new trust radius        =       0.0130395070 bohr
     new conv_thr            =       0.0000000007 Ry


ATOMIC_POSITIONS (bohr)
Au      -1.502741106   2.515763054  -1.193324099
Au      -0.822090413   3.988356131   3.685853441
Au       3.149602398   1.686667629   0.610624663
Au       3.789275350   3.253495246   5.849891844
Au       7.570752771   1.189484940   3.042664151



     Writing output data file pwscf.save
     Check: negative starting charge=   -0.006312
     NEW-OLD atomic charge density approx. for the potential
     Check: negative starting charge=   -0.006319

     negative rho (up, down):  1.834E-05 0.000E+00

     total cpu time spent up to now is       13.9 secs

     per-process dynamical memory:    50.7 Mb

     Self-consistent Calculation

     iteration #  1     ecut=    30.00 Ry     beta=0.70
     Davidson diagonalization with overlap
     ethr =  1.00E-06,  avg # of iterations =  4.0

     Threshold (ethr) on eigenvalues was too large:
     Diagonalizing with lowered threshold

     Davidson diagonalization with overlap
     ethr =  6.62E-08,  avg # of iterations =  1.0

     negative rho (up, down):  2.540E-08 0.000E+00

     total cpu time spent up to now is       14.5 secs

     total energy              =    -329.49236830 Ry
     Harris-Foulkes estimate   =    -329.49237658 Ry
     estimated scf accuracy    <       0.00003693 Ry

     iteration #  2     ecut=    30.00 Ry     beta=0.70
     Davidson diagonalization with overlap
     ethr =  6.71E-08,  avg # of iterations =  3.0

     total cpu time spent up to now is       14.8 secs

     total energy              =    -329.49236210 Ry
     Harris-Foulkes estimate   =    -329.49240101 Ry
     estimated scf accuracy    <       0.00009587 Ry

     iteration #  3     ecut=    30.00 Ry     beta=0.70
     Davidson diagonalization with overlap
     ethr =  6.71E-08,  avg # of iterations =  3.0

     total cpu time spent up to now is       15.1 secs

     total energy              =    -329.49238215 Ry
     Harris-Foulkes estimate   =    -329.49238404 Ry
     estimated scf accuracy    <       0.00000774 Ry

     iteration #  4     ecut=    30.00 Ry     beta=0.70
     Davidson diagonalization with overlap
     ethr =  1.41E-08,  avg # of iterations =  2.0

     total cpu time spent up to now is       15.4 secs

     total energy              =    -329.49238367 Ry
     Harris-Foulkes estimate   =    -329.49238387 Ry
     estimated scf accuracy    <       0.00000083 Ry

     iteration #  5     ecut=    30.00 Ry     beta=0.70
     Davidson diagonalization with overlap
     ethr =  1.50E-09,  avg # of iterations =  3.0

     total cpu time spent up to now is       15.7 secs

     total energy              =    -329.49238383 Ry
     Harris-Foulkes estimate   =    -329.49238395 Ry
     estimated scf accuracy    <       0.00000025 Ry

     iteration #  6     ecut=    30.00 Ry     beta=0.70
     Davidson diagonalization with overlap
     ethr =  4.48E-10,  avg # of iterations =  2.0

     total cpu time spent up to now is       15.9 secs

     total energy              =    -329.49238388 Ry
     Harris-Foulkes estimate   =    -329.49238389 Ry
     estimated scf accuracy    <       0.00000002 Ry

     iteration #  7     ecut=    30.00 Ry     beta=0.70
     Davidson diagonalization with overlap
     ethr =  3.99E-11,  avg # of iterations =  3.0

     total cpu time spent up to now is       16.3 secs

     total energy              =    -329.49238390 Ry
     Harris-Foulkes estimate   =    -329.49238389 Ry
     estimated scf accuracy    <       0.00000001 Ry

     iteration #  8     ecut=    30.00 Ry     beta=0.70
     Davidson diagonalization with overlap
     ethr =  1.84E-11,  avg # of iterations =  2.0

     total cpu time spent up to now is       16.5 secs

     total energy              =    -329.49238392 Ry
     Harris-Foulkes estimate   =    -329.49238390 Ry
     estimated scf accuracy    <          8.8E-10 Ry

     iteration #  9     ecut=    30.00 Ry     beta=0.70
     Davidson diagonalization with overlap
     ethr =  1.61E-12,  avg # of iterations =  2.0

     total cpu time spent up to now is       16.8 secs

     End of self-consistent calculation

          k = 0.0000 0.0000 0.0000 ( 22119 PWs)   bands (ev):

    -8.4382  -7.7335  -7.6230  -7.2153  -6.8869  -6.7747  -6.6407  -6.4485
    -6.3080  -6.0286  -5.9773  -5.7624  -5.7166  -5.6732  -5.4209  -5.3752
    -5.3239  -5.2221  -5.1958  -5.1847  -5.1728  -5.1324  -5.0098  -4.8985
    -4.8521  -4.7438  -4.4503  -3.7850  -2.4706  -2.1867  -0.5382  -0.2077
     0.4598   0.8144

     the Fermi energy is    -3.7568 ev

!    total energy              =    -329.49238392 Ry
     Harris-Foulkes estimate   =    -329.49238392 Ry
     estimated scf accuracy    <          9.6E-11 Ry

     The total energy is the sum of the following terms:

     one-electron contribution =    -605.99152754 Ry
     hartree contribution      =     324.44599470 Ry
     xc contribution           =     -51.39746406 Ry
     ewald contribution        =       3.45403420 Ry
     smearing contrib. (-TS)   =      -0.00342122 Ry

     convergence has been achieved in   9 iterations

     Forces acting on atoms (Ry/au):

     atom    1 type  1   force =     0.00128915   -0.00059418   -0.00016617
     atom    2 type  1   force =     0.00068954   -0.00081883   -0.00299272
     atom    3 type  1   force =    -0.00222368    0.00225696    0.00583744
     atom    4 type  1   force =     0.00306007    0.00096367   -0.00174219
     atom    5 type  1   force =    -0.00281508   -0.00180762   -0.00093637

     Total force =     0.009036     Total SCF correction =     0.000043

     number of scf cycles    =   5
     number of bfgs steps    =   4

     energy   old            =    -329.4922633885 Ry
     energy   new            =    -329.4923839163 Ry

     CASE: energy  _new < energy  _old

     new trust radius        =       0.0143434577 bohr
     new conv_thr            =       0.0000000001 Ry


ATOMIC_POSITIONS (bohr)
Au      -1.500999979   2.513282682  -1.197628524
Au      -0.816022551   3.987093529   3.685124702
Au       3.144403021   1.691820907   0.622959369
Au       3.787925011   3.257610318   5.847134548
Au       7.569493498   1.183959565   3.038119906



     Writing output data file pwscf.save
     Check: negative starting charge=   -0.006319
     NEW-OLD atomic charge density approx. for the potential
     Check: negative starting charge=   -0.006329

     negative rho (up, down):  1.264E-05 0.000E+00

     total cpu time spent up to now is       17.1 secs

     per-process dynamical memory:    50.7 Mb

     Self-consistent Calculation

     iteration #  1     ecut=    30.00 Ry     beta=0.70
     Davidson diagonalization with overlap
     ethr =  1.00E-06,  avg # of iterations =  4.0

     Threshold (ethr) on eigenvalues was too large:
     Diagonalizing with lowered threshold

     Davidson diagonalization with overlap
     ethr =  4.83E-08,  avg # of iterations =  1.0

     negative rho (up, down):  1.419E-08 0.000E+00

     total cpu time spent up to now is       17.8 secs

     total energy              =    -329.49248416 Ry
     Harris-Foulkes estimate   =    -329.49249046 Ry
     estimated scf accuracy    <       0.00002725 Ry

     iteration #  2     ecut=    30.00 Ry     beta=0.70
     Davidson diagonalization with overlap
     ethr =  4.95E-08,  avg # of iterations =  3.0

     total cpu time spent up to now is       18.1 secs

     total energy              =    -329.49248156 Ry
     Harris-Foulkes estimate   =    -329.49250390 Ry
     estimated scf accuracy    <       0.00005005 Ry

     iteration #  3     ecut=    30.00 Ry     beta=0.70
     Davidson diagonalization with overlap
     ethr =  4.95E-08,  avg # of iterations =  2.0

     total cpu time spent up to now is       18.4 secs

     total energy              =    -329.49249265 Ry
     Harris-Foulkes estimate   =    -329.49249513 Ry
     estimated scf accuracy    <       0.00000829 Ry

     iteration #  4     ecut=    30.00 Ry     beta=0.70
     Davidson diagonalization with overlap
     ethr =  1.51E-08,  avg # of iterations =  2.0

     total cpu time spent up to now is       18.6 secs

     total energy              =    -329.49249453 Ry
     Harris-Foulkes estimate   =    -329.49249445 Ry
     estimated scf accuracy    <       0.00000071 Ry

     iteration #  5     ecut=    30.00 Ry     beta=0.70
     Davidson diagonalization with overlap
     ethr =  1.29E-09,  avg # of iterations =  3.0

     total cpu time spent up to now is       18.9 secs

     total energy              =    -329.49249479 Ry
     Harris-Foulkes estimate   =    -329.49249478 Ry
     estimated scf accuracy    <       0.00000022 Ry

     iteration #  6     ecut=    30.00 Ry     beta=0.70
     Davidson diagonalization with overlap
     ethr =  3.91E-10,  avg # of iterations =  2.0

     total cpu time spent up to now is       19.2 secs

     total energy              =    -329.49249477 Ry
     Harris-Foulkes estimate   =    -329.49249485 Ry
     estimated scf accuracy    <       0.00000002 Ry

     iteration #  7     ecut=    30.00 Ry     beta=0.70
     Davidson diagonalization with overlap
     ethr =  4.26E-11,  avg # of iterations =  2.0

     total cpu time spent up to now is       19.5 secs

     total energy              =    -329.49249483 Ry
     Harris-Foulkes estimate   =    -329.49249478 Ry
     estimated scf accuracy    <          7.0E-09 Ry

     iteration #  8     ecut=    30.00 Ry     beta=0.70
     Davidson diagonalization with overlap
     ethr =  1.26E-11,  avg # of iterations =  2.0

     total cpu time spent up to now is       19.7 secs

     total energy              =    -329.49249489 Ry
     Harris-Foulkes estimate   =    -329.49249484 Ry
     estimated scf accuracy    <          8.7E-10 Ry

     iteration #  9     ecut=    30.00 Ry     beta=0.70
     Davidson diagonalization with overlap
     ethr =  1.59E-12,  avg # of iterations =  2.0

     total cpu time spent up to now is       20.1 secs

     total energy              =    -329.49249492 Ry
     Harris-Foulkes estimate   =    -329.49249489 Ry
     estimated scf accuracy    <          1.5E-10 Ry

     iteration # 10     ecut=    30.00 Ry     beta=0.70
     Davidson diagonalization with overlap
     ethr =  2.79E-13,  avg # of iterations =  3.0

     total cpu time spent up to now is       20.3 secs

     End of self-consistent calculation

          k = 0.0000 0.0000 0.0000 ( 22119 PWs)   bands (ev):

    -8.4514  -7.7421  -7.6367  -7.2261  -6.8888  -6.7821  -6.6330  -6.4550
    -6.3170  -6.0347  -5.9712  -5.7644  -5.7179  -5.6774  -5.4264  -5.3746
    -5.3242  -5.2250  -5.1973  -5.1821  -5.1735  -5.1301  -5.0088  -4.8984
    -4.8463  -4.7449  -4.4512  -3.7848  -2.4659  -2.1842  -0.5402  -0.2059
     0.4612   0.8167

     the Fermi energy is    -3.7564 ev

!    total energy              =    -329.49249494 Ry
     Harris-Foulkes estimate   =    -329.49249492 Ry
     estimated scf accuracy    <          2.1E-11 Ry

     The total energy is the sum of the following terms:

     one-electron contribution =    -606.53675640 Ry
     hartree contribution      =     324.71455299 Ry
     xc contribution           =     -51.39912034 Ry
     ewald contribution        =       3.73228066 Ry
     smearing contrib. (-TS)   =      -0.00345184 Ry

     convergence has been achieved in  10 iterations

     Forces acting on atoms (Ry/au):

     atom    1 type  1   force =     0.00114033   -0.00040356   -0.00004943
     atom    2 type  1   force =    -0.00059734   -0.00052186   -0.00318628
     atom    3 type  1   force =    -0.00208195    0.00163923    0.00461355
     atom    4 type  1   force =     0.00403297    0.00091820   -0.00087461
     atom    5 type  1   force =    -0.00249401   -0.00163202   -0.00050321

     Total force =     0.008220     Total SCF correction =     0.000024

     number of scf cycles    =   6
     number of bfgs steps    =   5

     energy   old            =    -329.4923839163 Ry
     energy   new            =    -329.4924949358 Ry

     CASE: energy  _new < energy  _old

     new trust radius        =       0.0215151865 bohr
     new conv_thr            =       0.0000000001 Ry


ATOMIC_POSITIONS (bohr)
Au      -1.497919797   2.510039432  -1.202724004
Au      -0.809932151   3.985221260   3.681135449
Au       3.136308839   1.699218788   0.641470415
Au       3.790586959   3.263368604   5.843393722
Au       7.565755150   1.175918916   3.032434419



     Writing output data file pwscf.save
     Check: negative starting charge=   -0.006329
     NEW-OLD atomic charge density approx. for the potential
     Check: negative starting charge=   -0.006346

     negative rho (up, down):  4.442E-05 0.000E+00

     total cpu time spent up to now is       20.6 secs

     per-process dynamical memory:    50.7 Mb

     Self-consistent Calculation

     iteration #  1     ecut=    30.00 Ry     beta=0.70
     Davidson diagonalization with overlap
     ethr =  1.00E-06,  avg # of iterations =  4.0

     Threshold (ethr) on eigenvalues was too large:
     Diagonalizing with lowered threshold

     Davidson diagonalization with overlap
     ethr =  9.51E-08,  avg # of iterations =  1.0

     negative rho (up, down):  1.461E-07 0.000E+00

     total cpu time spent up to now is       21.3 secs

     total energy              =    -329.49261789 Ry
     Harris-Foulkes estimate   =    -329.49262635 Ry
     estimated scf accuracy    <       0.00005233 Ry

     iteration #  2     ecut=    30.00 Ry     beta=0.70
     Davidson diagonalization with overlap
     ethr =  9.51E-08,  avg # of iterations =  3.0

     negative rho (up, down):  1.253E-08 0.000E+00

     total cpu time spent up to now is       21.7 secs

     total energy              =    -329.49261837 Ry
     Harris-Foulkes estimate   =    -329.49264983 Ry
     estimated scf accuracy    <       0.00006730 Ry

     iteration #  3     ecut=    30.00 Ry     beta=0.70
     Davidson diagonalization with overlap
     ethr =  9.51E-08,  avg # of iterations =  2.0

     total cpu time spent up to now is       22.0 secs

     total energy              =    -329.49263288 Ry
     Harris-Foulkes estimate   =    -329.49263915 Ry
     estimated scf accuracy    <       0.00001752 Ry

     iteration #  4     ecut=    30.00 Ry     beta=0.70
     Davidson diagonalization with overlap
     ethr =  3.19E-08,  avg # of iterations =  2.0

     total cpu time spent up to now is       22.2 secs

     total energy              =    -329.49263630 Ry
     Harris-Foulkes estimate   =    -329.49263693 Ry
     estimated scf accuracy    <       0.00000183 Ry

     iteration #  5     ecut=    30.00 Ry     beta=0.70
     Davidson diagonalization with overlap
     ethr =  3.32E-09,  avg # of iterations =  2.0

     total cpu time spent up to now is       22.5 secs

     total energy              =    -329.49263669 Ry
     Harris-Foulkes estimate   =    -329.49263684 Ry
     estimated scf accuracy    <       0.00000042 Ry

     iteration #  6     ecut=    30.00 Ry     beta=0.70
     Davidson diagonalization with overlap
     ethr =  7.65E-10,  avg # of iterations =  2.0

     total cpu time spent up to now is       22.8 secs

     total energy              =    -329.49263668 Ry
     Harris-Foulkes estimate   =    -329.49263679 Ry
     estimated scf accuracy    <       0.00000005 Ry

     iteration #  7     ecut=    30.00 Ry     beta=0.70
     Davidson diagonalization with overlap
     ethr =  8.33E-11,  avg # of iterations =  2.0

     total cpu time spent up to now is       23.1 secs

     total energy              =    -329.49263667 Ry
     Harris-Foulkes estimate   =    -329.49263670 Ry
     estimated scf accuracy    <       0.00000001 Ry

     iteration #  8     ecut=    30.00 Ry     beta=0.70
     Davidson diagonalization with overlap
     ethr =  2.23E-11,  avg # of iterations =  2.0

     total cpu time spent up to now is       23.3 secs

     total energy              =    -329.49263667 Ry
     Harris-Foulkes estimate   =    -329.49263667 Ry
     estimated scf accuracy    <          1.6E-09 Ry

     iteration #  9     ecut=    30.00 Ry     beta=0.70
     Davidson diagonalization with overlap
     ethr =  2.95E-12,  avg # of iterations =  2.0

     total cpu time spent up to now is       23.7 secs

     total energy              =    -329.49263666 Ry
     Harris-Foulkes estimate   =    -329.49263667 Ry
     estimated scf accuracy    <          2.9E-10 Ry

     iteration # 10     ecut=    30.00 Ry     beta=0.70
     Davidson diagonalization with overlap
     ethr =  5.29E-13,  avg # of iterations =  2.0

     total cpu time spent up to now is       23.9 secs

     End of self-consistent calculation

          k = 0.0000 0.0000 0.0000 ( 22119 PWs)   bands (ev):

    -8.4735  -7.7593  -7.6544  -7.2410  -6.8894  -6.7948  -6.6293  -6.4670
    -6.3260  -6.0455  -5.9669  -5.7675  -5.7213  -5.6832  -5.4358  -5.3722
    -5.3232  -5.2303  -5.1980  -5.1802  -5.1744  -5.1270  -5.0073  -4.8999
    -4.8396  -4.7441  -4.4540  -3.7815  -2.4587  -2.1821  -0.5432  -0.2019
     0.4627   0.8184

     the Fermi energy is    -3.7523 ev

!    total energy              =    -329.49263665 Ry
     Harris-Foulkes estimate   =    -329.49263666 Ry
     estimated scf accuracy    <          4.0E-11 Ry

     The total energy is the sum of the following terms:

     one-electron contribution =    -607.38914806 Ry
     hartree contribution      =     325.13367779 Ry
     xc contribution           =     -51.40167074 Ry
     ewald contribution        =       4.16813573 Ry
     smearing contrib. (-TS)   =      -0.00363137 Ry

     convergence has been achieved in  10 iterations

     Forces acting on atoms (Ry/au):

     atom    1 type  1   force =     0.00070232   -0.00024577   -0.00033042
     atom    2 type  1   force =    -0.00179178   -0.00003386   -0.00273741
     atom    3 type  1   force =    -0.00181831    0.00067808    0.00283051
     atom    4 type  1   force =     0.00446014    0.00110300    0.00038116
     atom    5 type  1   force =    -0.00155236   -0.00150145   -0.00014384

     Total force =     0.007006     Total SCF correction =     0.000032

     number of scf cycles    =   7
     number of bfgs steps    =   6

     energy   old            =    -329.4924949358 Ry
     energy   new            =    -329.4926366458 Ry

     CASE: energy  _new < energy  _old

     new trust radius        =       0.0322727797 bohr
     new conv_thr            =       0.0000000001 Ry


ATOMIC_POSITIONS (bohr)
Au      -1.493104309   2.505513906  -1.209857815
Au      -0.804465578   3.982805740   3.672356793
Au       3.123391530   1.709552068   0.669181401
Au       3.800103494   3.272443167   5.839134023
Au       7.558873864   1.163452119   3.024895598



     Writing output data file pwscf.save
     Check: negative starting charge=   -0.006346
     NEW-OLD atomic charge density approx. for the potential
     Check: negative starting charge=   -0.006372

     negative rho (up, down):  1.407E-04 0.000E+00

     total cpu time spent up to now is       24.2 secs

     per-process dynamical memory:    50.7 Mb

     Self-consistent Calculation

     iteration #  1     ecut=    30.00 Ry     beta=0.70
     Davidson diagonalization with overlap
     ethr =  1.00E-06,  avg # of iterations =  4.0

     negative rho (up, down):  1.762E-06 0.000E+00

     total cpu time spent up to now is       24.7 secs

     total energy              =    -329.49273978 Ry
     Harris-Foulkes estimate   =    -329.49274507 Ry
     estimated scf accuracy    <       0.00011700 Ry

     iteration #  2     ecut=    30.00 Ry     beta=0.70
     Davidson diagonalization with overlap
     ethr =  2.13E-07,  avg # of iterations =  3.0

     negative rho (up, down):  1.220E-07 0.000E+00

     total cpu time spent up to now is       25.0 secs

     total energy              =    -329.49275151 Ry
     Harris-Foulkes estimate   =    -329.49280487 Ry
     estimated scf accuracy    <       0.00011111 Ry

     iteration #  3     ecut=    30.00 Ry     beta=0.70
     Davidson diagonalization with overlap
     ethr =  2.02E-07,  avg # of iterations =  2.0

     total cpu time spent up to now is       25.3 secs

     total energy              =    -329.49277488 Ry
     Harris-Foulkes estimate   =    -329.49278670 Ry
     estimated scf accuracy    <       0.00003196 Ry

     iteration #  4     ecut=    30.00 Ry     beta=0.70
     Davidson diagonalization with overlap
     ethr =  5.81E-08,  avg # of iterations =  2.0

     total cpu time spent up to now is       25.6 secs

     total energy              =    -329.49278178 Ry
     Harris-Foulkes estimate   =    -329.49278371 Ry
     estimated scf accuracy    <       0.00000601 Ry

     iteration #  5     ecut=    30.00 Ry     beta=0.70
     Davidson diagonalization with overlap
     ethr =  1.09E-08,  avg # of iterations =  2.0

     total cpu time spent up to now is       25.9 secs

     total energy              =    -329.49278304 Ry
     Harris-Foulkes estimate   =    -329.49278318 Ry
     estimated scf accuracy    <       0.00000077 Ry

     iteration #  6     ecut=    30.00 Ry     beta=0.70
     Davidson diagonalization with overlap
     ethr =  1.41E-09,  avg # of iterations =  2.0

     total cpu time spent up to now is       26.1 secs

     total energy              =    -329.49278327 Ry
     Harris-Foulkes estimate   =    -329.49278324 Ry
     estimated scf accuracy    <       0.00000008 Ry

     iteration #  7     ecut=    30.00 Ry     beta=0.70
     Davidson diagonalization with overlap
     ethr =  1.42E-10,  avg # of iterations =  2.0

     total cpu time spent up to now is       26.4 secs

     total energy              =    -329.49278334 Ry
     Harris-Foulkes estimate   =    -329.49278330 Ry
     estimated scf accuracy    <       0.00000002 Ry

     iteration #  8     ecut=    30.00 Ry     beta=0.70
     Davidson diagonalization with overlap
     ethr =  4.51E-11,  avg # of iterations =  2.0

     total cpu time spent up to now is       26.7 secs

     total energy              =    -329.49278336 Ry
     Harris-Foulkes estimate   =    -329.49278335 Ry
     estimated scf accuracy    <          3.9E-09 Ry

     iteration #  9     ecut=    30.00 Ry     beta=0.70
     Davidson diagonalization with overlap
     ethr =  7.13E-12,  avg # of iterations =  2.0

     total cpu time spent up to now is       27.0 secs

     total energy              =    -329.49278341 Ry
     Harris-Foulkes estimate   =    -329.49278336 Ry
     estimated scf accuracy    <          3.9E-10 Ry

     iteration # 10     ecut=    30.00 Ry     beta=0.70
     Davidson diagonalization with overlap
     ethr =  7.17E-13,  avg # of iterations =  3.0

     total cpu time spent up to now is       27.3 secs

     End of self-consistent calculation

          k = 0.0000 0.0000 0.0000 ( 22119 PWs)   bands (ev):

    -8.5070  -7.7874  -7.6764  -7.2593  -6.8860  -6.8144  -6.6305  -6.4860
    -6.3332  -6.0632  -5.9645  -5.7720  -5.7272  -5.6904  -5.4506  -5.3668
    -5.3202  -5.2391  -5.1976  -5.1793  -5.1755  -5.1229  -5.0051  -4.9044
    -4.8315  -4.7405  -4.4601  -3.7742  -2.4482  -2.1817  -0.5472  -0.1949
     0.4644   0.8192

     the Fermi energy is    -3.7432 ev

!    total energy              =    -329.49278340 Ry
     Harris-Foulkes estimate   =    -329.49278341 Ry
     estimated scf accuracy    <          7.9E-11 Ry

     The total energy is the sum of the following terms:

     one-electron contribution =    -608.57396561 Ry
     hartree contribution      =     325.71545504 Ry
     xc contribution           =     -51.40516044 Ry
     ewald contribution        =       4.77490783 Ry
     smearing contrib. (-TS)   =      -0.00402022 Ry

     convergence has been achieved in  10 iterations

     Forces acting on atoms (Ry/au):

     atom    1 type  1   force =    -0.00014304   -0.00010794   -0.00114773
     atom    2 type  1   force =    -0.00270565    0.00072155   -0.00136374
     atom    3 type  1   force =    -0.00117145   -0.00074527    0.00054646
     atom    4 type  1   force =     0.00387854    0.00149456    0.00196137
     atom    5 type  1   force =     0.00014160   -0.00136291    0.00000364

     Total force =     0.006023     Total SCF correction =     0.000042

     number of scf cycles    =   8
     number of bfgs steps    =   7

     energy   old            =    -329.4926366458 Ry
     energy   new            =    -329.4927834015 Ry

     CASE: energy  _new < energy  _old

     new trust radius        =       0.0226927136 bohr
     new conv_thr            =       0.0000000001 Ry


ATOMIC_POSITIONS (bohr)
Au      -1.490088826   2.502415541  -1.215876600
Au      -0.804099251   3.982039046   3.664568010
Au       3.113426648   1.715494613   0.688683876
Au       3.811512032   3.280289758   5.838410918
Au       7.554048397   1.153528042   3.019923795



     Writing output data file pwscf.save
     Check: negative starting charge=   -0.006372
     NEW-OLD atomic charge density approx. for the potential
     Check: negative starting charge=   -0.006387

     negative rho (up, down):  6.533E-05 0.000E+00

     total cpu time spent up to now is       27.5 secs

     per-process dynamical memory:    50.7 Mb

     Self-consistent Calculation

     iteration #  1     ecut=    30.00 Ry     beta=0.70
     Davidson diagonalization with overlap
     ethr =  1.00E-06,  avg # of iterations =  4.0

     negative rho (up, down):  3.462E-07 0.000E+00

     total cpu time spent up to now is       28.0 secs

     total energy              =    -329.49282756 Ry
     Harris-Foulkes estimate   =    -329.49283502 Ry
     estimated scf accuracy    <       0.00006546 Ry

     iteration #  2     ecut=    30.00 Ry     beta=0.70
     Davidson diagonalization with overlap
     ethr =  1.19E-07,  avg # of iterations =  3.0

     negative rho (up, down):  1.353E-08 0.000E+00

     total cpu time spent up to now is       28.3 secs

     total energy              =    -329.49283877 Ry
     Harris-Foulkes estimate   =    -329.49286126 Ry
     estimated scf accuracy    <       0.00004818 Ry

     iteration #  3     ecut=    30.00 Ry     beta=0.70
     Davidson diagonalization with overlap
     ethr =  8.76E-08,  avg # of iterations =  2.0

     total cpu time spent up to now is       28.6 secs

     total energy              =    -329.49284847 Ry
     Harris-Foulkes estimate   =    -329.49285285 Ry
     estimated scf accuracy    <       0.00001055 Ry

     iteration #  4     ecut=    30.00 Ry     beta=0.70
     Davidson diagonalization with overlap
     ethr =  1.92E-08,  avg # of iterations =  2.0

     total cpu time spent up to now is       28.9 secs

     total energy              =    -329.49285106 Ry
     Harris-Foulkes estimate   =    -329.49285259 Ry
     estimated scf accuracy    <       0.00000518 Ry

     iteration #  5     ecut=    30.00 Ry     beta=0.70
     Davidson diagonalization with overlap
     ethr =  9.42E-09,  avg # of iterations =  2.0

     total cpu time spent up to now is       29.2 secs

     total energy              =    -329.49285215 Ry
     Harris-Foulkes estimate   =    -329.49285207 Ry
     estimated scf accuracy    <       0.00000035 Ry

     iteration #  6     ecut=    30.00 Ry     beta=0.70
     Davidson diagonalization with overlap
     ethr =  6.33E-10,  avg # of iterations =  3.0

     total cpu time spent up to now is       29.5 secs

     total energy              =    -329.49285226 Ry
     Harris-Foulkes estimate   =    -329.49285225 Ry
     estimated scf accuracy    <       0.00000004 Ry

     iteration #  7     ecut=    30.00 Ry     beta=0.70
     Davidson diagonalization with overlap
     ethr =  7.01E-11,  avg # of iterations =  2.0

     total cpu time spent up to now is       29.8 secs

     total energy              =    -329.49285236 Ry
     Harris-Foulkes estimate   =    -329.49285227 Ry
     estimated scf accuracy    <          9.8E-09 Ry

     iteration #  8     ecut=    30.00 Ry     beta=0.70
     Davidson diagonalization with overlap
     ethr =  1.78E-11,  avg # of iterations =  2.0

     total cpu time spent up to now is       30.1 secs

     total energy              =    -329.49285237 Ry
     Harris-Foulkes estimate   =    -329.49285236 Ry
     estimated scf accuracy    <          2.7E-09 Ry

     iteration #  9     ecut=    30.00 Ry     beta=0.70
     Davidson diagonalization with overlap
     ethr =  4.83E-12,  avg # of iterations =  2.0

     total cpu time spent up to now is       30.4 secs

     total energy              =    -329.49285237 Ry
     Harris-Foulkes estimate   =    -329.49285237 Ry
     estimated scf accuracy    <          2.2E-10 Ry

     iteration # 10     ecut=    30.00 Ry     beta=0.70
     Davidson diagonalization with overlap
     ethr =  3.98E-13,  avg # of iterations =  2.0

     total cpu time spent up to now is       30.6 secs

     End of self-consistent calculation

          k = 0.0000 0.0000 0.0000 ( 22119 PWs)   bands (ev):

    -8.5279  -7.8053  -7.6849  -7.2664  -6.8781  -6.8267  -6.6340  -6.4973
    -6.3324  -6.0758  -5.9643  -5.7743  -5.7313  -5.6935  -5.4609  -5.3616
    -5.3169  -5.2459  -5.1962  -5.1798  -5.1757  -5.1207  -5.0036  -4.9098
    -4.8281  -4.7366  -4.4664  -3.7679  -2.4414  -2.1853  -0.5490  -0.1893
     0.4646   0.8181

     the Fermi energy is    -3.7353 ev

!    total energy              =    -329.49285237 Ry
     Harris-Foulkes estimate   =    -329.49285237 Ry
     estimated scf accuracy    <          2.9E-11 Ry

     The total energy is the sum of the following terms:

     one-electron contribution =    -609.14795150 Ry
     hartree contribution      =     325.99642942 Ry
     xc contribution           =     -51.40667667 Ry
     ewald contribution        =       5.06971209 Ry
     smearing contrib. (-TS)   =      -0.00436571 Ry

     convergence has been achieved in  10 iterations

     Forces acting on atoms (Ry/au):

     atom    1 type  1   force =    -0.00069790   -0.00001085   -0.00178844
     atom    2 type  1   force =    -0.00247178    0.00121861   -0.00003774
     atom    3 type  1   force =    -0.00053216   -0.00161403   -0.00062578
     atom    4 type  1   force =     0.00244186    0.00166562    0.00255679
     atom    5 type  1   force =     0.00125998   -0.00125936   -0.00010482

     Total force =     0.005746     Total SCF correction =     0.000022

     number of scf cycles    =   9
     number of bfgs steps    =   8

     energy   old            =    -329.4927834015 Ry
     energy   new            =    -329.4928523716 Ry

     CASE: energy  _new < energy  _old

     new trust radius        =       0.0132860475 bohr
     new conv_thr            =            1.0E-10 Ry


ATOMIC_POSITIONS (bohr)
Au      -1.489119765   2.500559861  -1.221683132
Au      -0.806769376   3.983072870   3.659665201
Au       3.106776569   1.717090159   0.700074651
Au       3.821530236   3.287090758   5.840870904
Au       7.552381335   1.145953352   3.016782376



     Writing output data file pwscf.save
     Check: negative starting charge=   -0.006387
     NEW-OLD atomic charge density approx. for the potential
     Check: negative starting charge=   -0.006392

     negative rho (up, down):  2.100E-05 0.000E+00

     total cpu time spent up to now is       31.0 secs

     per-process dynamical memory:    50.7 Mb

     Self-consistent Calculation

     iteration #  1     ecut=    30.00 Ry     beta=0.70
     Davidson diagonalization with overlap
     ethr =  1.00E-06,  avg # of iterations =  4.0

     Threshold (ethr) on eigenvalues was too large:
     Diagonalizing with lowered threshold

     Davidson diagonalization with overlap
     ethr =  5.73E-08,  avg # of iterations =  1.0

     negative rho (up, down):  3.267E-08 0.000E+00

     total cpu time spent up to now is       31.6 secs

     total energy              =    -329.49288668 Ry
     Harris-Foulkes estimate   =    -329.49289048 Ry
     estimated scf accuracy    <       0.00003157 Ry

     iteration #  2     ecut=    30.00 Ry     beta=0.70
     Davidson diagonalization with overlap
     ethr =  5.74E-08,  avg # of iterations =  3.0

     total cpu time spent up to now is       31.9 secs

     total energy              =    -329.49289297 Ry
     Harris-Foulkes estimate   =    -329.49290242 Ry
     estimated scf accuracy    <       0.00002119 Ry

     iteration #  3     ecut=    30.00 Ry     beta=0.70
     Davidson diagonalization with overlap
     ethr =  3.85E-08,  avg # of iterations =  2.0

     total cpu time spent up to now is       32.2 secs

     total energy              =    -329.49289764 Ry
     Harris-Foulkes estimate   =    -329.49289859 Ry
     estimated scf accuracy    <       0.00000298 Ry

     iteration #  4     ecut=    30.00 Ry     beta=0.70
     Davidson diagonalization with overlap
     ethr =  5.41E-09,  avg # of iterations =  2.0

     total cpu time spent up to now is       32.4 secs

     total energy              =    -329.49289854 Ry
     Harris-Foulkes estimate   =    -329.49289926 Ry
     estimated scf accuracy    <       0.00000306 Ry

     iteration #  5     ecut=    30.00 Ry     beta=0.70
     Davidson diagonalization with overlap
     ethr =  5.41E-09,  avg # of iterations =  2.0

     total cpu time spent up to now is       32.7 secs

     total energy              =    -329.49289906 Ry
     Harris-Foulkes estimate   =    -329.49289911 Ry
     estimated scf accuracy    <       0.00000014 Ry

     iteration #  6     ecut=    30.00 Ry     beta=0.70
     Davidson diagonalization with overlap
     ethr =  2.48E-10,  avg # of iterations =  3.0

     total cpu time spent up to now is       33.0 secs

     total energy              =    -329.49289907 Ry
     Harris-Foulkes estimate   =    -329.49289911 Ry
     estimated scf accuracy    <       0.00000001 Ry

     iteration #  7     ecut=    30.00 Ry     beta=0.70
     Davidson diagonalization with overlap
     ethr =  2.61E-11,  avg # of iterations =  2.0

     total cpu time spent up to now is       33.3 secs

     total energy              =    -329.49289909 Ry
     Harris-Foulkes estimate   =    -329.49289908 Ry
     estimated scf accuracy    <          2.5E-09 Ry

     iteration #  8     ecut=    30.00 Ry     beta=0.70
     Davidson diagonalization with overlap
     ethr =  4.62E-12,  avg # of iterations =  2.0

     total cpu time spent up to now is       33.6 secs

     total energy              =    -329.49289905 Ry
     Harris-Foulkes estimate   =    -329.49289909 Ry
     estimated scf accuracy    <          6.5E-10 Ry

     iteration #  9     ecut=    30.00 Ry     beta=0.70
     Davidson diagonalization with overlap
     ethr =  1.18E-12,  avg # of iterations =  2.0

     total cpu time spent up to now is       33.9 secs

     total energy              =    -329.49289907 Ry
     Harris-Foulkes estimate   =    -329.49289905 Ry
     estimated scf accuracy    <          1.1E-10 Ry

     iteration # 10     ecut=    30.00 Ry     beta=0.70
     Davidson diagonalization with overlap
     ethr =  2.08E-13,  avg # of iterations =  2.0

     total cpu time spent up to now is       34.2 secs

     End of self-consistent calculation

          k = 0.0000 0.0000 0.0000 ( 22119 PWs)   bands (ev):

    -8.5350  -7.8105  -7.6818  -7.2635  -6.8680  -6.8308  -6.6345  -6.4997
    -6.3266  -6.0824  -5.9632  -5.7743  -5.7329  -5.6933  -5.4662  -5.3577
    -5.3142  -5.2503  -5.1952  -5.1803  -5.1752  -5.1200  -5.0029  -4.9151
    -4.8285  -4.7340  -4.4721  -3.7645  -2.4384  -2.1917  -0.5488  -0.1859
     0.4638   0.8162

     the Fermi energy is    -3.7309 ev

!    total energy              =    -329.49289908 Ry
     Harris-Foulkes estimate   =    -329.49289907 Ry
     estimated scf accuracy    <          2.0E-11 Ry

     The total energy is the sum of the following terms:

     one-electron contribution =    -609.09761070 Ry
     hartree contribution      =     325.97010832 Ry
     xc contribution           =     -51.40609301 Ry
     ewald contribution        =       5.04530028 Ry
     smearing contrib. (-TS)   =      -0.00460399 Ry

     convergence has been achieved in  10 iterations

     Forces acting on atoms (Ry/au):

     atom    1 type  1   force =    -0.00079930    0.00011042   -0.00191636
     atom    2 type  1   force =    -0.00159199    0.00136564    0.00070044
     atom    3 type  1   force =    -0.00011184   -0.00191038   -0.00091815
     atom    4 type  1   force =     0.00097440    0.00152201    0.00229106
     atom    5 type  1   force =     0.00152873   -0.00108769   -0.00015698

     Total force =     0.005077     Total SCF correction =     0.000018

     number of scf cycles    =  10
     number of bfgs steps    =   9

     energy   old            =    -329.4928523716 Ry
     energy   new            =    -329.4928990826 Ry

     CASE: energy  _new < energy  _old

     new trust radius        =       0.0146146523 bohr
     new conv_thr            =            1.0E-10 Ry


ATOMIC_POSITIONS (bohr)
Au      -1.489527882   2.499116826  -1.229885186
Au      -0.811552660   3.986184755   3.656401583
Au       3.100688536   1.715415455   0.708811721
Au       3.831974492   3.295558525   5.846598251
Au       7.553216514   1.137491439   3.013783631



     Writing output data file pwscf.save
     Check: negative starting charge=   -0.006392
     NEW-OLD atomic charge density approx. for the potential
     Check: negative starting charge=   -0.006391

     negative rho (up, down):  2.669E-05 0.000E+00

     total cpu time spent up to now is       34.6 secs

     per-process dynamical memory:    50.7 Mb

     Self-consistent Calculation

     iteration #  1     ecut=    30.00 Ry     beta=0.70
     Davidson diagonalization with overlap
     ethr =  1.00E-06,  avg # of iterations =  4.0

     Threshold (ethr) on eigenvalues was too large:
     Diagonalizing with lowered threshold

     Davidson diagonalization with overlap
     ethr =  6.22E-08,  avg # of iterations =  1.0

     negative rho (up, down):  5.231E-08 0.000E+00

     total cpu time spent up to now is       35.2 secs

     total energy              =    -329.49293556 Ry
     Harris-Foulkes estimate   =    -329.49293954 Ry
     estimated scf accuracy    <       0.00003439 Ry

     iteration #  2     ecut=    30.00 Ry     beta=0.70
     Davidson diagonalization with overlap
     ethr =  6.25E-08,  avg # of iterations =  3.0

     total cpu time spent up to now is       35.5 secs

     total energy              =    -329.49294284 Ry
     Harris-Foulkes estimate   =    -329.49295293 Ry
     estimated scf accuracy    <       0.00002376 Ry

     iteration #  3     ecut=    30.00 Ry     beta=0.70
     Davidson diagonalization with overlap
     ethr =  4.32E-08,  avg # of iterations =  2.0

     total cpu time spent up to now is       35.7 secs

     total energy              =    -329.49294828 Ry
     Harris-Foulkes estimate   =    -329.49294892 Ry
     estimated scf accuracy    <       0.00000255 Ry

     iteration #  4     ecut=    30.00 Ry     beta=0.70
     Davidson diagonalization with overlap
     ethr =  4.63E-09,  avg # of iterations =  2.0

     total cpu time spent up to now is       36.0 secs

     total energy              =    -329.49294904 Ry
     Harris-Foulkes estimate   =    -329.49294982 Ry
     estimated scf accuracy    <       0.00000324 Ry

     iteration #  5     ecut=    30.00 Ry     beta=0.70
     Davidson diagonalization with overlap
     ethr =  4.63E-09,  avg # of iterations =  2.0

     total cpu time spent up to now is       36.3 secs

     total energy              =    -329.49294959 Ry
     Harris-Foulkes estimate   =    -329.49294966 Ry
     estimated scf accuracy    <       0.00000017 Ry

     iteration #  6     ecut=    30.00 Ry     beta=0.70
     Davidson diagonalization with overlap
     ethr =  3.01E-10,  avg # of iterations =  2.0

     total cpu time spent up to now is       36.6 secs

     total energy              =    -329.49294975 Ry
     Harris-Foulkes estimate   =    -329.49294964 Ry
     estimated scf accuracy    <       0.00000001 Ry

     iteration #  7     ecut=    30.00 Ry     beta=0.70
     Davidson diagonalization with overlap
     ethr =  2.42E-11,  avg # of iterations =  2.0

     total cpu time spent up to now is       36.9 secs

     total energy              =    -329.49294975 Ry
     Harris-Foulkes estimate   =    -329.49294976 Ry
     estimated scf accuracy    <          3.0E-09 Ry

     iteration #  8     ecut=    30.00 Ry     beta=0.70
     Davidson diagonalization with overlap
     ethr =  5.48E-12,  avg # of iterations =  2.0

     total cpu time spent up to now is       37.2 secs

     total energy              =    -329.49294978 Ry
     Harris-Foulkes estimate   =    -329.49294975 Ry
     estimated scf accuracy    <          7.9E-10 Ry

     iteration #  9     ecut=    30.00 Ry     beta=0.70
     Davidson diagonalization with overlap
     ethr =  1.43E-12,  avg # of iterations =  2.0

     total cpu time spent up to now is       37.5 secs

     total energy              =    -329.49294978 Ry
     Harris-Foulkes estimate   =    -329.49294978 Ry
     estimated scf accuracy    <          1.3E-10 Ry

     iteration # 10     ecut=    30.00 Ry     beta=0.70
     Davidson diagonalization with overlap
     ethr =  2.30E-13,  avg # of iterations =  2.0

     total cpu time spent up to now is       37.8 secs

     End of self-consistent calculation

          k = 0.0000 0.0000 0.0000 ( 22119 PWs)   bands (ev):

    -8.5325  -7.8056  -7.6700  -7.2522  -6.8539  -6.8291  -6.6298  -6.4956
    -6.3162  -6.0858  -5.9596  -5.7724  -5.7327  -5.6905  -5.4686  -5.3541
    -5.3118  -5.2538  -5.1947  -5.1803  -5.1744  -5.1203  -5.0026  -4.9214
    -4.8315  -4.7327  -4.4790  -3.7634  -2.4374  -2.2021  -0.5470  -0.1838
     0.4619   0.8137

     the Fermi energy is    -3.7289 ev

!    total energy              =    -329.49294979 Ry
     Harris-Foulkes estimate   =    -329.49294978 Ry
     estimated scf accuracy    <          1.8E-11 Ry

     The total energy is the sum of the following terms:

     one-electron contribution =    -608.51489288 Ry
     hartree contribution      =     325.68132945 Ry
     xc contribution           =     -51.40355986 Ry
     ewald contribution        =       4.74897557 Ry
     smearing contrib. (-TS)   =      -0.00480206 Ry

     convergence has been achieved in  10 iterations

     Forces acting on atoms (Ry/au):

     atom    1 type  1   force =    -0.00052596    0.00028798   -0.00153703
     atom    2 type  1   force =    -0.00022136    0.00119856    0.00089223
     atom    3 type  1   force =     0.00016865   -0.00184700   -0.00066058
     atom    4 type  1   force =    -0.00044485    0.00110676    0.00135297
     atom    5 type  1   force =     0.00102352   -0.00074630   -0.00004760

     Total force =     0.003707     Total SCF correction =     0.000018

     number of scf cycles    =  11
     number of bfgs steps    =  10

     energy   old            =    -329.4928990826 Ry
     energy   new            =    -329.4929497949 Ry

     CASE: energy  _new < energy  _old

     new trust radius        =       0.0112213338 bohr
     new conv_thr            =            1.0E-10 Ry


ATOMIC_POSITIONS (bohr)
Au      -1.490847065   2.498681876  -1.237801246
Au      -0.815192249   3.990281617   3.656167361
Au       3.097193407   1.711013229   0.712565343
Au       3.837736559   3.302838592   5.852900436
Au       7.555908348   1.130951686   3.011878105



     Writing output data file pwscf.save
     Check: negative starting charge=   -0.006391
     NEW-OLD atomic charge density approx. for the potential
     Check: negative starting charge=   -0.006387

     negative rho (up, down):  1.117E-05 0.000E+00

     total cpu time spent up to now is       38.1 secs

     per-process dynamical memory:    50.7 Mb

     Self-consistent Calculation

     iteration #  1     ecut=    30.00 Ry     beta=0.70
     Davidson diagonalization with overlap
     ethr =  1.00E-06,  avg # of iterations =  4.0

     Threshold (ethr) on eigenvalues was too large:
     Diagonalizing with lowered threshold

     Davidson diagonalization with overlap
     ethr =  3.53E-08,  avg # of iterations =  2.0

     total cpu time spent up to now is       38.7 secs

     total energy              =    -329.49297237 Ry
     Harris-Foulkes estimate   =    -329.49297339 Ry
     estimated scf accuracy    <       0.00002060 Ry

     iteration #  2     ecut=    30.00 Ry     beta=0.70
     Davidson diagonalization with overlap
     ethr =  3.75E-08,  avg # of iterations =  2.0

     total cpu time spent up to now is       39.1 secs

     total energy              =    -329.49297638 Ry
     Harris-Foulkes estimate   =    -329.49298329 Ry
     estimated scf accuracy    <       0.00001594 Ry

     iteration #  3     ecut=    30.00 Ry     beta=0.70
     Davidson diagonalization with overlap
     ethr =  2.90E-08,  avg # of iterations =  2.0

     total cpu time spent up to now is       39.3 secs

     total energy              =    -329.49298035 Ry
     Harris-Foulkes estimate   =    -329.49298039 Ry
     estimated scf accuracy    <       0.00000142 Ry

     iteration #  4     ecut=    30.00 Ry     beta=0.70
     Davidson diagonalization with overlap
     ethr =  2.58E-09,  avg # of iterations =  2.0

     total cpu time spent up to now is       39.6 secs

     total energy              =    -329.49298057 Ry
     Harris-Foulkes estimate   =    -329.49298120 Ry
     estimated scf accuracy    <       0.00000175 Ry

     iteration #  5     ecut=    30.00 Ry     beta=0.70
     Davidson diagonalization with overlap
     ethr =  2.58E-09,  avg # of iterations =  2.0

     total cpu time spent up to now is       39.9 secs

     total energy              =    -329.49298094 Ry
     Harris-Foulkes estimate   =    -329.49298093 Ry
     estimated scf accuracy    <       0.00000013 Ry

     iteration #  6     ecut=    30.00 Ry     beta=0.70
     Davidson diagonalization with overlap
     ethr =  2.27E-10,  avg # of iterations =  2.0

     total cpu time spent up to now is       40.2 secs

     total energy              =    -329.49298100 Ry
     Harris-Foulkes estimate   =    -329.49298097 Ry
     estimated scf accuracy    <          7.0E-09 Ry

     iteration #  7     ecut=    30.00 Ry     beta=0.70
     Davidson diagonalization with overlap
     ethr =  1.27E-11,  avg # of iterations =  2.0

     total cpu time spent up to now is       40.4 secs

     total energy              =    -329.49298097 Ry
     Harris-Foulkes estimate   =    -329.49298100 Ry
     estimated scf accuracy    <          2.2E-09 Ry

     iteration #  8     ecut=    30.00 Ry     beta=0.70
     Davidson diagonalization with overlap
     ethr =  4.08E-12,  avg # of iterations =  2.0

     total cpu time spent up to now is       40.8 secs

     total energy              =    -329.49298098 Ry
     Harris-Foulkes estimate   =    -329.49298097 Ry
     estimated scf accuracy    <          4.6E-10 Ry

     iteration #  9     ecut=    30.00 Ry     beta=0.70
     Davidson diagonalization with overlap
     ethr =  8.42E-13,  avg # of iterations =  3.0

     total cpu time spent up to now is       41.0 secs

     End of self-consistent calculation

          k = 0.0000 0.0000 0.0000 ( 22119 PWs)   bands (ev):

    -8.5226  -7.7935  -7.6569  -7.2382  -6.8425  -6.8229  -6.6206  -6.4878
    -6.3067  -6.0850  -5.9539  -5.7697  -5.7307  -5.6870  -5.4676  -5.3524
    -5.3109  -5.2554  -5.1953  -5.1793  -5.1738  -5.1212  -5.0028  -4.9262
    -4.8349  -4.7336  -4.4841  -3.7653  -2.4384  -2.2117  -0.5446  -0.1837
     0.4600   0.8120

     the Fermi energy is    -3.7304 ev

!    total energy              =    -329.49298096 Ry
     Harris-Foulkes estimate   =    -329.49298098 Ry
     estimated scf accuracy    <          4.6E-11 Ry

     The total energy is the sum of the following terms:

     one-electron contribution =    -607.70436812 Ry
     hartree contribution      =     325.28076993 Ry
     xc contribution           =     -51.40033647 Ry
     ewald contribution        =       4.33582901 Ry
     smearing contrib. (-TS)   =      -0.00487532 Ry

     convergence has been achieved in   9 iterations

     Forces acting on atoms (Ry/au):

     atom    1 type  1   force =    -0.00001189    0.00043203   -0.00078222
     atom    2 type  1   force =     0.00083387    0.00078535    0.00037499
     atom    3 type  1   force =     0.00015116   -0.00151024   -0.00008072
     atom    4 type  1   force =    -0.00095445    0.00064084    0.00025128
     atom    5 type  1   force =    -0.00001869   -0.00034799    0.00023667

     Total force =     0.002475     Total SCF correction =     0.000032

     number of scf cycles    =  12
     number of bfgs steps    =  11

     energy   old            =    -329.4929497949 Ry
     energy   new            =    -329.4929809640 Ry

     CASE: energy  _new < energy  _old

     new trust radius        =       0.0050281454 bohr
     new conv_thr            =            1.0E-10 Ry


ATOMIC_POSITIONS (bohr)
Au      -1.491473328   2.498976547  -1.242297766
Au      -0.815384407   3.993000463   3.656963974
Au       3.095913993   1.707256629   0.713789637
Au       3.838355212   3.306773230   5.855969335
Au       7.557387530   1.127760131   3.011284819



     Writing output data file pwscf.save
     Check: negative starting charge=   -0.006387
     NEW-OLD atomic charge density approx. for the potential
     Check: negative starting charge=   -0.006384

     negative rho (up, down):  4.321E-07 0.000E+00

     total cpu time spent up to now is       41.3 secs

     per-process dynamical memory:    50.7 Mb

     Self-consistent Calculation

     iteration #  1     ecut=    30.00 Ry     beta=0.70
     Davidson diagonalization with overlap
     ethr =  1.00E-06,  avg # of iterations =  3.0

     Threshold (ethr) on eigenvalues was too large:
     Diagonalizing with lowered threshold

     Davidson diagonalization with overlap
     ethr =  1.05E-08,  avg # of iterations =  2.0

     total cpu time spent up to now is       41.9 secs

     total energy              =    -329.49298995 Ry
     Harris-Foulkes estimate   =    -329.49299081 Ry
     estimated scf accuracy    <       0.00000621 Ry

     iteration #  2     ecut=    30.00 Ry     beta=0.70
     Davidson diagonalization with overlap
     ethr =  1.13E-08,  avg # of iterations =  2.0

     total cpu time spent up to now is       42.2 secs

     total energy              =    -329.49299107 Ry
     Harris-Foulkes estimate   =    -329.49299366 Ry
     estimated scf accuracy    <       0.00000621 Ry

     iteration #  3     ecut=    30.00 Ry     beta=0.70
     Davidson diagonalization with overlap
     ethr =  1.13E-08,  avg # of iterations =  2.0

     total cpu time spent up to now is       42.5 secs

     total energy              =    -329.49299225 Ry
     Harris-Foulkes estimate   =    -329.49299268 Ry
     estimated scf accuracy    <       0.00000082 Ry

     iteration #  4     ecut=    30.00 Ry     beta=0.70
     Davidson diagonalization with overlap
     ethr =  1.50E-09,  avg # of iterations =  2.0

     total cpu time spent up to now is       42.8 secs

     total energy              =    -329.49299253 Ry
     Harris-Foulkes estimate   =    -329.49299262 Ry
     estimated scf accuracy    <       0.00000056 Ry

     iteration #  5     ecut=    30.00 Ry     beta=0.70
     Davidson diagonalization with overlap
     ethr =  1.01E-09,  avg # of iterations =  2.0

     total cpu time spent up to now is       43.0 secs

     total energy              =    -329.49299268 Ry
     Harris-Foulkes estimate   =    -329.49299264 Ry
     estimated scf accuracy    <       0.00000003 Ry

     iteration #  6     ecut=    30.00 Ry     beta=0.70
     Davidson diagonalization with overlap
     ethr =  4.84E-11,  avg # of iterations =  3.0

     total cpu time spent up to now is       43.3 secs

     total energy              =    -329.49299275 Ry
     Harris-Foulkes estimate   =    -329.49299269 Ry
     estimated scf accuracy    <          3.4E-09 Ry

[...]

     negative rho (up, down):  6.100E-05 0.000E+00

     total cpu time spent up to now is      152.9 secs

     per-process dynamical memory:    50.7 Mb

     Self-consistent Calculation

     iteration #  1     ecut=    30.00 Ry     beta=0.70
     Davidson diagonalization with overlap
     ethr =  1.00E-06,  avg # of iterations =  4.0

     negative rho (up, down):  2.910E-07 0.000E+00

     total cpu time spent up to now is      153.6 secs

     total energy              =    -329.49348771 Ry
     Harris-Foulkes estimate   =    -329.49350878 Ry
     estimated scf accuracy    <       0.00006556 Ry

     iteration #  2     ecut=    30.00 Ry     beta=0.70
     Davidson diagonalization with overlap
     ethr =  1.19E-07,  avg # of iterations =  2.0

     negative rho (up, down):  1.184E-08 0.000E+00

     total cpu time spent up to now is      154.0 secs

     total energy              =    -329.49349778 Ry
     Harris-Foulkes estimate   =    -329.49352496 Ry
     estimated scf accuracy    <       0.00005607 Ry

     iteration #  3     ecut=    30.00 Ry     beta=0.70
     Davidson diagonalization with overlap
     ethr =  1.02E-07,  avg # of iterations =  2.0

     total cpu time spent up to now is      154.4 secs

     total energy              =    -329.49350953 Ry
     Harris-Foulkes estimate   =    -329.49351100 Ry
     estimated scf accuracy    <       0.00000285 Ry

     iteration #  4     ecut=    30.00 Ry     beta=0.70
     Davidson diagonalization with overlap
     ethr =  5.18E-09,  avg # of iterations =  2.0

     total cpu time spent up to now is      154.8 secs

     total energy              =    -329.49350963 Ry
     Harris-Foulkes estimate   =    -329.49351080 Ry
     estimated scf accuracy    <       0.00000189 Ry

     iteration #  5     ecut=    30.00 Ry     beta=0.70
     Davidson diagonalization with overlap
     ethr =  3.44E-09,  avg # of iterations =  2.0

     total cpu time spent up to now is      155.2 secs

     total energy              =    -329.49350982 Ry
     Harris-Foulkes estimate   =    -329.49351019 Ry
     estimated scf accuracy    <       0.00000050 Ry

     iteration #  6     ecut=    30.00 Ry     beta=0.70
     Davidson diagonalization with overlap
     ethr =  9.02E-10,  avg # of iterations =  2.0

     total cpu time spent up to now is      155.5 secs

     total energy              =    -329.49350984 Ry
     Harris-Foulkes estimate   =    -329.49350991 Ry
     estimated scf accuracy    <       0.00000001 Ry

     iteration #  7     ecut=    30.00 Ry     beta=0.70
     Davidson diagonalization with overlap
     ethr =  2.28E-11,  avg # of iterations =  3.0

     total cpu time spent up to now is      156.0 secs

     total energy              =    -329.49350978 Ry
     Harris-Foulkes estimate   =    -329.49350985 Ry
     estimated scf accuracy    <       0.00000001 Ry

     iteration #  8     ecut=    30.00 Ry     beta=0.70
     Davidson diagonalization with overlap
     ethr =  1.97E-11,  avg # of iterations =  2.0

     total cpu time spent up to now is      156.4 secs

     total energy              =    -329.49350975 Ry
     Harris-Foulkes estimate   =    -329.49350979 Ry
     estimated scf accuracy    <          9.5E-10 Ry

     iteration #  9     ecut=    30.00 Ry     beta=0.70
     Davidson diagonalization with overlap
     ethr =  1.72E-12,  avg # of iterations =  3.0

     total cpu time spent up to now is      156.8 secs

     End of self-consistent calculation

          k = 0.0000 0.0000 0.0000 ( 22119 PWs)   bands (ev):

    -8.5258  -7.7881  -7.6510  -7.2232  -6.8398  -6.8282  -6.6057  -6.4782
    -6.3009  -6.0882  -5.9442  -5.7696  -5.7313  -5.6846  -5.4604  -5.3517
    -5.3077  -5.2522  -5.1990  -5.1781  -5.1713  -5.1199  -4.9926  -4.9291
    -4.8343  -4.7331  -4.4838  -3.7691  -2.4171  -2.2137  -0.5319  -0.1815
     0.4606   0.7862

     the Fermi energy is    -3.7348 ev

!    total energy              =    -329.49350971 Ry
     Harris-Foulkes estimate   =    -329.49350975 Ry
     estimated scf accuracy    <          5.3E-11 Ry

     The total energy is the sum of the following terms:

     one-electron contribution =    -606.66507709 Ry
     hartree contribution      =     324.76635784 Ry
     xc contribution           =     -51.39946079 Ry
     ewald contribution        =       3.80942709 Ry
     smearing contrib. (-TS)   =      -0.00475676 Ry

     convergence has been achieved in   9 iterations

     Forces acting on atoms (Ry/au):

     atom    1 type  1   force =    -0.00150085    0.00052801   -0.00159077
     atom    2 type  1   force =     0.00045194    0.00018994    0.00142783
     atom    3 type  1   force =     0.00061115   -0.00035135    0.00033448
     atom    4 type  1   force =     0.00010438    0.00009211   -0.00079098
     atom    5 type  1   force =     0.00033338   -0.00045870    0.00061944

     Total force =     0.003050     Total SCF correction =     0.000033

     number of scf cycles    =  38
     number of bfgs steps    =  37

     energy   old            =    -329.4934828970 Ry
     energy   new            =    -329.4935097104 Ry

     CASE: energy  _new < energy  _old

     new trust radius        =       0.0204131648 bohr
     new conv_thr            =            1.0E-10 Ry


ATOMIC_POSITIONS (bohr)
Au      -1.435955371   2.527607299  -1.271668910
Au      -0.761859670   4.223470437   3.561803157
Au       3.089203211   1.635588236   0.747320900
Au       3.826924845   3.376393104   5.827737092
Au       7.466485984   0.870707925   3.130517760



     Writing output data file pwscf.save
     Check: negative starting charge=   -0.006340
     NEW-OLD atomic charge density approx. for the potential
     Check: negative starting charge=   -0.006343

     negative rho (up, down):  5.672E-05 0.000E+00

     total cpu time spent up to now is      157.2 secs

     per-process dynamical memory:    50.7 Mb

     Self-consistent Calculation

     iteration #  1     ecut=    30.00 Ry     beta=0.70
     Davidson diagonalization with overlap
     ethr =  1.00E-06,  avg # of iterations =  4.0

     negative rho (up, down):  2.349E-07 0.000E+00

     total cpu time spent up to now is      157.9 secs

     total energy              =    -329.49350097 Ry
     Harris-Foulkes estimate   =    -329.49353199 Ry
     estimated scf accuracy    <       0.00007463 Ry

     iteration #  2     ecut=    30.00 Ry     beta=0.70
     Davidson diagonalization with overlap
     ethr =  1.36E-07,  avg # of iterations =  3.0

     negative rho (up, down):  1.108E-08 0.000E+00

     total cpu time spent up to now is      158.3 secs

     total energy              =    -329.49351213 Ry
     Harris-Foulkes estimate   =    -329.49354839 Ry
     estimated scf accuracy    <       0.00007848 Ry

     iteration #  3     ecut=    30.00 Ry     beta=0.70
     Davidson diagonalization with overlap
     ethr =  1.36E-07,  avg # of iterations =  2.0

     total cpu time spent up to now is      158.7 secs

     total energy              =    -329.49352792 Ry
     Harris-Foulkes estimate   =    -329.49352938 Ry
     estimated scf accuracy    <       0.00000251 Ry

     iteration #  4     ecut=    30.00 Ry     beta=0.70
     Davidson diagonalization with overlap
     ethr =  4.57E-09,  avg # of iterations =  2.0

     total cpu time spent up to now is      159.1 secs

     total energy              =    -329.49352829 Ry
     Harris-Foulkes estimate   =    -329.49352932 Ry
     estimated scf accuracy    <       0.00000279 Ry

     iteration #  5     ecut=    30.00 Ry     beta=0.70
     Davidson diagonalization with overlap
     ethr =  4.57E-09,  avg # of iterations =  2.0

     total cpu time spent up to now is      159.5 secs

     total energy              =    -329.49352849 Ry
     Harris-Foulkes estimate   =    -329.49352897 Ry
     estimated scf accuracy    <       0.00000041 Ry

     iteration #  6     ecut=    30.00 Ry     beta=0.70
     Davidson diagonalization with overlap
     ethr =  7.46E-10,  avg # of iterations =  2.0

     total cpu time spent up to now is      159.9 secs

     total energy              =    -329.49352866 Ry
     Harris-Foulkes estimate   =    -329.49352857 Ry
     estimated scf accuracy    <       0.00000001 Ry

     iteration #  7     ecut=    30.00 Ry     beta=0.70
     Davidson diagonalization with overlap
     ethr =  2.42E-11,  avg # of iterations =  3.0

     total cpu time spent up to now is      160.3 secs

     total energy              =    -329.49352873 Ry
     Harris-Foulkes estimate   =    -329.49352867 Ry
     estimated scf accuracy    <          6.2E-09 Ry

     iteration #  8     ecut=    30.00 Ry     beta=0.70
     Davidson diagonalization with overlap
     ethr =  1.13E-11,  avg # of iterations =  3.0

     total cpu time spent up to now is      160.8 secs

     total energy              =    -329.49352876 Ry
     Harris-Foulkes estimate   =    -329.49352873 Ry
     estimated scf accuracy    <          2.1E-09 Ry

     iteration #  9     ecut=    30.00 Ry     beta=0.70
     Davidson diagonalization with overlap
     ethr =  3.90E-12,  avg # of iterations =  2.0

     total cpu time spent up to now is      161.2 secs

     total energy              =    -329.49352877 Ry
     Harris-Foulkes estimate   =    -329.49352877 Ry
     estimated scf accuracy    <          1.3E-10 Ry

     iteration # 10     ecut=    30.00 Ry     beta=0.70
     Davidson diagonalization with overlap
     ethr =  2.35E-13,  avg # of iterations =  3.0

     total cpu time spent up to now is      161.6 secs

     End of self-consistent calculation

          k = 0.0000 0.0000 0.0000 ( 22119 PWs)   bands (ev):

    -8.5249  -7.7868  -7.6526  -7.2234  -6.8425  -6.8279  -6.6041  -6.4776
    -6.3023  -6.0871  -5.9437  -5.7696  -5.7311  -5.6847  -5.4588  -5.3527
    -5.3084  -5.2511  -5.1995  -5.1777  -5.1715  -5.1198  -4.9919  -4.9279
    -4.8339  -4.7337  -4.4826  -3.7703  -2.4161  -2.2122  -0.5314  -0.1826
     0.4607   0.7847

     the Fermi energy is    -3.7363 ev

!    total energy              =    -329.49352874 Ry
     Harris-Foulkes estimate   =    -329.49352877 Ry
     estimated scf accuracy    <          2.3E-11 Ry

     The total energy is the sum of the following terms:

     one-electron contribution =    -606.64182338 Ry
     hartree contribution      =     324.75511191 Ry
     xc contribution           =     -51.39963315 Ry
     ewald contribution        =       3.79750765 Ry
     smearing contrib. (-TS)   =      -0.00469177 Ry

     convergence has been achieved in  10 iterations

     Forces acting on atoms (Ry/au):

     atom    1 type  1   force =    -0.00148039    0.00017554   -0.00155338
     atom    2 type  1   force =     0.00011176    0.00008235    0.00106663
     atom    3 type  1   force =     0.00049894   -0.00016662    0.00034882
     atom    4 type  1   force =     0.00039929    0.00004085   -0.00075941
     atom    5 type  1   force =     0.00047041   -0.00013213    0.00089734

     Total force =     0.002824     Total SCF correction =     0.000022

     number of scf cycles    =  39
     number of bfgs steps    =  38

     energy   old            =    -329.4935097104 Ry
     energy   new            =    -329.4935287399 Ry

     CASE: energy  _new < energy  _old

     new trust radius        =       0.0136474021 bohr
     new conv_thr            =            1.0E-10 Ry


ATOMIC_POSITIONS (bohr)
Au      -1.439338235   2.540549322  -1.274372955
Au      -0.758397225   4.219260589   3.570410434
Au       3.085620101   1.632102736   0.747069019
Au       3.832450245   3.378592601   5.823425847
Au       7.464464114   0.863261752   3.129177655



     Writing output data file pwscf.save
     Check: negative starting charge=   -0.006343
     NEW-OLD atomic charge density approx. for the potential
     Check: negative starting charge=   -0.006344

     negative rho (up, down):  2.087E-05 0.000E+00

     total cpu time spent up to now is      162.0 secs

     per-process dynamical memory:    50.7 Mb

     Self-consistent Calculation

     iteration #  1     ecut=    30.00 Ry     beta=0.70
     Davidson diagonalization with overlap
     ethr =  1.00E-06,  avg # of iterations =  4.0

     Threshold (ethr) on eigenvalues was too large:
     Diagonalizing with lowered threshold

     Davidson diagonalization with overlap
     ethr =  6.85E-08,  avg # of iterations =  1.0

     negative rho (up, down):  2.540E-08 0.000E+00

     total cpu time spent up to now is      162.9 secs

     total energy              =    -329.49353028 Ry
     Harris-Foulkes estimate   =    -329.49354458 Ry
     estimated scf accuracy    <       0.00003804 Ry

     iteration #  2     ecut=    30.00 Ry     beta=0.70
     Davidson diagonalization with overlap
     ethr =  6.92E-08,  avg # of iterations =  2.0

     total cpu time spent up to now is      163.3 secs

     total energy              =    -329.49353487 Ry
     Harris-Foulkes estimate   =    -329.49355397 Ry
     estimated scf accuracy    <       0.00004149 Ry

     iteration #  3     ecut=    30.00 Ry     beta=0.70
     Davidson diagonalization with overlap
     ethr =  6.92E-08,  avg # of iterations =  2.0

     total cpu time spent up to now is      163.7 secs

     total energy              =    -329.49354314 Ry
     Harris-Foulkes estimate   =    -329.49354603 Ry
     estimated scf accuracy    <       0.00000757 Ry

     iteration #  4     ecut=    30.00 Ry     beta=0.70
     Davidson diagonalization with overlap
     ethr =  1.38E-08,  avg # of iterations =  2.0

     total cpu time spent up to now is      164.1 secs

     total energy              =    -329.49354475 Ry
     Harris-Foulkes estimate   =    -329.49354560 Ry
     estimated scf accuracy    <       0.00000215 Ry

     iteration #  5     ecut=    30.00 Ry     beta=0.70
     Davidson diagonalization with overlap
     ethr =  3.92E-09,  avg # of iterations =  2.0

     total cpu time spent up to now is      164.5 secs

     total energy              =    -329.49354504 Ry
     Harris-Foulkes estimate   =    -329.49354520 Ry
     estimated scf accuracy    <       0.00000016 Ry

     iteration #  6     ecut=    30.00 Ry     beta=0.70
     Davidson diagonalization with overlap
     ethr =  2.97E-10,  avg # of iterations =  2.0

     total cpu time spent up to now is      164.9 secs

     total energy              =    -329.49354508 Ry
     Harris-Foulkes estimate   =    -329.49354509 Ry
     estimated scf accuracy    <       0.00000002 Ry

     iteration #  7     ecut=    30.00 Ry     beta=0.70
     Davidson diagonalization with overlap
     ethr =  3.09E-11,  avg # of iterations =  3.0

     total cpu time spent up to now is      165.3 secs

     total energy              =    -329.49354508 Ry
     Harris-Foulkes estimate   =    -329.49354509 Ry
     estimated scf accuracy    <          7.0E-09 Ry

     iteration #  8     ecut=    30.00 Ry     beta=0.70
     Davidson diagonalization with overlap
     ethr =  1.28E-11,  avg # of iterations =  2.0

     total cpu time spent up to now is      165.7 secs

     total energy              =    -329.49354513 Ry
     Harris-Foulkes estimate   =    -329.49354508 Ry
     estimated scf accuracy    <          7.6E-10 Ry

     iteration #  9     ecut=    30.00 Ry     beta=0.70
     Davidson diagonalization with overlap
     ethr =  1.39E-12,  avg # of iterations =  3.0

     total cpu time spent up to now is      166.2 secs

     total energy              =    -329.49354514 Ry
     Harris-Foulkes estimate   =    -329.49354513 Ry
     estimated scf accuracy    <          2.5E-10 Ry

     iteration # 10     ecut=    30.00 Ry     beta=0.70
     Davidson diagonalization with overlap
     ethr =  4.56E-13,  avg # of iterations =  2.0

     total cpu time spent up to now is      166.6 secs

     End of self-consistent calculation

          k = 0.0000 0.0000 0.0000 ( 22119 PWs)   bands (ev):

    -8.5212  -7.7841  -7.6556  -7.2245  -6.8437  -6.8251  -6.6011  -6.4778
    -6.3046  -6.0853  -5.9417  -5.7687  -5.7296  -5.6848  -5.4589  -5.3536
    -5.3093  -5.2507  -5.2000  -5.1765  -5.1723  -5.1195  -4.9930  -4.9269
    -4.8322  -4.7356  -4.4822  -3.7714  -2.4173  -2.2111  -0.5313  -0.1828
     0.4593   0.7837

     the Fermi energy is    -3.7376 ev

!    total energy              =    -329.49354514 Ry
     Harris-Foulkes estimate   =    -329.49354514 Ry
     estimated scf accuracy    <          1.4E-11 Ry

     The total energy is the sum of the following terms:

     one-electron contribution =    -606.56322803 Ry
     hartree contribution      =     324.71624213 Ry
     xc contribution           =     -51.39935486 Ry
     ewald contribution        =       3.75745011 Ry
     smearing contrib. (-TS)   =      -0.00465449 Ry

     convergence has been achieved in  10 iterations

     Forces acting on atoms (Ry/au):

     atom    1 type  1   force =    -0.00093036   -0.00012382   -0.00094807
     atom    2 type  1   force =    -0.00019317    0.00010670    0.00030111
     atom    3 type  1   force =     0.00018088   -0.00000871    0.00016036
     atom    4 type  1   force =     0.00054844    0.00011185   -0.00040642
     atom    5 type  1   force =     0.00039421   -0.00008602    0.00089301

     Total force =     0.001848     Total SCF correction =     0.000018

     bfgs converged in  40 scf cycles and  39 bfgs steps
     (criteria: energy <  1.0E-04, force <  1.0E-03)

     End of BFGS Geometry Optimization

     Final energy   =    -329.4935451384 Ry
Begin final coordinates

ATOMIC_POSITIONS (bohr)
Au      -1.439338235   2.540549322  -1.274372955
Au      -0.758397225   4.219260589   3.570410434
Au       3.085620101   1.632102736   0.747069019
Au       3.832450245   3.378592601   5.823425847
Au       7.464464114   0.863261752   3.129177655
End final coordinates



     Writing output data file pwscf.save
 
     init_run     :      0.20s CPU      0.23s WALL (       1 calls)
     electrons    :    144.97s CPU    154.59s WALL (      40 calls)
     update_pot   :      4.37s CPU      5.38s WALL (      39 calls)
     forces       :      2.32s CPU      2.36s WALL (      40 calls)

     Called by init_run:
     wfcinit      :      0.08s CPU      0.10s WALL (       1 calls)
     potinit      :      0.06s CPU      0.06s WALL (       1 calls)

     Called by electrons:
     c_bands      :    109.00s CPU    111.88s WALL (     406 calls)
     sum_band     :     13.60s CPU     13.93s WALL (     406 calls)
     v_of_rho     :     12.19s CPU     12.46s WALL (     425 calls)
     mix_rho      :      5.40s CPU      8.51s WALL (     406 calls)

     Called by c_bands:
     init_us_2    :      1.30s CPU      1.34s WALL (     813 calls)
     cegterg      :    100.56s CPU    102.83s WALL (     406 calls)

     Called by sum_band:

     Called by *egterg:
     h_psi        :     78.05s CPU     79.77s WALL (    1389 calls)
     g_psi        :      0.47s CPU      0.46s WALL (     982 calls)
     cdiaghg      :      5.51s CPU      5.60s WALL (    1328 calls)

     Called by h_psi:
     h_psi:pot    :     77.37s CPU     79.09s WALL (    1389 calls)
     h_psi:calbec :      9.44s CPU      9.73s WALL (    1389 calls)
     vloc_psi     :     65.01s CPU     66.42s WALL (    1389 calls)
     add_vuspsi   :      2.92s CPU      2.93s WALL (    1389 calls)

     General routines
     calbec       :     10.16s CPU     10.47s WALL (    1549 calls)
     fft          :      9.00s CPU      9.29s WALL (    4796 calls)
     fftw         :     70.51s CPU     72.36s WALL (   89590 calls)
     davcio       :      0.50s CPU      2.83s WALL (    3983 calls)
 
     Parallel routines
     fft_scatter  :     43.25s CPU     44.38s WALL (   94386 calls)
 
     PWSCF        :  2m34.18s CPU     2m47.01s WALL

 
   This run was terminated on:   0:59:33  29Jul2017            

=------------------------------------------------------------------------------=
   JOB DONE.
=------------------------------------------------------------------------------=
