
     Program PWSCF v.6.0 (svn rev. 13079) starts on 29Jul2017 at  1:17:47 

     This program is part of the open-source Quantum ESPRESSO suite
     for quantum simulation of materials; please cite
         "P. Giannozzi et al., J. Phys.:Condens. Matter 21 395502 (2009);
          URL http://www.quantum-espresso.org", 
     in publications or presentations arising from this work. More details at
     http://www.quantum-espresso.org/quote

     Parallel version (MPI), running on    10 processors
     R & G space division:  proc/nbgrp/npool/nimage =      10
     Reading input from input/dftmin-Gold5-multi-16.in

     Current dimensions of program PWSCF are:
     Max number of different atomic species (ntypx) = 10
     Max number of k-points (npk) =  40000
     Max angular momentum in pseudopotentials (lmaxx) =  3
     Message from routine iosys:
     pot_extrapolation='second-order' not available, using 'atomic'
     Message from routine iosys:
     wfc_extrapolation='second-order' not available, using 'atomic'

     Subspace diagonalization in iterative solution of the eigenvalue problem:
     a serial algorithm will be used

 
     Parallelization info
     --------------------
     sticks:   dense  smooth     PW     G-vecs:    dense   smooth      PW
     Min         380     380     94                17748    17748    2208
     Max         381     381     95                17753    17753    2213
     Sum        3809    3809    949               177509   177509   22119
 


     bravais-lattice index     =            1
     lattice parameter (alat)  =      20.0000  a.u.
     unit-cell volume          =    8000.0000 (a.u.)^3
     number of atoms/cell      =            5
     number of atomic types    =            1
     number of electrons       =        55.00
     number of Kohn-Sham states=           34
     kinetic-energy cutoff     =      30.0000  Ry
     charge density cutoff     =     120.0000  Ry
     convergence threshold     =      1.0E-08
     mixing beta               =       0.7000
     number of iterations used =            8  plain     mixing
     Exchange-correlation      = BLYP ( 1  3  1  3 0 0)
     nstep                     =           50


     celldm(1)=  20.000000  celldm(2)=   0.000000  celldm(3)=   0.000000
     celldm(4)=   0.000000  celldm(5)=   0.000000  celldm(6)=   0.000000

     crystal axes: (cart. coord. in units of alat)
               a(1) = (   1.000000   0.000000   0.000000 )  
               a(2) = (   0.000000   1.000000   0.000000 )  
               a(3) = (   0.000000   0.000000   1.000000 )  

     reciprocal axes: (cart. coord. in units 2 pi/alat)
               b(1) = (  1.000000  0.000000  0.000000 )  
               b(2) = (  0.000000  1.000000  0.000000 )  
               b(3) = (  0.000000  0.000000  1.000000 )  


     PseudoPot. # 1 for Au read from file:
     ./Au.blyp-d-hgh.UPF
     MD5 check sum: c10d8bae01f806c36a1643a1c69a8479
     Pseudo is Norm-conserving, Zval = 11.0
     Generated in analytical, separable form
     Using radial grid of 1279 points,  6 beta functions with: 
                l(1) =   0
                l(2) =   0
                l(3) =   1
                l(4) =   1
                l(5) =   2
                l(6) =   2

     atomic species   valence    mass     pseudopotential
        Au            11.00    28.08600     Au( 1.00)

     No symmetry found



   Cartesian axes

     site n.     atom                  positions (alat units)
         1           Au  tau(   1) = (  -0.0864178   0.0936362  -0.0389620  )
         2           Au  tau(   2) = (  -0.0423878   0.1799170   0.1956514  )
         3           Au  tau(   3) = (   0.1545085   0.0706137   0.0249053  )
         4           Au  tau(   4) = (   0.2015224   0.2013053   0.2692598  )
         5           Au  tau(   5) = (   0.3736336   0.0615471   0.1460200  )

     number of k points=     1  Marzari-Vanderbilt smearing, width (Ry)=  0.0250
                       cart. coord. in units 2pi/alat
        k(    1) = (   0.0000000   0.0000000   0.0000000), wk =   2.0000000

     Dense  grid:   177509 G-vectors     FFT dimensions: (  72,  72,  72)

     Estimated max dynamical RAM per process >      15.04Mb

     Estimated total allocated dynamical RAM >     150.39Mb

     Initial potential from superposition of free atoms
     Check: negative starting charge=   -0.006354

     starting charge   54.99940, renormalised to   55.00000

     negative rho (up, down):  6.354E-03 0.000E+00
     Starting wfc are   45 randomized atomic wfcs

     total cpu time spent up to now is        0.6 secs

     per-process dynamical memory:    41.0 Mb

     Self-consistent Calculation

     iteration #  1     ecut=    30.00 Ry     beta=0.70
     Davidson diagonalization with overlap
     ethr =  1.00E-02,  avg # of iterations =  3.0

     Threshold (ethr) on eigenvalues was too large:
     Diagonalizing with lowered threshold

     Davidson diagonalization with overlap
     ethr =  4.04E-04,  avg # of iterations =  6.0

     negative rho (up, down):  8.630E-04 0.000E+00

     total cpu time spent up to now is        1.5 secs

     total energy              =    -329.37669136 Ry
     Harris-Foulkes estimate   =    -329.54473377 Ry
     estimated scf accuracy    <       0.27940829 Ry

     iteration #  2     ecut=    30.00 Ry     beta=0.70
     Davidson diagonalization with overlap
     ethr =  5.08E-04,  avg # of iterations =  4.0

     negative rho (up, down):  3.819E-04 0.000E+00

     total cpu time spent up to now is        1.9 secs

     total energy              =    -329.41279953 Ry
     Harris-Foulkes estimate   =    -329.55841514 Ry
     estimated scf accuracy    <       0.29751577 Ry

     iteration #  3     ecut=    30.00 Ry     beta=0.70
     Davidson diagonalization with overlap
     ethr =  5.08E-04,  avg # of iterations =  2.0

     negative rho (up, down):  1.466E-04 0.000E+00

     total cpu time spent up to now is        2.4 secs

     total energy              =    -329.47412415 Ry
     Harris-Foulkes estimate   =    -329.50173232 Ry
     estimated scf accuracy    <       0.07295351 Ry

     iteration #  4     ecut=    30.00 Ry     beta=0.70
     Davidson diagonalization with overlap
     ethr =  1.33E-04,  avg # of iterations =  2.0

     negative rho (up, down):  8.692E-07 0.000E+00

     total cpu time spent up to now is        2.7 secs

     total energy              =    -329.48688137 Ry
     Harris-Foulkes estimate   =    -329.48734706 Ry
     estimated scf accuracy    <       0.00160829 Ry

     iteration #  5     ecut=    30.00 Ry     beta=0.70
     Davidson diagonalization with overlap
     ethr =  2.92E-06,  avg # of iterations =  8.0

     total cpu time spent up to now is        3.3 secs

     total energy              =    -329.48732744 Ry
     Harris-Foulkes estimate   =    -329.48801674 Ry
     estimated scf accuracy    <       0.00176597 Ry

     iteration #  6     ecut=    30.00 Ry     beta=0.70
     Davidson diagonalization with overlap
     ethr =  2.92E-06,  avg # of iterations =  2.0

     total cpu time spent up to now is        3.7 secs

     total energy              =    -329.48759542 Ry
     Harris-Foulkes estimate   =    -329.48766323 Ry
     estimated scf accuracy    <       0.00015414 Ry

     iteration #  7     ecut=    30.00 Ry     beta=0.70
     Davidson diagonalization with overlap
     ethr =  2.80E-07,  avg # of iterations =  2.0

     total cpu time spent up to now is        4.1 secs

     total energy              =    -329.48762504 Ry
     Harris-Foulkes estimate   =    -329.48764685 Ry
     estimated scf accuracy    <       0.00005770 Ry

     iteration #  8     ecut=    30.00 Ry     beta=0.70
     Davidson diagonalization with overlap
     ethr =  1.05E-07,  avg # of iterations =  2.0

     total cpu time spent up to now is        4.5 secs

     total energy              =    -329.48763447 Ry
     Harris-Foulkes estimate   =    -329.48764054 Ry
     estimated scf accuracy    <       0.00001488 Ry

     iteration #  9     ecut=    30.00 Ry     beta=0.70
     Davidson diagonalization with overlap
     ethr =  2.71E-08,  avg # of iterations =  2.0

     total cpu time spent up to now is        4.9 secs

     total energy              =    -329.48763742 Ry
     Harris-Foulkes estimate   =    -329.48763800 Ry
     estimated scf accuracy    <       0.00000124 Ry

     iteration # 10     ecut=    30.00 Ry     beta=0.70
     Davidson diagonalization with overlap
     ethr =  2.26E-09,  avg # of iterations =  3.0

     total cpu time spent up to now is        5.4 secs

     total energy              =    -329.48763756 Ry
     Harris-Foulkes estimate   =    -329.48763785 Ry
     estimated scf accuracy    <       0.00000032 Ry

     iteration # 11     ecut=    30.00 Ry     beta=0.70
     Davidson diagonalization with overlap
     ethr =  5.73E-10,  avg # of iterations =  2.0

     total cpu time spent up to now is        5.8 secs

     total energy              =    -329.48763758 Ry
     Harris-Foulkes estimate   =    -329.48763763 Ry
     estimated scf accuracy    <       0.00000003 Ry

     iteration # 12     ecut=    30.00 Ry     beta=0.70
     Davidson diagonalization with overlap
     ethr =  5.55E-11,  avg # of iterations =  3.0

     total cpu time spent up to now is        6.3 secs

     total energy              =    -329.48763754 Ry
     Harris-Foulkes estimate   =    -329.48763759 Ry
     estimated scf accuracy    <       0.00000001 Ry

     iteration # 13     ecut=    30.00 Ry     beta=0.70
     Davidson diagonalization with overlap
     ethr =  1.89E-11,  avg # of iterations =  2.0

     total cpu time spent up to now is        6.7 secs

     End of self-consistent calculation

          k = 0.0000 0.0000 0.0000 ( 22119 PWs)   bands (ev):

    -8.4337  -7.7479  -7.6395  -7.1688  -6.9821  -6.7936  -6.7644  -6.4520
    -6.2550  -6.0742  -5.9883  -5.7687  -5.7328  -5.6643  -5.4235  -5.3239
    -5.2955  -5.2230  -5.1758  -5.1739  -5.1648  -5.1335  -4.9586  -4.8958
    -4.8421  -4.6760  -4.3781  -3.7894  -2.4572  -2.1569  -0.5193  -0.2114
     0.5339   0.7312

     the Fermi energy is    -3.7748 ev

!    total energy              =    -329.48763752 Ry
     Harris-Foulkes estimate   =    -329.48763754 Ry
     estimated scf accuracy    <          3.4E-09 Ry

     The total energy is the sum of the following terms:

     one-electron contribution =    -609.37893171 Ry
     hartree contribution      =     326.15962050 Ry
     xc contribution           =     -51.42016927 Ry
     ewald contribution        =       5.15242913 Ry
     smearing contrib. (-TS)   =      -0.00058616 Ry

     convergence has been achieved in  13 iterations

     Forces acting on atoms (Ry/au):

     atom    1 type  1   force =    -0.00701803   -0.00123180   -0.01042206
     atom    2 type  1   force =    -0.00062409    0.00092376   -0.00056641
     atom    3 type  1   force =    -0.00437961    0.00464211    0.01155965
     atom    4 type  1   force =     0.00089866   -0.00006978    0.00052688
     atom    5 type  1   force =     0.01112308   -0.00426429   -0.00109805

     Total force =     0.021898     Total SCF correction =     0.000264

     BFGS Geometry Optimization

     number of scf cycles    =   1
     number of bfgs steps    =   0

     energy   new            =    -329.4876375222 Ry

     new trust radius        =       0.0132043782 bohr
     new conv_thr            =       0.0000000100 Ry


ATOMIC_POSITIONS (bohr)
Au      -1.735374034   1.871491201  -0.789662057
Au      -0.848381093   3.599262759   3.912461587
Au       3.085791389   1.416915113   0.509665645
Au       4.031346663   4.026035218   5.385722879
Au       7.483795076   1.226678709   2.919300946



     Writing output data file pwscf.save
     Check: negative starting charge=   -0.006354
     NEW-OLD atomic charge density approx. for the potential
     Check: negative starting charge=   -0.006349

     negative rho (up, down):  1.828E-05 0.000E+00

     total cpu time spent up to now is        7.1 secs

     per-process dynamical memory:    42.9 Mb

     Self-consistent Calculation

     iteration #  1     ecut=    30.00 Ry     beta=0.70
     Davidson diagonalization with overlap
     ethr =  1.00E-06,  avg # of iterations =  4.0

     Threshold (ethr) on eigenvalues was too large:
     Diagonalizing with lowered threshold

     Davidson diagonalization with overlap
     ethr =  6.90E-08,  avg # of iterations =  1.0

     negative rho (up, down):  2.523E-08 0.000E+00

     total cpu time spent up to now is        8.0 secs

     total energy              =    -329.48807329 Ry
     Harris-Foulkes estimate   =    -329.48807754 Ry
     estimated scf accuracy    <       0.00003833 Ry

     iteration #  2     ecut=    30.00 Ry     beta=0.70
     Davidson diagonalization with overlap
     ethr =  6.97E-08,  avg # of iterations =  3.0

     total cpu time spent up to now is        8.5 secs

     total energy              =    -329.48807149 Ry
     Harris-Foulkes estimate   =    -329.48810112 Ry
     estimated scf accuracy    <       0.00006991 Ry

     iteration #  3     ecut=    30.00 Ry     beta=0.70
     Davidson diagonalization with overlap
     ethr =  6.97E-08,  avg # of iterations =  2.0

     total cpu time spent up to now is        8.9 secs

     total energy              =    -329.48808745 Ry
     Harris-Foulkes estimate   =    -329.48809065 Ry
     estimated scf accuracy    <       0.00001244 Ry

     iteration #  4     ecut=    30.00 Ry     beta=0.70
     Davidson diagonalization with overlap
     ethr =  2.26E-08,  avg # of iterations =  2.0

     total cpu time spent up to now is        9.3 secs

     total energy              =    -329.48808972 Ry
     Harris-Foulkes estimate   =    -329.48808998 Ry
     estimated scf accuracy    <       0.00000083 Ry

     iteration #  5     ecut=    30.00 Ry     beta=0.70
     Davidson diagonalization with overlap
     ethr =  1.51E-09,  avg # of iterations =  3.0

     total cpu time spent up to now is        9.7 secs

     total energy              =    -329.48808992 Ry
     Harris-Foulkes estimate   =    -329.48809002 Ry
     estimated scf accuracy    <       0.00000026 Ry

     iteration #  6     ecut=    30.00 Ry     beta=0.70
     Davidson diagonalization with overlap
     ethr =  4.77E-10,  avg # of iterations =  2.0

     total cpu time spent up to now is       10.1 secs

     total energy              =    -329.48809002 Ry
     Harris-Foulkes estimate   =    -329.48808998 Ry
     estimated scf accuracy    <       0.00000002 Ry

     iteration #  7     ecut=    30.00 Ry     beta=0.70
     Davidson diagonalization with overlap
     ethr =  3.60E-11,  avg # of iterations =  2.0

     total cpu time spent up to now is       10.5 secs

     End of self-consistent calculation

          k = 0.0000 0.0000 0.0000 ( 22119 PWs)   bands (ev):

    -8.4283  -7.7409  -7.6320  -7.1718  -6.9728  -6.7849  -6.7514  -6.4469
    -6.2564  -6.0631  -5.9864  -5.7674  -5.7301  -5.6641  -5.4237  -5.3241
    -5.3066  -5.2208  -5.1790  -5.1750  -5.1665  -5.1329  -4.9637  -4.9003
    -4.8427  -4.6800  -4.3852  -3.7895  -2.4625  -2.1616  -0.5189  -0.2087
     0.5289   0.7299

     the Fermi energy is    -3.7737 ev

!    total energy              =    -329.48809005 Ry
     Harris-Foulkes estimate   =    -329.48809002 Ry
     estimated scf accuracy    <          8.3E-09 Ry

     The total energy is the sum of the following terms:

     one-electron contribution =    -608.87961454 Ry
     hartree contribution      =     325.91051429 Ry
     xc contribution           =     -51.41681605 Ry
     ewald contribution        =       4.89866282 Ry
     smearing contrib. (-TS)   =      -0.00083657 Ry

     convergence has been achieved in   7 iterations

     Forces acting on atoms (Ry/au):

     atom    1 type  1   force =    -0.00566582   -0.00094542   -0.00889140
     atom    2 type  1   force =    -0.00066031    0.00067726   -0.00135203
     atom    3 type  1   force =    -0.00411837    0.00463582    0.01118059
     atom    4 type  1   force =     0.00130757   -0.00060101    0.00019555
     atom    5 type  1   force =     0.00913692   -0.00376665   -0.00113270

     Total force =     0.019476     Total SCF correction =     0.000291

     number of scf cycles    =   2
     number of bfgs steps    =   1

     energy   old            =    -329.4876375222 Ry
     energy   new            =    -329.4880900462 Ry

     CASE: energy  _new < energy  _old


     WARNING: bfgs curvature condition failed, Theta= 0.904
     new trust radius        =       0.0145248160 bohr
     new conv_thr            =       0.0000000005 Ry


ATOMIC_POSITIONS (bohr)
Au      -1.742032662   1.870368572  -0.799999067
Au      -0.849120265   3.600074827   3.911083316
Au       3.081088541   1.422154143   0.522370214
Au       4.032746309   4.025457140   5.386006801
Au       7.494496075   1.222328318   2.918027736



     Writing output data file pwscf.save
     Check: negative starting charge=   -0.006349
     NEW-OLD atomic charge density approx. for the potential
     Check: negative starting charge=   -0.006344

     negative rho (up, down):  2.010E-05 0.000E+00

     total cpu time spent up to now is       11.0 secs

     per-process dynamical memory:    50.5 Mb

     Self-consistent Calculation

     iteration #  1     ecut=    30.00 Ry     beta=0.70
     Davidson diagonalization with overlap
     ethr =  1.00E-06,  avg # of iterations =  4.0

     Threshold (ethr) on eigenvalues was too large:
     Diagonalizing with lowered threshold

     Davidson diagonalization with overlap
     ethr =  7.43E-08,  avg # of iterations =  1.0

     negative rho (up, down):  3.334E-08 0.000E+00

     total cpu time spent up to now is       12.0 secs

     total energy              =    -329.48848568 Ry
     Harris-Foulkes estimate   =    -329.48849157 Ry
     estimated scf accuracy    <       0.00004134 Ry

     iteration #  2     ecut=    30.00 Ry     beta=0.70
     Davidson diagonalization with overlap
     ethr =  7.52E-08,  avg # of iterations =  3.0

     total cpu time spent up to now is       12.4 secs

     total energy              =    -329.48848357 Ry
     Harris-Foulkes estimate   =    -329.48851667 Ry
     estimated scf accuracy    <       0.00007937 Ry

     iteration #  3     ecut=    30.00 Ry     beta=0.70
     Davidson diagonalization with overlap
     ethr =  7.52E-08,  avg # of iterations =  2.0

     total cpu time spent up to now is       12.9 secs

     total energy              =    -329.48850138 Ry
     Harris-Foulkes estimate   =    -329.48850482 Ry
     estimated scf accuracy    <       0.00001296 Ry

     iteration #  4     ecut=    30.00 Ry     beta=0.70
     Davidson diagonalization with overlap
     ethr =  2.36E-08,  avg # of iterations =  2.0

     total cpu time spent up to now is       13.2 secs

     total energy              =    -329.48850367 Ry
     Harris-Foulkes estimate   =    -329.48850400 Ry
     estimated scf accuracy    <       0.00000083 Ry

     iteration #  5     ecut=    30.00 Ry     beta=0.70
     Davidson diagonalization with overlap
     ethr =  1.50E-09,  avg # of iterations =  3.0

     total cpu time spent up to now is       13.7 secs

     total energy              =    -329.48850388 Ry
     Harris-Foulkes estimate   =    -329.48850398 Ry
     estimated scf accuracy    <       0.00000030 Ry

     iteration #  6     ecut=    30.00 Ry     beta=0.70
     Davidson diagonalization with overlap
     ethr =  5.43E-10,  avg # of iterations =  2.0

     total cpu time spent up to now is       14.0 secs

     total energy              =    -329.48850402 Ry
     Harris-Foulkes estimate   =    -329.48850395 Ry
     estimated scf accuracy    <       0.00000002 Ry

     iteration #  7     ecut=    30.00 Ry     beta=0.70
     Davidson diagonalization with overlap
     ethr =  3.24E-11,  avg # of iterations =  3.0

     total cpu time spent up to now is       14.5 secs

     total energy              =    -329.48850405 Ry
     Harris-Foulkes estimate   =    -329.48850403 Ry
     estimated scf accuracy    <          8.6E-09 Ry

     iteration #  8     ecut=    30.00 Ry     beta=0.70
     Davidson diagonalization with overlap
     ethr =  1.56E-11,  avg # of iterations =  2.0

     total cpu time spent up to now is       14.8 secs

     total energy              =    -329.48850401 Ry
     Harris-Foulkes estimate   =    -329.48850405 Ry
     estimated scf accuracy    <          1.7E-09 Ry

     iteration #  9     ecut=    30.00 Ry     beta=0.70
     Davidson diagonalization with overlap
     ethr =  3.10E-12,  avg # of iterations =  2.0

     total cpu time spent up to now is       15.2 secs

     End of self-consistent calculation

          k = 0.0000 0.0000 0.0000 ( 22119 PWs)   bands (ev):

    -8.4249  -7.7359  -7.6260  -7.1758  -6.9639  -6.7785  -6.7386  -6.4434
    -6.2582  -6.0530  -5.9854  -5.7663  -5.7280  -5.6643  -5.4234  -5.3240
    -5.3185  -5.2191  -5.1832  -5.1751  -5.1682  -5.1321  -4.9687  -4.9050
    -4.8431  -4.6836  -4.3927  -3.7889  -2.4675  -2.1662  -0.5186  -0.2056
     0.5240   0.7286

     the Fermi energy is    -3.7716 ev

!    total energy              =    -329.48850400 Ry
     Harris-Foulkes estimate   =    -329.48850401 Ry
     estimated scf accuracy    <          1.0E-10 Ry

     The total energy is the sum of the following terms:

     one-electron contribution =    -608.46730931 Ry
     hartree contribution      =     325.70352434 Ry
     xc contribution           =     -51.41371187 Ry
     ewald contribution        =       4.69012009 Ry
     smearing contrib. (-TS)   =      -0.00112725 Ry

     convergence has been achieved in   9 iterations

     Forces acting on atoms (Ry/au):

     atom    1 type  1   force =    -0.00439615   -0.00068316   -0.00750749
     atom    2 type  1   force =    -0.00061840    0.00051440   -0.00198933
     atom    3 type  1   force =    -0.00393334    0.00456663    0.01081615
     atom    4 type  1   force =     0.00158000   -0.00104847   -0.00008184
     atom    5 type  1   force =     0.00736789   -0.00334941   -0.00123748

     Total force =     0.017456     Total SCF correction =     0.000043

     number of scf cycles    =   3
     number of bfgs steps    =   2

     energy   old            =    -329.4880900462 Ry
     energy   new            =    -329.4885040023 Ry

     CASE: energy  _new < energy  _old

     new trust radius        =       0.0217872240 bohr
     new conv_thr            =       0.0000000004 Ry


ATOMIC_POSITIONS (bohr)
Au      -1.750473614   1.869013906  -0.813942768
Au      -0.850195263   3.601095800   3.908056628
Au       3.074109147   1.430118947   0.541410516
Au       4.035285004   4.023931113   5.386049756
Au       7.508452725   1.216223235   2.915914868



     Writing output data file pwscf.save
     Check: negative starting charge=   -0.006344
     NEW-OLD atomic charge density approx. for the potential
     Check: negative starting charge=   -0.006340

     negative rho (up, down):  6.207E-05 0.000E+00

     total cpu time spent up to now is       15.6 secs

     per-process dynamical memory:    50.5 Mb

     Self-consistent Calculation

     iteration #  1     ecut=    30.00 Ry     beta=0.70
     Davidson diagonalization with overlap
     ethr =  1.00E-06,  avg # of iterations =  4.0

     negative rho (up, down):  3.162E-07 0.000E+00

     total cpu time spent up to now is       16.3 secs

     total energy              =    -329.48898291 Ry
     Harris-Foulkes estimate   =    -329.48899564 Ry
     estimated scf accuracy    <       0.00007872 Ry

     iteration #  2     ecut=    30.00 Ry     beta=0.70
     Davidson diagonalization with overlap
     ethr =  1.43E-07,  avg # of iterations =  3.0

     negative rho (up, down):  3.256E-08 0.000E+00

     total cpu time spent up to now is       16.7 secs

     total energy              =    -329.48898036 Ry
     Harris-Foulkes estimate   =    -329.48903820 Ry
     estimated scf accuracy    <       0.00013246 Ry

     iteration #  3     ecut=    30.00 Ry     beta=0.70
     Davidson diagonalization with overlap
     ethr =  1.43E-07,  avg # of iterations =  2.0

     total cpu time spent up to now is       17.1 secs

     total energy              =    -329.48901082 Ry
     Harris-Foulkes estimate   =    -329.48901812 Ry
     estimated scf accuracy    <       0.00002680 Ry

     iteration #  4     ecut=    30.00 Ry     beta=0.70
     Davidson diagonalization with overlap
     ethr =  4.87E-08,  avg # of iterations =  2.0

     total cpu time spent up to now is       17.5 secs

     total energy              =    -329.48901607 Ry
     Harris-Foulkes estimate   =    -329.48901619 Ry
     estimated scf accuracy    <       0.00000166 Ry

     iteration #  5     ecut=    30.00 Ry     beta=0.70
     Davidson diagonalization with overlap
     ethr =  3.01E-09,  avg # of iterations =  3.0

     total cpu time spent up to now is       18.0 secs

     total energy              =    -329.48901672 Ry
     Harris-Foulkes estimate   =    -329.48901667 Ry
     estimated scf accuracy    <       0.00000057 Ry

     iteration #  6     ecut=    30.00 Ry     beta=0.70
     Davidson diagonalization with overlap
     ethr =  1.03E-09,  avg # of iterations =  2.0

     total cpu time spent up to now is       18.3 secs

     total energy              =    -329.48901671 Ry
     Harris-Foulkes estimate   =    -329.48901685 Ry
     estimated scf accuracy    <       0.00000004 Ry

     iteration #  7     ecut=    30.00 Ry     beta=0.70
     Davidson diagonalization with overlap
     ethr =  6.86E-11,  avg # of iterations =  3.0

     total cpu time spent up to now is       18.8 secs

     total energy              =    -329.48901670 Ry
     Harris-Foulkes estimate   =    -329.48901672 Ry
     estimated scf accuracy    <       0.00000001 Ry

     iteration #  8     ecut=    30.00 Ry     beta=0.70
     Davidson diagonalization with overlap
     ethr =  2.04E-11,  avg # of iterations =  2.0

     total cpu time spent up to now is       19.2 secs

     total energy              =    -329.48901668 Ry
     Harris-Foulkes estimate   =    -329.48901670 Ry
     estimated scf accuracy    <          4.0E-09 Ry

     iteration #  9     ecut=    30.00 Ry     beta=0.70
     Davidson diagonalization with overlap
     ethr =  7.33E-12,  avg # of iterations =  2.0

     total cpu time spent up to now is       19.5 secs

     End of self-consistent calculation

          k = 0.0000 0.0000 0.0000 ( 22119 PWs)   bands (ev):

    -8.4232  -7.7323  -7.6205  -7.1831  -6.9522  -6.7728  -6.7222  -6.4413
    -6.2611  -6.0409  -5.9854  -5.7649  -5.7259  -5.6656  -5.4224  -5.3358
    -5.3235  -5.2176  -5.1897  -5.1748  -5.1701  -5.1310  -4.9755  -4.9116
    -4.8434  -4.6882  -4.4033  -3.7871  -2.4735  -2.1723  -0.5188  -0.2007
     0.5178   0.7269

     the Fermi energy is    -3.7675 ev

!    total energy              =    -329.48901666 Ry
     Harris-Foulkes estimate   =    -329.48901668 Ry
     estimated scf accuracy    <          2.2E-10 Ry

     The total energy is the sum of the following terms:

     one-electron contribution =    -608.03933184 Ry
     hartree contribution      =     325.48724923 Ry
     xc contribution           =     -51.40992847 Ry
     ewald contribution        =       4.47456964 Ry
     smearing contrib. (-TS)   =      -0.00157522 Ry

     convergence has been achieved in   9 iterations

     Forces acting on atoms (Ry/au):

     atom    1 type  1   force =    -0.00283131   -0.00035571   -0.00581595
     atom    2 type  1   force =    -0.00050145    0.00042501   -0.00264587
     atom    3 type  1   force =    -0.00374957    0.00430561    0.01025038
     atom    4 type  1   force =     0.00184242   -0.00151290   -0.00033819
     atom    5 type  1   force =     0.00523990   -0.00286201   -0.00145037

     Total force =     0.015186     Total SCF correction =     0.000057

     number of scf cycles    =   4
     number of bfgs steps    =   3

     energy   old            =    -329.4885040023 Ry
     energy   new            =    -329.4890166560 Ry

     CASE: energy  _new < energy  _old

     new trust radius        =       0.0326808360 bohr
     new conv_thr            =       0.0000000005 Ry


ATOMIC_POSITIONS (bohr)
Au      -1.761214150   1.867402251  -0.832999473
Au      -0.851674228   3.602555280   3.902436148
Au       3.063592956   1.442016815   0.569974260
Au       4.039578633   4.020903801   5.385749870
Au       7.526894789   1.207504854   2.912328194



     Writing output data file pwscf.save
     Check: negative starting charge=   -0.006340
     NEW-OLD atomic charge density approx. for the potential
     Check: negative starting charge=   -0.006339

     negative rho (up, down):  1.639E-04 0.000E+00

     total cpu time spent up to now is       19.9 secs

     per-process dynamical memory:    50.6 Mb

     Self-consistent Calculation

     iteration #  1     ecut=    30.00 Ry     beta=0.70
     Davidson diagonalization with overlap
     ethr =  1.00E-06,  avg # of iterations =  4.0

     negative rho (up, down):  2.295E-06 0.000E+00

     total cpu time spent up to now is       20.6 secs

     total energy              =    -329.48955907 Ry
     Harris-Foulkes estimate   =    -329.48957446 Ry
     estimated scf accuracy    <       0.00015793 Ry

     iteration #  2     ecut=    30.00 Ry     beta=0.70
     Davidson diagonalization with overlap
     ethr =  2.87E-07,  avg # of iterations =  3.0

     negative rho (up, down):  3.275E-07 0.000E+00

     total cpu time spent up to now is       21.1 secs

     total energy              =    -329.48955470 Ry
     Harris-Foulkes estimate   =    -329.48966835 Ry
     estimated scf accuracy    <       0.00025579 Ry

     iteration #  3     ecut=    30.00 Ry     beta=0.70
     Davidson diagonalization with overlap
     ethr =  2.87E-07,  avg # of iterations =  2.0

     total cpu time spent up to now is       21.5 secs

     total energy              =    -329.48961286 Ry
     Harris-Foulkes estimate   =    -329.48962875 Ry
     estimated scf accuracy    <       0.00005424 Ry

     iteration #  4     ecut=    30.00 Ry     beta=0.70
     Davidson diagonalization with overlap
     ethr =  9.86E-08,  avg # of iterations =  2.0

     total cpu time spent up to now is       21.9 secs

     total energy              =    -329.48962393 Ry
     Harris-Foulkes estimate   =    -329.48962382 Ry
     estimated scf accuracy    <       0.00000338 Ry

     iteration #  5     ecut=    30.00 Ry     beta=0.70
     Davidson diagonalization with overlap
     ethr =  6.14E-09,  avg # of iterations =  3.0

     total cpu time spent up to now is       22.3 secs

     total energy              =    -329.48962473 Ry
     Harris-Foulkes estimate   =    -329.48962516 Ry
     estimated scf accuracy    <       0.00000119 Ry

     iteration #  6     ecut=    30.00 Ry     beta=0.70
     Davidson diagonalization with overlap
     ethr =  2.17E-09,  avg # of iterations =  2.0

     total cpu time spent up to now is       22.7 secs

     total energy              =    -329.48962498 Ry
     Harris-Foulkes estimate   =    -329.48962500 Ry
     estimated scf accuracy    <       0.00000007 Ry

     iteration #  7     ecut=    30.00 Ry     beta=0.70
     Davidson diagonalization with overlap
     ethr =  1.23E-10,  avg # of iterations =  3.0

     total cpu time spent up to now is       23.1 secs

     total energy              =    -329.48962495 Ry
     Harris-Foulkes estimate   =    -329.48962500 Ry
     estimated scf accuracy    <          9.9E-09 Ry

     iteration #  8     ecut=    30.00 Ry     beta=0.70
     Davidson diagonalization with overlap
     ethr =  1.81E-11,  avg # of iterations =  2.0

     total cpu time spent up to now is       23.6 secs

     total energy              =    -329.48962492 Ry
     Harris-Foulkes estimate   =    -329.48962495 Ry
     estimated scf accuracy    <          7.2E-09 Ry

     iteration #  9     ecut=    30.00 Ry     beta=0.70
     Davidson diagonalization with overlap
     ethr =  1.31E-11,  avg # of iterations =  2.0

     total cpu time spent up to now is       24.0 secs

     total energy              =    -329.48962494 Ry
     Harris-Foulkes estimate   =    -329.48962492 Ry
     estimated scf accuracy    <          8.4E-10 Ry

     iteration # 10     ecut=    30.00 Ry     beta=0.70
     Davidson diagonalization with overlap
     ethr =  1.53E-12,  avg # of iterations =  2.0

     total cpu time spent up to now is       24.3 secs

     End of self-consistent calculation

          k = 0.0000 0.0000 0.0000 ( 22119 PWs)   bands (ev):

    -8.4247  -7.7313  -7.6171  -7.1948  -6.9365  -6.7678  -6.7013  -6.4424
    -6.2653  -6.0274  -5.9861  -5.7628  -5.7238  -5.6684  -5.4200  -5.3603
    -5.3224  -5.2170  -5.1991  -5.1750  -5.1711  -5.1289  -4.9845  -4.9208
    -4.8428  -4.6941  -4.4184  -3.7836  -2.4807  -2.1803  -0.5196  -0.1933
     0.5098   0.7249

     the Fermi energy is    -3.7608 ev

!    total energy              =    -329.48962493 Ry
     Harris-Foulkes estimate   =    -329.48962494 Ry
     estimated scf accuracy    <          5.3E-11 Ry

     The total energy is the sum of the following terms:

     one-electron contribution =    -607.62005863 Ry
     hartree contribution      =     325.27300669 Ry
     xc contribution           =     -51.40537588 Ry
     ewald contribution        =       4.26504021 Ry
     smearing contrib. (-TS)   =      -0.00223732 Ry

     convergence has been achieved in  10 iterations

     Forces acting on atoms (Ry/au):

     atom    1 type  1   force =    -0.00092995    0.00006335   -0.00367068
     atom    2 type  1   force =    -0.00032723    0.00050733   -0.00323602
     atom    3 type  1   force =    -0.00347362    0.00358771    0.00915101
     atom    4 type  1   force =     0.00207137   -0.00193588   -0.00047940
     atom    5 type  1   force =     0.00265944   -0.00222251   -0.00176490

     Total force =     0.012540     Total SCF correction =     0.000030

     number of scf cycles    =   5
     number of bfgs steps    =   4

     energy   old            =    -329.4890166560 Ry
     energy   new            =    -329.4896249322 Ry

     CASE: energy  _new < energy  _old

     new trust radius        =       0.0490212541 bohr
     new conv_thr            =       0.0000000006 Ry


ATOMIC_POSITIONS (bohr)
Au      -1.774791387   1.865596859  -0.859213146
Au      -0.853685886   3.605006579   3.892611797
Au       3.047553645   1.459428248   0.612900544
Au       4.046703085   4.015432793   5.385048308
Au       7.551398542   1.194918520   2.906141498



     Writing output data file pwscf.save
     Check: negative starting charge=   -0.006339
     NEW-OLD atomic charge density approx. for the potential
     Check: negative starting charge=   -0.006356

     negative rho (up, down):  3.771E-04 0.000E+00

     total cpu time spent up to now is       24.7 secs

     per-process dynamical memory:    50.7 Mb

     Self-consistent Calculation

     iteration #  1     ecut=    30.00 Ry     beta=0.70
     Davidson diagonalization with overlap
     ethr =  1.00E-06,  avg # of iterations =  5.0

     negative rho (up, down):  1.177E-05 0.000E+00

     total cpu time spent up to now is       25.4 secs

     total energy              =    -329.49010163 Ry
     Harris-Foulkes estimate   =    -329.49005657 Ry
     estimated scf accuracy    <       0.00032245 Ry

     iteration #  2     ecut=    30.00 Ry     beta=0.70
     Davidson diagonalization with overlap
     ethr =  5.86E-07,  avg # of iterations =  3.0

     negative rho (up, down):  2.409E-06 0.000E+00

     total cpu time spent up to now is       25.9 secs

     total energy              =    -329.49009496 Ry
     Harris-Foulkes estimate   =    -329.49032358 Ry
     estimated scf accuracy    <       0.00050840 Ry

     iteration #  3     ecut=    30.00 Ry     beta=0.70
     Davidson diagonalization with overlap
     ethr =  5.86E-07,  avg # of iterations =  2.0

     negative rho (up, down):  4.748E-08 0.000E+00

     total cpu time spent up to now is       26.3 secs

     total energy              =    -329.49020943 Ry
     Harris-Foulkes estimate   =    -329.49024347 Ry
     estimated scf accuracy    <       0.00011086 Ry

     iteration #  4     ecut=    30.00 Ry     beta=0.70
     Davidson diagonalization with overlap
     ethr =  2.02E-07,  avg # of iterations =  2.0

     total cpu time spent up to now is       26.7 secs

     total energy              =    -329.49023132 Ry
     Harris-Foulkes estimate   =    -329.49023190 Ry
     estimated scf accuracy    <       0.00000684 Ry

     iteration #  5     ecut=    30.00 Ry     beta=0.70
     Davidson diagonalization with overlap
     ethr =  1.24E-08,  avg # of iterations =  3.0

     total cpu time spent up to now is       27.2 secs

     total energy              =    -329.49023289 Ry
     Harris-Foulkes estimate   =    -329.49023386 Ry
     estimated scf accuracy    <       0.00000253 Ry

     iteration #  6     ecut=    30.00 Ry     beta=0.70
     Davidson diagonalization with overlap
     ethr =  4.60E-09,  avg # of iterations =  2.0

     total cpu time spent up to now is       27.5 secs

     total energy              =    -329.49023366 Ry
     Harris-Foulkes estimate   =    -329.49023345 Ry
     estimated scf accuracy    <       0.00000016 Ry

     iteration #  7     ecut=    30.00 Ry     beta=0.70
     Davidson diagonalization with overlap
     ethr =  2.84E-10,  avg # of iterations =  3.0

     total cpu time spent up to now is       27.9 secs

     total energy              =    -329.49023383 Ry
     Harris-Foulkes estimate   =    -329.49023370 Ry
     estimated scf accuracy    <       0.00000002 Ry

     iteration #  8     ecut=    30.00 Ry     beta=0.70
     Davidson diagonalization with overlap
     ethr =  3.53E-11,  avg # of iterations =  2.0

     total cpu time spent up to now is       28.4 secs

     total energy              =    -329.49023393 Ry
     Harris-Foulkes estimate   =    -329.49023384 Ry
     estimated scf accuracy    <       0.00000001 Ry

     iteration #  9     ecut=    30.00 Ry     beta=0.70
     Davidson diagonalization with overlap
     ethr =  1.93E-11,  avg # of iterations =  2.0

     total cpu time spent up to now is       28.8 secs

     total energy              =    -329.49023396 Ry
     Harris-Foulkes estimate   =    -329.49023393 Ry
     estimated scf accuracy    <          3.0E-09 Ry

     iteration # 10     ecut=    30.00 Ry     beta=0.70
     Davidson diagonalization with overlap
     ethr =  5.37E-12,  avg # of iterations =  2.0

     total cpu time spent up to now is       29.1 secs

     End of self-consistent calculation

          k = 0.0000 0.0000 0.0000 ( 22119 PWs)   bands (ev):

    -8.4315  -7.7350  -7.6204  -7.2112  -6.9141  -6.7639  -6.6754  -6.4509
    -6.2703  -6.0199  -5.9813  -5.7595  -5.7215  -5.6732  -5.4146  -5.3941
    -5.3200  -5.2212  -5.2089  -5.1776  -5.1687  -5.1249  -4.9961  -4.9330
    -4.8388  -4.7015  -4.4395  -3.7775  -2.4887  -2.1909  -0.5214  -0.1818
     0.5001   0.7227

     the Fermi energy is    -3.7504 ev

!    total energy              =    -329.49023399 Ry
     Harris-Foulkes estimate   =    -329.49023396 Ry
     estimated scf accuracy    <          2.0E-10 Ry

     The total energy is the sum of the following terms:

     one-electron contribution =    -607.26409047 Ry
     hartree contribution      =     325.08742900 Ry
     xc contribution           =     -51.40018815 Ry
     ewald contribution        =       4.08977126 Ry
     smearing contrib. (-TS)   =      -0.00315562 Ry

     convergence has been achieved in  10 iterations

     Forces acting on atoms (Ry/au):

     atom    1 type  1   force =     0.00116685    0.00074287   -0.00079813
     atom    2 type  1   force =    -0.00024556    0.00114106   -0.00336332
     atom    3 type  1   force =    -0.00262946    0.00120729    0.00622437
     atom    4 type  1   force =     0.00220291   -0.00199505   -0.00010376
     atom    5 type  1   force =    -0.00049474   -0.00109617   -0.00195917

     Total force =     0.008745     Total SCF correction =     0.000060

     number of scf cycles    =   6
     number of bfgs steps    =   5

     energy   old            =    -329.4896249322 Ry
     energy   new            =    -329.4902339904 Ry

     CASE: energy  _new < energy  _old

     new trust radius        =       0.0589518823 bohr
     new conv_thr            =       0.0000000006 Ry


ATOMIC_POSITIONS (bohr)
Au      -1.787668776   1.864845229  -0.887691034
Au      -0.856169312   3.609721338   3.878325664
Au       3.027446878   1.477964121   0.665125670
Au       4.056986202   4.007425854   5.384723270
Au       7.576583007   1.180426458   2.897005430



     Writing output data file pwscf.save
     Check: negative starting charge=   -0.006356
     NEW-OLD atomic charge density approx. for the potential
     Check: negative starting charge=   -0.006397

     negative rho (up, down):  5.126E-04 0.000E+00

     total cpu time spent up to now is       29.6 secs

     per-process dynamical memory:    50.7 Mb

     Self-consistent Calculation

     iteration #  1     ecut=    30.00 Ry     beta=0.70
     Davidson diagonalization with overlap
     ethr =  1.00E-06,  avg # of iterations =  5.0

     negative rho (up, down):  2.105E-05 0.000E+00

     total cpu time spent up to now is       30.4 secs

     total energy              =    -329.49035743 Ry
     Harris-Foulkes estimate   =    -329.49023971 Ry
     estimated scf accuracy    <       0.00042576 Ry

     iteration #  2     ecut=    30.00 Ry     beta=0.70
     Davidson diagonalization with overlap
     ethr =  7.74E-07,  avg # of iterations =  4.0

     negative rho (up, down):  4.795E-06 0.000E+00

     total cpu time spent up to now is       30.9 secs

     total energy              =    -329.49035661 Ry
     Harris-Foulkes estimate   =    -329.49064405 Ry
     estimated scf accuracy    <       0.00063206 Ry

     iteration #  3     ecut=    30.00 Ry     beta=0.70
     Davidson diagonalization with overlap
     ethr =  7.74E-07,  avg # of iterations =  2.0

     negative rho (up, down):  1.310E-07 0.000E+00

     total cpu time spent up to now is       31.3 secs

     total energy              =    -329.49049664 Ry
     Harris-Foulkes estimate   =    -329.49054463 Ry
     estimated scf accuracy    <       0.00014605 Ry

     iteration #  4     ecut=    30.00 Ry     beta=0.70
     Davidson diagonalization with overlap
     ethr =  2.66E-07,  avg # of iterations =  2.0

     total cpu time spent up to now is       31.6 secs

     total energy              =    -329.49052652 Ry
     Harris-Foulkes estimate   =    -329.49052684 Ry
     estimated scf accuracy    <       0.00000945 Ry

     iteration #  5     ecut=    30.00 Ry     beta=0.70
     Davidson diagonalization with overlap
     ethr =  1.72E-08,  avg # of iterations =  3.0

     total cpu time spent up to now is       32.1 secs

     total energy              =    -329.49052913 Ry
     Harris-Foulkes estimate   =    -329.49053004 Ry
     estimated scf accuracy    <       0.00000355 Ry

     iteration #  6     ecut=    30.00 Ry     beta=0.70
     Davidson diagonalization with overlap
     ethr =  6.45E-09,  avg # of iterations =  2.0

     total cpu time spent up to now is       32.5 secs

     total energy              =    -329.49052991 Ry
     Harris-Foulkes estimate   =    -329.49052990 Ry
     estimated scf accuracy    <       0.00000021 Ry

     iteration #  7     ecut=    30.00 Ry     beta=0.70
     Davidson diagonalization with overlap
     ethr =  3.79E-10,  avg # of iterations =  3.0

     total cpu time spent up to now is       32.9 secs

     total energy              =    -329.49052997 Ry
     Harris-Foulkes estimate   =    -329.49052996 Ry
     estimated scf accuracy    <       0.00000002 Ry

     iteration #  8     ecut=    30.00 Ry     beta=0.70
     Davidson diagonalization with overlap
     ethr =  4.45E-11,  avg # of iterations =  2.0

     total cpu time spent up to now is       33.3 secs

     total energy              =    -329.49053001 Ry
     Harris-Foulkes estimate   =    -329.49052998 Ry
     estimated scf accuracy    <          6.9E-09 Ry

     iteration #  9     ecut=    30.00 Ry     beta=0.70
     Davidson diagonalization with overlap
     ethr =  1.25E-11,  avg # of iterations =  3.0

     total cpu time spent up to now is       33.7 secs

     total energy              =    -329.49053004 Ry
     Harris-Foulkes estimate   =    -329.49053001 Ry
     estimated scf accuracy    <          4.9E-09 Ry

     iteration # 10     ecut=    30.00 Ry     beta=0.70
     Davidson diagonalization with overlap
     ethr =  8.96E-12,  avg # of iterations =  2.0

     total cpu time spent up to now is       34.1 secs

     End of self-consistent calculation

          k = 0.0000 0.0000 0.0000 ( 22119 PWs)   bands (ev):

    -8.4455  -7.7461  -7.6350  -7.2262  -6.8877  -6.7623  -6.6523  -6.4697
    -6.2732  -6.0296  -5.9649  -5.7564  -5.7187  -5.6789  -5.4297  -5.4052
    -5.3163  -5.2352  -5.2109  -5.1795  -5.1653  -5.1193  -5.0074  -4.9453
    -4.8297  -4.7085  -4.4623  -3.7695  -2.4942  -2.2021  -0.5240  -0.1676
     0.4913   0.7218

     the Fermi energy is    -3.7379 ev

!    total energy              =    -329.49053008 Ry
     Harris-Foulkes estimate   =    -329.49053004 Ry
     estimated scf accuracy    <          3.2E-10 Ry

     The total energy is the sum of the following terms:

     one-electron contribution =    -607.15060532 Ry
     hartree contribution      =     325.02173549 Ry
     xc contribution           =     -51.39611372 Ry
     ewald contribution        =       4.03855705 Ry
     smearing contrib. (-TS)   =      -0.00410359 Ry

     convergence has been achieved in  10 iterations

     Forces acting on atoms (Ry/au):

     atom    1 type  1   force =     0.00272822    0.00106247    0.00152730
     atom    2 type  1   force =    -0.00040485    0.00198177   -0.00295526
     atom    3 type  1   force =    -0.00101726   -0.00101469    0.00296113
     atom    4 type  1   force =     0.00203722   -0.00193179    0.00065805
     atom    5 type  1   force =    -0.00334334   -0.00009775   -0.00219121

     Total force =     0.007672     Total SCF correction =     0.000072

     number of scf cycles    =   7
     number of bfgs steps    =   6

     energy   old            =    -329.4902339904 Ry
     energy   new            =    -329.4905300799 Ry

     CASE: energy  _new < energy  _old

     new trust radius        =       0.0183212245 bohr
     new conv_thr            =       0.0000000003 Ry


ATOMIC_POSITIONS (bohr)
Au      -1.788708797   1.865664053  -0.894130351
Au      -0.857323160   3.613305568   3.871791551
Au       3.021157046   1.481564076   0.681952601
Au       4.061713328   4.003488559   5.385610639
Au       7.580339582   1.176360744   2.892264560



     Writing output data file pwscf.save
     Check: negative starting charge=   -0.006397
     NEW-OLD atomic charge density approx. for the potential
     Check: negative starting charge=   -0.006412

     negative rho (up, down):  2.429E-05 0.000E+00

     total cpu time spent up to now is       34.5 secs

     per-process dynamical memory:    50.7 Mb

     Self-consistent Calculation

     iteration #  1     ecut=    30.00 Ry     beta=0.70
     Davidson diagonalization with overlap
     ethr =  1.00E-06,  avg # of iterations =  4.0

     Threshold (ethr) on eigenvalues was too large:
     Diagonalizing with lowered threshold

     Davidson diagonalization with overlap
     ethr =  6.68E-08,  avg # of iterations =  1.0

     negative rho (up, down):  4.259E-08 0.000E+00

     total cpu time spent up to now is       35.4 secs

     total energy              =    -329.49058790 Ry
     Harris-Foulkes estimate   =    -329.49059385 Ry
     estimated scf accuracy    <       0.00003698 Ry

     iteration #  2     ecut=    30.00 Ry     beta=0.70
     Davidson diagonalization with overlap
     ethr =  6.72E-08,  avg # of iterations =  2.0

     total cpu time spent up to now is       35.9 secs

     total energy              =    -329.49059160 Ry
     Harris-Foulkes estimate   =    -329.49060803 Ry
     estimated scf accuracy    <       0.00003502 Ry

     iteration #  3     ecut=    30.00 Ry     beta=0.70
     Davidson diagonalization with overlap
     ethr =  6.37E-08,  avg # of iterations =  2.0

     total cpu time spent up to now is       36.3 secs

     total energy              =    -329.49059964 Ry
     Harris-Foulkes estimate   =    -329.49060309 Ry
     estimated scf accuracy    <       0.00001106 Ry

     iteration #  4     ecut=    30.00 Ry     beta=0.70
     Davidson diagonalization with overlap
     ethr =  2.01E-08,  avg # of iterations =  2.0

     total cpu time spent up to now is       36.6 secs

     total energy              =    -329.49060265 Ry
     Harris-Foulkes estimate   =    -329.49060239 Ry
     estimated scf accuracy    <       0.00000139 Ry

     iteration #  5     ecut=    30.00 Ry     beta=0.70
     Davidson diagonalization with overlap
     ethr =  2.52E-09,  avg # of iterations =  2.0

     total cpu time spent up to now is       37.0 secs

     total energy              =    -329.49060295 Ry
     Harris-Foulkes estimate   =    -329.49060302 Ry
     estimated scf accuracy    <       0.00000027 Ry

     iteration #  6     ecut=    30.00 Ry     beta=0.70
     Davidson diagonalization with overlap
     ethr =  4.87E-10,  avg # of iterations =  2.0

     total cpu time spent up to now is       37.4 secs

     total energy              =    -329.49060306 Ry
     Harris-Foulkes estimate   =    -329.49060301 Ry
     estimated scf accuracy    <       0.00000001 Ry

     iteration #  7     ecut=    30.00 Ry     beta=0.70
     Davidson diagonalization with overlap
     ethr =  2.34E-11,  avg # of iterations =  3.0

     total cpu time spent up to now is       37.9 secs

     total energy              =    -329.49060310 Ry
     Harris-Foulkes estimate   =    -329.49060307 Ry
     estimated scf accuracy    <          3.3E-09 Ry

     iteration #  8     ecut=    30.00 Ry     beta=0.70
     Davidson diagonalization with overlap
     ethr =  5.93E-12,  avg # of iterations =  2.0

     total cpu time spent up to now is       38.3 secs

     total energy              =    -329.49060303 Ry
     Harris-Foulkes estimate   =    -329.49060310 Ry
     estimated scf accuracy    <          7.9E-10 Ry

     iteration #  9     ecut=    30.00 Ry     beta=0.70
     Davidson diagonalization with overlap
     ethr =  1.44E-12,  avg # of iterations =  2.0

     total cpu time spent up to now is       38.7 secs

     total energy              =    -329.49060306 Ry
     Harris-Foulkes estimate   =    -329.49060303 Ry
     estimated scf accuracy    <          3.0E-10 Ry

     iteration # 10     ecut=    30.00 Ry     beta=0.70
     Davidson diagonalization with overlap
     ethr =  5.41E-13,  avg # of iterations =  2.0

     total cpu time spent up to now is       39.1 secs

     End of self-consistent calculation

          k = 0.0000 0.0000 0.0000 ( 22119 PWs)   bands (ev):

    -8.4556  -7.7548  -7.6413  -7.2307  -6.8814  -6.7654  -6.6502  -6.4777
    -6.2739  -6.0363  -5.9622  -5.7570  -5.7189  -5.6815  -5.4390  -5.4014
    -5.3147  -5.2397  -5.2102  -5.1794  -5.1652  -5.1176  -5.0091  -4.9482
    -4.8267  -4.7088  -4.4682  -3.7659  -2.4930  -2.2048  -0.5254  -0.1634
     0.4904   0.7229

     the Fermi energy is    -3.7332 ev

!    total energy              =    -329.49060306 Ry
     Harris-Foulkes estimate   =    -329.49060306 Ry
     estimated scf accuracy    <          3.0E-11 Ry

     The total energy is the sum of the following terms:

     one-electron contribution =    -607.35446080 Ry
     hartree contribution      =     325.12008992 Ry
     xc contribution           =     -51.39613470 Ry
     ewald contribution        =       4.14426924 Ry
     smearing contrib. (-TS)   =      -0.00436672 Ry

     convergence has been achieved in  10 iterations

     Forces acting on atoms (Ry/au):

     atom    1 type  1   force =     0.00280686    0.00100046    0.00160339
     atom    2 type  1   force =    -0.00031475    0.00236429   -0.00251041
     atom    3 type  1   force =    -0.00068109   -0.00150367    0.00220233
     atom    4 type  1   force =     0.00165996   -0.00179073    0.00098635
     atom    5 type  1   force =    -0.00347098   -0.00007035   -0.00228166

     Total force =     0.007430     Total SCF correction =     0.000023

     number of scf cycles    =   8
     number of bfgs steps    =   7

     energy   old            =    -329.4905300798 Ry
     energy   new            =    -329.4906030588 Ry

     CASE: energy  _new < energy  _old

     new trust radius        =       0.0201533469 bohr
     new conv_thr            =            1.0E-10 Ry


ATOMIC_POSITIONS (bohr)
Au      -1.787794161   1.867223424  -0.899792765
Au      -0.858726936   3.619194452   3.863436663
Au       3.014250722   1.483772478   0.700756405
Au       4.067650069   3.998176168   5.387592823
Au       7.581798307   1.172016478   2.885495875



     Writing output data file pwscf.save
     Check: negative starting charge=   -0.006412
     NEW-OLD atomic charge density approx. for the potential
     Check: negative starting charge=   -0.006428

     negative rho (up, down):  3.778E-05 0.000E+00

     total cpu time spent up to now is       39.6 secs

     per-process dynamical memory:    50.7 Mb

     Self-consistent Calculation

     iteration #  1     ecut=    30.00 Ry     beta=0.70
     Davidson diagonalization with overlap
     ethr =  1.00E-06,  avg # of iterations =  4.0

     Threshold (ethr) on eigenvalues was too large:
     Diagonalizing with lowered threshold

     Davidson diagonalization with overlap
     ethr =  8.85E-08,  avg # of iterations =  1.0

     negative rho (up, down):  1.115E-07 0.000E+00

     total cpu time spent up to now is       40.6 secs

     total energy              =    -329.49067775 Ry
     Harris-Foulkes estimate   =    -329.49068667 Ry
     estimated scf accuracy    <       0.00004842 Ry

     iteration #  2     ecut=    30.00 Ry     beta=0.70
     Davidson diagonalization with overlap
     ethr =  8.80E-08,  avg # of iterations =  3.0

     total cpu time spent up to now is       41.0 secs

     total energy              =    -329.49068525 Ry
     Harris-Foulkes estimate   =    -329.49070238 Ry
     estimated scf accuracy    <       0.00003633 Ry

     iteration #  3     ecut=    30.00 Ry     beta=0.70
     Davidson diagonalization with overlap
     ethr =  6.61E-08,  avg # of iterations =  2.0

     total cpu time spent up to now is       41.5 secs

     total energy              =    -329.49069319 Ry
     Harris-Foulkes estimate   =    -329.49069636 Ry
     estimated scf accuracy    <       0.00000921 Ry

     iteration #  4     ecut=    30.00 Ry     beta=0.70
     Davidson diagonalization with overlap
     ethr =  1.67E-08,  avg # of iterations =  2.0

     total cpu time spent up to now is       41.9 secs

     total energy              =    -329.49069603 Ry
     Harris-Foulkes estimate   =    -329.49069625 Ry
     estimated scf accuracy    <       0.00000295 Ry

     iteration #  5     ecut=    30.00 Ry     beta=0.70
     Davidson diagonalization with overlap
     ethr =  5.36E-09,  avg # of iterations =  2.0

     total cpu time spent up to now is       42.2 secs

     total energy              =    -329.49069652 Ry
     Harris-Foulkes estimate   =    -329.49069664 Ry
     estimated scf accuracy    <       0.00000027 Ry

     iteration #  6     ecut=    30.00 Ry     beta=0.70
     Davidson diagonalization with overlap
     ethr =  4.83E-10,  avg # of iterations =  2.0

     total cpu time spent up to now is       42.6 secs

     total energy              =    -329.49069648 Ry
     Harris-Foulkes estimate   =    -329.49069659 Ry
     estimated scf accuracy    <       0.00000002 Ry

     iteration #  7     ecut=    30.00 Ry     beta=0.70
     Davidson diagonalization with overlap
     ethr =  2.95E-11,  avg # of iterations =  3.0

     total cpu time spent up to now is       43.1 secs

     total energy              =    -329.49069645 Ry
     Harris-Foulkes estimate   =    -329.49069649 Ry
     estimated scf accuracy    <          4.6E-09 Ry

     iteration #  8     ecut=    30.00 Ry     beta=0.70
     Davidson diagonalization with overlap
     ethr =  8.38E-12,  avg # of iterations =  2.0

     total cpu time spent up to now is       43.5 secs

     total energy              =    -329.49069644 Ry
     Harris-Foulkes estimate   =    -329.49069645 Ry
     estimated scf accuracy    <          9.5E-10 Ry

     iteration #  9     ecut=    30.00 Ry     beta=0.70
     Davidson diagonalization with overlap
     ethr =  1.72E-12,  avg # of iterations =  2.0

     total cpu time spent up to now is       43.9 secs

     total energy              =    -329.49069644 Ry
     Harris-Foulkes estimate   =    -329.49069644 Ry
     estimated scf accuracy    <          2.0E-10 Ry

     iteration # 10     ecut=    30.00 Ry     beta=0.70
     Davidson diagonalization with overlap
     ethr =  3.69E-13,  avg # of iterations =  2.0

     total cpu time spent up to now is       44.3 secs

     End of self-consistent calculation

          k = 0.0000 0.0000 0.0000 ( 22119 PWs)   bands (ev):

    -8.4701  -7.7671  -7.6485  -7.2356  -6.8759  -6.7707  -6.6503  -6.4869
    -6.2747  -6.0452  -5.9610  -5.7586  -5.7200  -5.6849  -5.4482  -5.3967
    -5.3127  -5.2442  -5.2089  -5.1789  -5.1655  -5.1159  -5.0096  -4.9507
    -4.8238  -4.7080  -4.4737  -3.7616  -2.4895  -2.2072  -0.5271  -0.1591
     0.4904   0.7252

     the Fermi energy is    -3.7278 ev

!    total energy              =    -329.49069644 Ry
     Harris-Foulkes estimate   =    -329.49069644 Ry
     estimated scf accuracy    <          1.8E-11 Ry

     The total energy is the sum of the following terms:

     one-electron contribution =    -607.70854159 Ry
     hartree contribution      =     325.29278429 Ry
     xc contribution           =     -51.39688993 Ry
     ewald contribution        =       4.32657868 Ry
     smearing contrib. (-TS)   =      -0.00462789 Ry

     convergence has been achieved in  10 iterations

     Forces acting on atoms (Ry/au):

     atom    1 type  1   force =     0.00266442    0.00089327    0.00139651
     atom    2 type  1   force =    -0.00013518    0.00287333   -0.00184218
     atom    3 type  1   force =    -0.00042589   -0.00203848    0.00136099
     atom    4 type  1   force =     0.00108164   -0.00155932    0.00141019
     atom    5 type  1   force =    -0.00318500   -0.00016880   -0.00232551

     Total force =     0.006991     Total SCF correction =     0.000017

     number of scf cycles    =   9
     number of bfgs steps    =   8

     energy   old            =    -329.4906030588 Ry
     energy   new            =    -329.4906964396 Ry

     CASE: energy  _new < energy  _old

     new trust radius        =       0.0302300204 bohr
     new conv_thr            =            1.0E-10 Ry


ATOMIC_POSITIONS (bohr)
Au      -1.783746826   1.870434524  -0.906700033
Au      -0.860834504   3.631228475   3.849670783
Au       3.003819885   1.484345593   0.729124050
Au       4.077180886   3.988928743   5.392295211
Au       7.580758559   1.165445664   2.873098989



     Writing output data file pwscf.save
     Check: negative starting charge=   -0.006428
     NEW-OLD atomic charge density approx. for the potential
     Check: negative starting charge=   -0.006448

     negative rho (up, down):  1.434E-04 0.000E+00

     total cpu time spent up to now is       44.7 secs

     per-process dynamical memory:    50.7 Mb

     Self-consistent Calculation

     iteration #  1     ecut=    30.00 Ry     beta=0.70
     Davidson diagonalization with overlap
     ethr =  1.00E-06,  avg # of iterations =  4.0

     negative rho (up, down):  1.797E-06 0.000E+00

     total cpu time spent up to now is       45.4 secs

     total energy              =    -329.49078914 Ry
     Harris-Foulkes estimate   =    -329.49080251 Ry
     estimated scf accuracy    <       0.00012756 Ry

     iteration #  2     ecut=    30.00 Ry     beta=0.70
     Davidson diagonalization with overlap
     ethr =  2.32E-07,  avg # of iterations =  3.0

     negative rho (up, down):  8.630E-08 0.000E+00

     total cpu time spent up to now is       45.8 secs

     total energy              =    -329.49081304 Ry
     Harris-Foulkes estimate   =    -329.49085513 Ry
     estimated scf accuracy    <       0.00008776 Ry

     iteration #  3     ecut=    30.00 Ry     beta=0.70
     Davidson diagonalization with overlap
     ethr =  1.60E-07,  avg # of iterations =  2.0

     total cpu time spent up to now is       46.3 secs

     total energy              =    -329.49083233 Ry
     Harris-Foulkes estimate   =    -329.49083630 Ry
     estimated scf accuracy    <       0.00001185 Ry

     iteration #  4     ecut=    30.00 Ry     beta=0.70
     Davidson diagonalization with overlap
     ethr =  2.15E-08,  avg # of iterations =  3.0

     total cpu time spent up to now is       46.7 secs

     total energy              =    -329.49083522 Ry
     Harris-Foulkes estimate   =    -329.49083818 Ry
     estimated scf accuracy    <       0.00000978 Ry

     iteration #  5     ecut=    30.00 Ry     beta=0.70
     Davidson diagonalization with overlap
     ethr =  1.78E-08,  avg # of iterations =  2.0

     total cpu time spent up to now is       47.0 secs

     total energy              =    -329.49083687 Ry
     Harris-Foulkes estimate   =    -329.49083717 Ry
     estimated scf accuracy    <       0.00000071 Ry

     iteration #  6     ecut=    30.00 Ry     beta=0.70
     Davidson diagonalization with overlap
     ethr =  1.30E-09,  avg # of iterations =  3.0

     total cpu time spent up to now is       47.5 secs

     total energy              =    -329.49083705 Ry
     Harris-Foulkes estimate   =    -329.49083705 Ry
     estimated scf accuracy    <       0.00000005 Ry

     iteration #  7     ecut=    30.00 Ry     beta=0.70
     Davidson diagonalization with overlap
     ethr =  8.80E-11,  avg # of iterations =  3.0

     total cpu time spent up to now is       47.9 secs

     total energy              =    -329.49083724 Ry
     Harris-Foulkes estimate   =    -329.49083707 Ry
     estimated scf accuracy    <       0.00000001 Ry

     iteration #  8     ecut=    30.00 Ry     beta=0.70
     Davidson diagonalization with overlap
     ethr =  2.31E-11,  avg # of iterations =  2.0

     total cpu time spent up to now is       48.3 secs

     total energy              =    -329.49083720 Ry
     Harris-Foulkes estimate   =    -329.49083724 Ry
     estimated scf accuracy    <          3.3E-09 Ry

     iteration #  9     ecut=    30.00 Ry     beta=0.70
     Davidson diagonalization with overlap
     ethr =  6.06E-12,  avg # of iterations =  2.0

     total cpu time spent up to now is       48.7 secs

     total energy              =    -329.49083723 Ry
     Harris-Foulkes estimate   =    -329.49083720 Ry
     estimated scf accuracy    <          4.2E-10 Ry

     iteration # 10     ecut=    30.00 Ry     beta=0.70
     Davidson diagonalization with overlap
     ethr =  7.58E-13,  avg # of iterations =  2.0

     total cpu time spent up to now is       49.1 secs

     End of self-consistent calculation

          k = 0.0000 0.0000 0.0000 ( 22119 PWs)   bands (ev):

    -8.4954  -7.7878  -7.6593  -7.2417  -6.8700  -6.7799  -6.6527  -6.5004
    -6.2758  -6.0603  -5.9609  -5.7619  -5.7227  -5.6901  -5.4601  -5.3890
    -5.3096  -5.2504  -5.2063  -5.1777  -5.1666  -5.1136  -5.0086  -4.9534
    -4.8198  -4.7057  -4.4807  -3.7552  -2.4818  -2.2104  -0.5299  -0.1534
     0.4919   0.7302

     the Fermi energy is    -3.7199 ev

!    total energy              =    -329.49083723 Ry
     Harris-Foulkes estimate   =    -329.49083723 Ry
     estimated scf accuracy    <          6.9E-11 Ry

     The total energy is the sum of the following terms:

     one-electron contribution =    -608.35853491 Ry
     hartree contribution      =     325.61126660 Ry
     xc contribution           =     -51.39886933 Ry
     ewald contribution        =       4.66026150 Ry
     smearing contrib. (-TS)   =      -0.00496109 Ry

     convergence has been achieved in  10 iterations

     Forces acting on atoms (Ry/au):

     atom    1 type  1   force =     0.00215206    0.00071310    0.00079291
     atom    2 type  1   force =     0.00024021    0.00366774   -0.00057181
     atom    3 type  1   force =    -0.00017555   -0.00284669   -0.00007839
     atom    4 type  1   force =     0.00008191   -0.00113652    0.00209541
     atom    5 type  1   force =    -0.00229863   -0.00039763   -0.00223812

     Total force =     0.006625     Total SCF correction =     0.000026

     number of scf cycles    =  10
     number of bfgs steps    =   9

     energy   old            =    -329.4906964396 Ry
     energy   new            =    -329.4908372271 Ry

     CASE: energy  _new < energy  _old

     new trust radius        =       0.0453450306 bohr
     new conv_thr            =       0.0000000001 Ry


ATOMIC_POSITIONS (bohr)
Au      -1.772356674   1.877119125  -0.914126936
Au      -0.863677979   3.656565034   3.827108743
Au       2.987845107   1.478942727   0.771216654
Au       4.092359842   3.972447364   5.403395159
Au       7.573007705   1.155308751   2.849895380



     Writing output data file pwscf.save
     Check: negative starting charge=   -0.006448
     NEW-OLD atomic charge density approx. for the potential
     Check: negative starting charge=   -0.006462

     negative rho (up, down):  4.566E-04 0.000E+00

     total cpu time spent up to now is       49.5 secs

     per-process dynamical memory:    50.7 Mb

     Self-consistent Calculation

     iteration #  1     ecut=    30.00 Ry     beta=0.70
     Davidson diagonalization with overlap
     ethr =  1.00E-06,  avg # of iterations =  5.0

     negative rho (up, down):  1.697E-05 0.000E+00

     total cpu time spent up to now is       50.3 secs

     total energy              =    -329.49084564 Ry
     Harris-Foulkes estimate   =    -329.49075992 Ry
     estimated scf accuracy    <       0.00037249 Ry

     iteration #  2     ecut=    30.00 Ry     beta=0.70
     Davidson diagonalization with overlap
     ethr =  6.77E-07,  avg # of iterations =  4.0

     negative rho (up, down):  1.989E-06 0.000E+00

     total cpu time spent up to now is       50.7 secs

     total energy              =    -329.49092319 Ry
     Harris-Foulkes estimate   =    -329.49104368 Ry
     estimated scf accuracy    <       0.00025383 Ry

     iteration #  3     ecut=    30.00 Ry     beta=0.70
     Davidson diagonalization with overlap
     ethr =  4.62E-07,  avg # of iterations =  2.0

     total cpu time spent up to now is       51.1 secs

     total energy              =    -329.49097986 Ry
     Harris-Foulkes estimate   =    -329.49098331 Ry
     estimated scf accuracy    <       0.00001462 Ry

     iteration #  4     ecut=    30.00 Ry     beta=0.70
     Davidson diagonalization with overlap
     ethr =  2.66E-08,  avg # of iterations =  3.0

     total cpu time spent up to now is       51.6 secs

     total energy              =    -329.49098339 Ry
     Harris-Foulkes estimate   =    -329.49098777 Ry
     estimated scf accuracy    <       0.00001374 Ry

     iteration #  5     ecut=    30.00 Ry     beta=0.70
     Davidson diagonalization with overlap
     ethr =  2.50E-08,  avg # of iterations =  2.0

     total cpu time spent up to now is       52.0 secs

     total energy              =    -329.49098606 Ry
     Harris-Foulkes estimate   =    -329.49098667 Ry
     estimated scf accuracy    <       0.00000193 Ry

     iteration #  6     ecut=    30.00 Ry     beta=0.70
     Davidson diagonalization with overlap
     ethr =  3.51E-09,  avg # of iterations =  2.0

     total cpu time spent up to now is       52.3 secs

     total energy              =    -329.49098655 Ry
     Harris-Foulkes estimate   =    -329.49098645 Ry
     estimated scf accuracy    <       0.00000008 Ry

     iteration #  7     ecut=    30.00 Ry     beta=0.70
     Davidson diagonalization with overlap
     ethr =  1.50E-10,  avg # of iterations =  3.0

     total cpu time spent up to now is       52.8 secs

     total energy              =    -329.49098656 Ry
     Harris-Foulkes estimate   =    -329.49098659 Ry
     estimated scf accuracy    <       0.00000004 Ry

     iteration #  8     ecut=    30.00 Ry     beta=0.70
     Davidson diagonalization with overlap
     ethr =  7.92E-11,  avg # of iterations =  2.0

     total cpu time spent up to now is       53.2 secs

     total energy              =    -329.49098653 Ry
     Harris-Foulkes estimate   =    -329.49098657 Ry
     estimated scf accuracy    <          7.3E-09 Ry

     iteration #  9     ecut=    30.00 Ry     beta=0.70
     Davidson diagonalization with overlap
     ethr =  1.33E-11,  avg # of iterations =  2.0

     total cpu time spent up to now is       53.6 secs

     total energy              =    -329.49098652 Ry
     Harris-Foulkes estimate   =    -329.49098653 Ry
     estimated scf accuracy    <          6.4E-10 Ry

     iteration # 10     ecut=    30.00 Ry     beta=0.70
     Davidson diagonalization with overlap
     ethr =  1.16E-12,  avg # of iterations =  2.0

     total cpu time spent up to now is       54.0 secs

     total energy              =    -329.49098653 Ry
     Harris-Foulkes estimate   =    -329.49098652 Ry
     estimated scf accuracy    <          2.8E-10 Ry

     iteration # 11     ecut=    30.00 Ry     beta=0.70
     Davidson diagonalization with overlap
     ethr =  5.08E-13,  avg # of iterations =  2.0

     total cpu time spent up to now is       54.4 secs

     End of self-consistent calculation

          k = 0.0000 0.0000 0.0000 ( 22119 PWs)   bands (ev):

    -8.5386  -7.8216  -7.6738  -7.2484  -6.8689  -6.7928  -6.6594  -6.5187
    -6.2764  -6.0857  -5.9635  -5.7684  -5.7297  -5.6973  -5.4742  -5.3764
    -5.3050  -5.2579  -5.2016  -5.1752  -5.1692  -5.1108  -5.0037  -4.9556
    -4.8153  -4.6999  -4.4885  -3.7462  -2.4655  -2.2148  -0.5342  -0.1467
     0.4967   0.7411

     the Fermi energy is    -3.7093 ev

!    total energy              =    -329.49098654 Ry
     Harris-Foulkes estimate   =    -329.49098653 Ry
     estimated scf accuracy    <          4.6E-11 Ry

     The total energy is the sum of the following terms:

     one-electron contribution =    -609.48864426 Ry
     hartree contribution      =     326.16697598 Ry
     xc contribution           =     -51.40318444 Ry
     ewald contribution        =       5.23920547 Ry
     smearing contrib. (-TS)   =      -0.00533929 Ry

     convergence has been achieved in  11 iterations

     Forces acting on atoms (Ry/au):

     atom    1 type  1   force =     0.00068640    0.00051500   -0.00073374
     atom    2 type  1   force =     0.00123464    0.00427627    0.00241502
     atom    3 type  1   force =    -0.00021727   -0.00384535   -0.00311577
     atom    4 type  1   force =    -0.00167164   -0.00030546    0.00305234
     atom    5 type  1   force =    -0.00003214   -0.00064045   -0.00161785

     Total force =     0.008167     Total SCF correction =     0.000023

     number of scf cycles    =  11
     number of bfgs steps    =  10

     energy   old            =    -329.4908372271 Ry
     energy   new            =    -329.4909865430 Ry

     CASE: energy  _new < energy  _old

     new trust radius        =       0.0099176787 bohr
     new conv_thr            =       0.0000000001 Ry


ATOMIC_POSITIONS (bohr)
Au      -1.765407327   1.879753301  -0.909784042
Au      -0.862755565   3.665398417   3.825933084
Au       2.987574544   1.470348889   0.768206230
Au       4.093089975   3.969326378   5.408613114
Au       7.564676373   1.155556016   2.844520613



     Writing output data file pwscf.save
     Check: negative starting charge=   -0.006462
     NEW-OLD atomic charge density approx. for the potential
     Check: negative starting charge=   -0.006456

     negative rho (up, down):  1.384E-05 0.000E+00

     total cpu time spent up to now is       54.8 secs

     per-process dynamical memory:    50.7 Mb

     Self-consistent Calculation

     iteration #  1     ecut=    30.00 Ry     beta=0.70
     Davidson diagonalization with overlap
     ethr =  1.00E-06,  avg # of iterations =  4.0

     Threshold (ethr) on eigenvalues was too large:
     Diagonalizing with lowered threshold

     Davidson diagonalization with overlap
     ethr =  5.14E-08,  avg # of iterations =  1.0

     negative rho (up, down):  1.034E-08 0.000E+00

     total cpu time spent up to now is       55.8 secs

     total energy              =    -329.49106705 Ry
     Harris-Foulkes estimate   =    -329.49107745 Ry
     estimated scf accuracy    <       0.00002891 Ry

     iteration #  2     ecut=    30.00 Ry     beta=0.70
     Davidson diagonalization with overlap
     ethr =  5.26E-08,  avg # of iterations =  3.0

     total cpu time spent up to now is       56.2 secs

     total energy              =    -329.49106716 Ry
     Harris-Foulkes estimate   =    -329.49108737 Ry
     estimated scf accuracy    <       0.00004449 Ry

     iteration #  3     ecut=    30.00 Ry     beta=0.70
     Davidson diagonalization with overlap
     ethr =  5.26E-08,  avg # of iterations =  2.0

     total cpu time spent up to now is       56.6 secs

     total energy              =    -329.49107652 Ry
     Harris-Foulkes estimate   =    -329.49107904 Ry
     estimated scf accuracy    <       0.00000734 Ry

     iteration #  4     ecut=    30.00 Ry     beta=0.70
     Davidson diagonalization with overlap
     ethr =  1.33E-08,  avg # of iterations =  2.0

     total cpu time spent up to now is       57.0 secs

     total energy              =    -329.49107774 Ry
     Harris-Foulkes estimate   =    -329.49107848 Ry
     estimated scf accuracy    <       0.00000120 Ry

     iteration #  5     ecut=    30.00 Ry     beta=0.70
     Davidson diagonalization with overlap
     ethr =  2.18E-09,  avg # of iterations =  2.0

     total cpu time spent up to now is       57.4 secs

     total energy              =    -329.49107796 Ry
     Harris-Foulkes estimate   =    -329.49107805 Ry
     estimated scf accuracy    <       0.00000022 Ry

     iteration #  6     ecut=    30.00 Ry     beta=0.70
     Davidson diagonalization with overlap
     ethr =  4.06E-10,  avg # of iterations =  2.0

     total cpu time spent up to now is       57.8 secs

     total energy              =    -329.49107803 Ry
     Harris-Foulkes estimate   =    -329.49107801 Ry
     estimated scf accuracy    <          9.6E-09 Ry

     iteration #  7     ecut=    30.00 Ry     beta=0.70
     Davidson diagonalization with overlap
     ethr =  1.75E-11,  avg # of iterations =  3.0

     total cpu time spent up to now is       58.2 secs

     total energy              =    -329.49107801 Ry
     Harris-Foulkes estimate   =    -329.49107804 Ry
     estimated scf accuracy    <          3.1E-09 Ry

     iteration #  8     ecut=    30.00 Ry     beta=0.70
     Davidson diagonalization with overlap
     ethr =  5.65E-12,  avg # of iterations =  2.0

     total cpu time spent up to now is       58.7 secs

     total energy              =    -329.49107799 Ry
     Harris-Foulkes estimate   =    -329.49107801 Ry
     estimated scf accuracy    <          2.7E-10 Ry

     iteration #  9     ecut=    30.00 Ry     beta=0.70
     Davidson diagonalization with overlap
     ethr =  4.89E-13,  avg # of iterations =  2.0

     total cpu time spent up to now is       59.1 secs

     total energy              =    -329.49107800 Ry
     Harris-Foulkes estimate   =    -329.49107799 Ry
     estimated scf accuracy    <          1.9E-10 Ry

     iteration # 10     ecut=    30.00 Ry     beta=0.70
     Davidson diagonalization with overlap
     ethr =  3.53E-13,  avg # of iterations =  2.0

     total cpu time spent up to now is       59.5 secs

     End of self-consistent calculation

          k = 0.0000 0.0000 0.0000 ( 22119 PWs)   bands (ev):

    -8.5453  -7.8245  -7.6685  -7.2473  -6.8738  -6.7995  -6.6628  -6.5151
    -6.2756  -6.0873  -5.9691  -5.7705  -5.7331  -5.6990  -5.4693  -5.3765
    -5.3047  -5.2559  -5.2016  -5.1748  -5.1705  -5.1119  -4.9994  -4.9536
    -4.8198  -4.6974  -4.4857  -3.7472  -2.4599  -2.2142  -0.5345  -0.1500
     0.4998   0.7451

     the Fermi energy is    -3.7107 ev

!    total energy              =    -329.49107800 Ry
     Harris-Foulkes estimate   =    -329.49107800 Ry
     estimated scf accuracy    <          8.6E-12 Ry

     The total energy is the sum of the following terms:

     one-electron contribution =    -609.68067819 Ry
     hartree contribution      =     326.26264740 Ry
     xc contribution           =     -51.40447028 Ry
     ewald contribution        =       5.33667247 Ry
     smearing contrib. (-TS)   =      -0.00524940 Ry

     convergence has been achieved in  10 iterations

     Forces acting on atoms (Ry/au):

     atom    1 type  1   force =    -0.00026914    0.00051000   -0.00146791
     atom    2 type  1   force =     0.00164113    0.00406371    0.00271264
     atom    3 type  1   force =    -0.00051328   -0.00350685   -0.00281782
     atom    4 type  1   force =    -0.00202992   -0.00032714    0.00281114
     atom    5 type  1   force =     0.00117120   -0.00073972   -0.00123806

     Total force =     0.008071     Total SCF correction =     0.000010

     number of scf cycles    =  12
     number of bfgs steps    =  11

     energy   old            =    -329.4909865430 Ry
     energy   new            =    -329.4910779971 Ry

     CASE: energy  _new < energy  _old

     new trust radius        =       0.0109094466 bohr
     new conv_thr            =            1.0E-10 Ry


ATOMIC_POSITIONS (bohr)
Au      -1.759423798   1.882472984  -0.906251991
Au      -0.860719155   3.675080666   3.826631657
Au       2.987259180   1.460709633   0.763107082
Au       4.092333808   3.966386602   5.414486871
Au       7.557727965   1.155733115   2.839515381



     Writing output data file pwscf.save
     Check: negative starting charge=   -0.006456
     NEW-OLD atomic charge density approx. for the potential
     Check: negative starting charge=   -0.006448

     negative rho (up, down):  1.518E-05 0.000E+00

     total cpu time spent up to now is       59.9 secs

     per-process dynamical memory:    50.7 Mb

     Self-consistent Calculation

     iteration #  1     ecut=    30.00 Ry     beta=0.70
     Davidson diagonalization with overlap
     ethr =  1.00E-06,  avg # of iterations =  4.0

     Threshold (ethr) on eigenvalues was too large:
     Diagonalizing with lowered threshold

     Davidson diagonalization with overlap
     ethr =  5.14E-08,  avg # of iterations =  1.0

     negative rho (up, down):  1.200E-08 0.000E+00

     total cpu time spent up to now is       60.8 secs

     total energy              =    -329.49115924 Ry
     Harris-Foulkes estimate   =    -329.49116927 Ry
     estimated scf accuracy    <       0.00002870 Ry

     iteration #  2     ecut=    30.00 Ry     beta=0.70
     Davidson diagonalization with overlap
     ethr =  5.22E-08,  avg # of iterations =  3.0

     total cpu time spent up to now is       61.3 secs

     total energy              =    -329.49115957 Ry
     Harris-Foulkes estimate   =    -329.49117773 Ry
     estimated scf accuracy    <       0.00003758 Ry

     iteration #  3     ecut=    30.00 Ry     beta=0.70
     Davidson diagonalization with overlap
     ethr =  5.22E-08,  avg # of iterations =  2.0

     total cpu time spent up to now is       61.7 secs

     total energy              =    -329.49116709 Ry
     Harris-Foulkes estimate   =    -329.49117011 Ry
     estimated scf accuracy    <       0.00000728 Ry

[...]
     atom    5 type  1   force =    -0.00011813   -0.00102659   -0.00007278

     Total force =     0.002112     Total SCF correction =     0.000017

     number of scf cycles    =  37
     number of bfgs steps    =  35

     energy   old            =    -329.4929144807 Ry
     energy   new            =    -329.4929301941 Ry

     CASE: energy  _new < energy  _old

     new trust radius        =       0.0059273938 bohr
     new conv_thr            =            1.0E-10 Ry


ATOMIC_POSITIONS (bohr)
Au      -1.822008470   1.944383398  -0.884145156
Au      -0.682056405   4.187850191   3.626758337
Au       2.915600137   1.362420874   0.790850783
Au       4.073686798   3.616500620   5.603793999
Au       7.531955941   1.029227917   2.800231038



     Writing output data file pwscf.save
     Check: negative starting charge=   -0.006398
     NEW-OLD atomic charge density approx. for the potential
     Check: negative starting charge=   -0.006400

     negative rho (up, down):  2.168E-07 0.000E+00

     total cpu time spent up to now is      180.3 secs

     per-process dynamical memory:    50.7 Mb

     Self-consistent Calculation

     iteration #  1     ecut=    30.00 Ry     beta=0.70
     Davidson diagonalization with overlap
     ethr =  1.00E-06,  avg # of iterations =  3.0

     Threshold (ethr) on eigenvalues was too large:
     Diagonalizing with lowered threshold

     Davidson diagonalization with overlap
     ethr =  9.37E-09,  avg # of iterations =  2.0

     total cpu time spent up to now is      180.9 secs

     total energy              =    -329.49293669 Ry
     Harris-Foulkes estimate   =    -329.49293790 Ry
     estimated scf accuracy    <       0.00000552 Ry

     iteration #  2     ecut=    30.00 Ry     beta=0.70
     Davidson diagonalization with overlap
     ethr =  1.00E-08,  avg # of iterations =  3.0

     total cpu time spent up to now is      181.1 secs

     total energy              =    -329.49293676 Ry
     Harris-Foulkes estimate   =    -329.49294068 Ry
     estimated scf accuracy    <       0.00000907 Ry

     iteration #  3     ecut=    30.00 Ry     beta=0.70
     Davidson diagonalization with overlap
     ethr =  1.00E-08,  avg # of iterations =  2.0

     total cpu time spent up to now is      181.4 secs

     total energy              =    -329.49293829 Ry
     Harris-Foulkes estimate   =    -329.49293920 Ry
     estimated scf accuracy    <       0.00000160 Ry

     iteration #  4     ecut=    30.00 Ry     beta=0.70
     Davidson diagonalization with overlap
     ethr =  2.91E-09,  avg # of iterations =  2.0

     total cpu time spent up to now is      181.7 secs

     total energy              =    -329.49293823 Ry
     Harris-Foulkes estimate   =    -329.49293868 Ry
     estimated scf accuracy    <       0.00000018 Ry

     iteration #  5     ecut=    30.00 Ry     beta=0.70
     Davidson diagonalization with overlap
     ethr =  3.31E-10,  avg # of iterations =  2.0

     total cpu time spent up to now is      182.0 secs

     total energy              =    -329.49293822 Ry
     Harris-Foulkes estimate   =    -329.49293829 Ry
     estimated scf accuracy    <       0.00000005 Ry

     iteration #  6     ecut=    30.00 Ry     beta=0.70
     Davidson diagonalization with overlap
     ethr =  9.04E-11,  avg # of iterations =  2.0

     total cpu time spent up to now is      182.2 secs

     total energy              =    -329.49293817 Ry
     Harris-Foulkes estimate   =    -329.49293823 Ry
     estimated scf accuracy    <          3.0E-09 Ry

     iteration #  7     ecut=    30.00 Ry     beta=0.70
     Davidson diagonalization with overlap
     ethr =  5.43E-12,  avg # of iterations =  3.0

     total cpu time spent up to now is      182.5 secs

     total energy              =    -329.49293820 Ry
     Harris-Foulkes estimate   =    -329.49293817 Ry
     estimated scf accuracy    <          9.2E-10 Ry

     iteration #  8     ecut=    30.00 Ry     beta=0.70
     Davidson diagonalization with overlap
     ethr =  1.67E-12,  avg # of iterations =  2.0

     total cpu time spent up to now is      182.8 secs

     total energy              =    -329.49293817 Ry
     Harris-Foulkes estimate   =    -329.49293820 Ry
     estimated scf accuracy    <          2.9E-10 Ry

     iteration #  9     ecut=    30.00 Ry     beta=0.70
     Davidson diagonalization with overlap
     ethr =  5.34E-13,  avg # of iterations =  2.0

     total cpu time spent up to now is      183.1 secs

     End of self-consistent calculation

          k = 0.0000 0.0000 0.0000 ( 22119 PWs)   bands (ev):

    -8.5237  -7.7969  -7.6693  -7.2457  -6.8512  -6.8204  -6.6211  -6.4955
    -6.3115  -6.0824  -5.9549  -5.7729  -5.7297  -5.6886  -5.4675  -5.3558
    -5.3127  -5.2522  -5.2001  -5.1803  -5.1691  -5.1195  -5.0037  -4.9225
    -4.8282  -4.7323  -4.4811  -3.7724  -2.4586  -2.1895  -0.5398  -0.1702
     0.5010   0.7975

     the Fermi energy is    -3.7388 ev

!    total energy              =    -329.49293817 Ry
     Harris-Foulkes estimate   =    -329.49293817 Ry
     estimated scf accuracy    <          5.1E-11 Ry

     The total energy is the sum of the following terms:

     one-electron contribution =    -608.03369391 Ry
     hartree contribution      =     325.44345906 Ry
     xc contribution           =     -51.40172152 Ry
     ewald contribution        =       4.50359921 Ry
     smearing contrib. (-TS)   =      -0.00458102 Ry

     convergence has been achieved in   9 iterations

     Forces acting on atoms (Ry/au):

     atom    1 type  1   force =    -0.00013549    0.00056780    0.00030930
     atom    2 type  1   force =    -0.00024930    0.00018399    0.00014848
     atom    3 type  1   force =    -0.00012554   -0.00008204   -0.00037024
     atom    4 type  1   force =     0.00026804    0.00051199    0.00001477
     atom    5 type  1   force =     0.00024228   -0.00118174   -0.00010232

     Total force =     0.001586     Total SCF correction =     0.000028

     number of scf cycles    =  38
     number of bfgs steps    =  36

     energy   old            =    -329.4929301941 Ry
     energy   new            =    -329.4929381703 Ry

     CASE: energy  _new < energy  _old

     new trust radius        =       0.0040127596 bohr
     new conv_thr            =            1.0E-10 Ry


ATOMIC_POSITIONS (bohr)
Au      -1.820298868   1.945220547  -0.881627268
Au      -0.681897796   4.190509501   3.625526576
Au       2.914930392   1.362581726   0.789247416
Au       4.074289793   3.616337557   5.604915737
Au       7.530154480   1.025733670   2.799426540



     Writing output data file pwscf.save
     Check: negative starting charge=   -0.006400
     NEW-OLD atomic charge density approx. for the potential
     Check: negative starting charge=   -0.006398

     negative rho (up, down):  2.822E-08 0.000E+00

     total cpu time spent up to now is      183.4 secs

     per-process dynamical memory:    50.7 Mb

     Self-consistent Calculation

     iteration #  1     ecut=    30.00 Ry     beta=0.70
     Davidson diagonalization with overlap
     ethr =  1.00E-06,  avg # of iterations =  3.0

     Threshold (ethr) on eigenvalues was too large:
     Diagonalizing with lowered threshold

     Davidson diagonalization with overlap
     ethr =  5.87E-09,  avg # of iterations =  2.0

     total cpu time spent up to now is      183.9 secs

     total energy              =    -329.49294130 Ry
     Harris-Foulkes estimate   =    -329.49294339 Ry
     estimated scf accuracy    <       0.00000343 Ry

     iteration #  2     ecut=    30.00 Ry     beta=0.70
     Davidson diagonalization with overlap
     ethr =  6.24E-09,  avg # of iterations =  3.0

     total cpu time spent up to now is      184.2 secs

     total energy              =    -329.49294118 Ry
     Harris-Foulkes estimate   =    -329.49294398 Ry
     estimated scf accuracy    <       0.00000625 Ry

     iteration #  3     ecut=    30.00 Ry     beta=0.70
     Davidson diagonalization with overlap
     ethr =  6.24E-09,  avg # of iterations =  2.0

     total cpu time spent up to now is      184.5 secs

     total energy              =    -329.49294215 Ry
     Harris-Foulkes estimate   =    -329.49294274 Ry
     estimated scf accuracy    <       0.00000086 Ry

     iteration #  4     ecut=    30.00 Ry     beta=0.70
     Davidson diagonalization with overlap
     ethr =  1.57E-09,  avg # of iterations =  2.0

     total cpu time spent up to now is      184.7 secs

     total energy              =    -329.49294223 Ry
     Harris-Foulkes estimate   =    -329.49294239 Ry
     estimated scf accuracy    <       0.00000016 Ry

     iteration #  5     ecut=    30.00 Ry     beta=0.70
     Davidson diagonalization with overlap
     ethr =  2.93E-10,  avg # of iterations =  2.0

     total cpu time spent up to now is      185.0 secs

     total energy              =    -329.49294224 Ry
     Harris-Foulkes estimate   =    -329.49294227 Ry
     estimated scf accuracy    <       0.00000001 Ry

     iteration #  6     ecut=    30.00 Ry     beta=0.70
     Davidson diagonalization with overlap
     ethr =  2.40E-11,  avg # of iterations =  2.0

     total cpu time spent up to now is      185.3 secs

     total energy              =    -329.49294224 Ry
     Harris-Foulkes estimate   =    -329.49294225 Ry
     estimated scf accuracy    <          3.3E-09 Ry

     iteration #  7     ecut=    30.00 Ry     beta=0.70
     Davidson diagonalization with overlap
     ethr =  5.92E-12,  avg # of iterations =  2.0

     total cpu time spent up to now is      185.6 secs

     total energy              =    -329.49294221 Ry
     Harris-Foulkes estimate   =    -329.49294224 Ry
     estimated scf accuracy    <          5.5E-10 Ry

     iteration #  8     ecut=    30.00 Ry     beta=0.70
     Davidson diagonalization with overlap
     ethr =  1.01E-12,  avg # of iterations =  2.0

     total cpu time spent up to now is      185.9 secs

     total energy              =    -329.49294217 Ry
     Harris-Foulkes estimate   =    -329.49294221 Ry
     estimated scf accuracy    <          1.2E-10 Ry

     iteration #  9     ecut=    30.00 Ry     beta=0.70
     Davidson diagonalization with overlap
     ethr =  2.15E-13,  avg # of iterations =  3.0

     total cpu time spent up to now is      186.2 secs

     End of self-consistent calculation

          k = 0.0000 0.0000 0.0000 ( 22119 PWs)   bands (ev):

    -8.5254  -7.7976  -7.6675  -7.2446  -6.8518  -6.8218  -6.6225  -6.4947
    -6.3102  -6.0830  -5.9563  -5.7734  -5.7306  -5.6888  -5.4664  -5.3557
    -5.3125  -5.2518  -5.1999  -5.1800  -5.1696  -5.1197  -5.0027  -4.9227
    -4.8295  -4.7312  -4.4809  -3.7723  -2.4573  -2.1899  -0.5395  -0.1706
     0.5021   0.7973

     the Fermi energy is    -3.7387 ev

!    total energy              =    -329.49294218 Ry
     Harris-Foulkes estimate   =    -329.49294217 Ry
     estimated scf accuracy    <          1.7E-11 Ry

     The total energy is the sum of the following terms:

     one-electron contribution =    -608.06007308 Ry
     hartree contribution      =     325.45666966 Ry
     xc contribution           =     -51.40192215 Ry
     ewald contribution        =       4.51695920 Ry
     smearing contrib. (-TS)   =      -0.00457582 Ry

     convergence has been achieved in   9 iterations

     Forces acting on atoms (Ry/au):

     atom    1 type  1   force =    -0.00055856    0.00050667   -0.00009331
     atom    2 type  1   force =    -0.00005516    0.00018469    0.00042862
     atom    3 type  1   force =     0.00021797   -0.00008337   -0.00008113
     atom    4 type  1   force =     0.00021452    0.00044950   -0.00020359
     atom    5 type  1   force =     0.00018122   -0.00105749   -0.00005059

     Total force =     0.001517     Total SCF correction =     0.000016

     number of scf cycles    =  39
     number of bfgs steps    =  37

     energy   old            =    -329.4929381703 Ry
     energy   new            =    -329.4929421849 Ry

     CASE: energy  _new < energy  _old

     new trust radius        =       0.0046554449 bohr
     new conv_thr            =            1.0E-10 Ry


ATOMIC_POSITIONS (bohr)
Au      -1.818751931   1.946575242  -0.880051346
Au      -0.682736471   4.190472238   3.626896358
Au       2.914384326   1.362891680   0.787849913
Au       4.075300982   3.619081226   5.604458504
Au       7.528981095   1.021362615   2.798335571



     Writing output data file pwscf.save
     Check: negative starting charge=   -0.006398
     NEW-OLD atomic charge density approx. for the potential
     Check: negative starting charge=   -0.006397

     negative rho (up, down):  4.880E-08 0.000E+00

     total cpu time spent up to now is      186.5 secs

     per-process dynamical memory:    50.7 Mb

     Self-consistent Calculation

     iteration #  1     ecut=    30.00 Ry     beta=0.70
     Davidson diagonalization with overlap
     ethr =  1.00E-06,  avg # of iterations =  3.0

     Threshold (ethr) on eigenvalues was too large:
     Diagonalizing with lowered threshold

     Davidson diagonalization with overlap
     ethr =  6.45E-09,  avg # of iterations =  2.0

     total cpu time spent up to now is      187.1 secs

     total energy              =    -329.49294641 Ry
     Harris-Foulkes estimate   =    -329.49294961 Ry
     estimated scf accuracy    <       0.00000377 Ry

     iteration #  2     ecut=    30.00 Ry     beta=0.70
     Davidson diagonalization with overlap
     ethr =  6.86E-09,  avg # of iterations =  3.0

     total cpu time spent up to now is      187.5 secs

     total energy              =    -329.49294639 Ry
     Harris-Foulkes estimate   =    -329.49294896 Ry
     estimated scf accuracy    <       0.00000499 Ry

     iteration #  3     ecut=    30.00 Ry     beta=0.70
     Davidson diagonalization with overlap
     ethr =  6.86E-09,  avg # of iterations =  2.0

     total cpu time spent up to now is      187.7 secs

     total energy              =    -329.49294725 Ry
     Harris-Foulkes estimate   =    -329.49294777 Ry
     estimated scf accuracy    <       0.00000104 Ry

     iteration #  4     ecut=    30.00 Ry     beta=0.70
     Davidson diagonalization with overlap
     ethr =  1.88E-09,  avg # of iterations =  2.0

     total cpu time spent up to now is      188.0 secs

     total energy              =    -329.49294713 Ry
     Harris-Foulkes estimate   =    -329.49294753 Ry
     estimated scf accuracy    <       0.00000015 Ry

     iteration #  5     ecut=    30.00 Ry     beta=0.70
     Davidson diagonalization with overlap
     ethr =  2.68E-10,  avg # of iterations =  2.0

     total cpu time spent up to now is      188.3 secs

     total energy              =    -329.49294708 Ry
     Harris-Foulkes estimate   =    -329.49294716 Ry
     estimated scf accuracy    <       0.00000001 Ry

     iteration #  6     ecut=    30.00 Ry     beta=0.70
     Davidson diagonalization with overlap
     ethr =  2.30E-11,  avg # of iterations =  2.0

     total cpu time spent up to now is      188.6 secs

     total energy              =    -329.49294710 Ry
     Harris-Foulkes estimate   =    -329.49294709 Ry
     estimated scf accuracy    <          1.7E-09 Ry

     iteration #  7     ecut=    30.00 Ry     beta=0.70
     Davidson diagonalization with overlap
     ethr =  3.00E-12,  avg # of iterations =  2.0

     total cpu time spent up to now is      188.8 secs

     total energy              =    -329.49294704 Ry
     Harris-Foulkes estimate   =    -329.49294710 Ry
     estimated scf accuracy    <          6.5E-10 Ry

     iteration #  8     ecut=    30.00 Ry     beta=0.70
     Davidson diagonalization with overlap
     ethr =  1.18E-12,  avg # of iterations =  2.0

     total cpu time spent up to now is      189.1 secs

     End of self-consistent calculation

          k = 0.0000 0.0000 0.0000 ( 22119 PWs)   bands (ev):

    -8.5260  -7.7969  -7.6659  -7.2426  -6.8517  -6.8226  -6.6218  -6.4935
    -6.3090  -6.0833  -5.9563  -5.7739  -5.7310  -5.6887  -5.4652  -5.3557
    -5.3124  -5.2514  -5.2000  -5.1795  -5.1699  -5.1199  -5.0017  -4.9228
    -4.8303  -4.7308  -4.4807  -3.7728  -2.4562  -2.1906  -0.5393  -0.1713
     0.5031   0.7981

     the Fermi energy is    -3.7393 ev

!    total energy              =    -329.49294700 Ry
     Harris-Foulkes estimate   =    -329.49294704 Ry
     estimated scf accuracy    <          9.5E-11 Ry

     The total energy is the sum of the following terms:

     one-electron contribution =    -608.02804890 Ry
     hartree contribution      =     325.44117289 Ry
     xc contribution           =     -51.40190376 Ry
     ewald contribution        =       4.50038776 Ry
     smearing contrib. (-TS)   =      -0.00455499 Ry

     convergence has been achieved in   8 iterations

     Forces acting on atoms (Ry/au):

     atom    1 type  1   force =    -0.00086098    0.00046985   -0.00032243
     atom    2 type  1   force =     0.00006148    0.00021159    0.00047529
     atom    3 type  1   force =     0.00052091   -0.00006639    0.00021137
     atom    4 type  1   force =     0.00028423    0.00022732   -0.00041060
     atom    5 type  1   force =    -0.00000563   -0.00084237    0.00004637

     Total force =     0.001635     Total SCF correction =     0.000041

     bfgs converged in  40 scf cycles and  38 bfgs steps
     (criteria: energy <  1.0E-04, force <  1.0E-03)

     End of BFGS Geometry Optimization

     Final energy   =    -329.4929470007 Ry
Begin final coordinates

ATOMIC_POSITIONS (bohr)
Au      -1.818751931   1.946575242  -0.880051346
Au      -0.682736471   4.190472238   3.626896358
Au       2.914384326   1.362891680   0.787849913
Au       4.075300982   3.619081226   5.604458504
Au       7.528981095   1.021362615   2.798335571
End final coordinates



     Writing output data file pwscf.save
 
     init_run     :      0.34s CPU      0.38s WALL (       1 calls)
     electrons    :    166.42s CPU    176.10s WALL (      40 calls)
     update_pot   :      4.77s CPU      5.74s WALL (      39 calls)
     forces       :      2.42s CPU      2.46s WALL (      40 calls)

     Called by init_run:
     wfcinit      :      0.12s CPU      0.15s WALL (       1 calls)
     potinit      :      0.08s CPU      0.08s WALL (       1 calls)

     Called by electrons:
     c_bands      :    125.36s CPU    128.32s WALL (     417 calls)
     sum_band     :     15.83s CPU     16.24s WALL (     417 calls)
     v_of_rho     :     14.55s CPU     14.88s WALL (     443 calls)
     mix_rho      :      5.98s CPU      9.31s WALL (     417 calls)

     Called by c_bands:
     init_us_2    :      1.29s CPU      1.33s WALL (     835 calls)
     cegterg      :    116.23s CPU    118.91s WALL (     417 calls)

     Called by sum_band:

     Called by *egterg:
     h_psi        :     88.44s CPU     90.38s WALL (    1522 calls)
     g_psi        :      0.48s CPU      0.48s WALL (    1104 calls)
     cdiaghg      :      7.50s CPU      7.66s WALL (    1468 calls)

     Called by h_psi:
     h_psi:pot    :     87.75s CPU     89.68s WALL (    1522 calls)
     h_psi:calbec :     10.86s CPU     11.18s WALL (    1522 calls)
     vloc_psi     :     73.88s CPU     75.48s WALL (    1522 calls)
     add_vuspsi   :      3.01s CPU      3.02s WALL (    1522 calls)

     General routines
     calbec       :     11.60s CPU     11.93s WALL (    1682 calls)
     fft          :     10.79s CPU     11.13s WALL (    4980 calls)
     fftw         :     81.15s CPU     83.21s WALL (   92828 calls)
     davcio       :      0.51s CPU      2.94s WALL (    4349 calls)
 
     Parallel routines
     fft_scatter  :     54.74s CPU     56.20s WALL (   97808 calls)
 
     PWSCF        :  2m56.51s CPU     3m 9.43s WALL

 
   This run was terminated on:   1:20:57  29Jul2017            

=------------------------------------------------------------------------------=
   JOB DONE.
=------------------------------------------------------------------------------=
