
     Program PWSCF v.6.0 (svn rev. 13079) starts on 29Jul2017 at  1: 7:18 

     This program is part of the open-source Quantum ESPRESSO suite
     for quantum simulation of materials; please cite
         "P. Giannozzi et al., J. Phys.:Condens. Matter 21 395502 (2009);
          URL http://www.quantum-espresso.org", 
     in publications or presentations arising from this work. More details at
     http://www.quantum-espresso.org/quote

     Parallel version (MPI), running on    10 processors
     R & G space division:  proc/nbgrp/npool/nimage =      10
     Reading input from input/dftmin-Gold5-multi-10.in

     Current dimensions of program PWSCF are:
     Max number of different atomic species (ntypx) = 10
     Max number of k-points (npk) =  40000
     Max angular momentum in pseudopotentials (lmaxx) =  3
     Message from routine iosys:
     pot_extrapolation='second-order' not available, using 'atomic'
     Message from routine iosys:
     wfc_extrapolation='second-order' not available, using 'atomic'

     Subspace diagonalization in iterative solution of the eigenvalue problem:
     a serial algorithm will be used

 
     Parallelization info
     --------------------
     sticks:   dense  smooth     PW     G-vecs:    dense   smooth      PW
     Min         380     380     94                17748    17748    2208
     Max         381     381     95                17753    17753    2213
     Sum        3809    3809    949               177509   177509   22119
 


     bravais-lattice index     =            1
     lattice parameter (alat)  =      20.0000  a.u.
     unit-cell volume          =    8000.0000 (a.u.)^3
     number of atoms/cell      =            5
     number of atomic types    =            1
     number of electrons       =        55.00
     number of Kohn-Sham states=           34
     kinetic-energy cutoff     =      30.0000  Ry
     charge density cutoff     =     120.0000  Ry
     convergence threshold     =      1.0E-08
     mixing beta               =       0.7000
     number of iterations used =            8  plain     mixing
     Exchange-correlation      = BLYP ( 1  3  1  3 0 0)
     nstep                     =           50


     celldm(1)=  20.000000  celldm(2)=   0.000000  celldm(3)=   0.000000
     celldm(4)=   0.000000  celldm(5)=   0.000000  celldm(6)=   0.000000

     crystal axes: (cart. coord. in units of alat)
               a(1) = (   1.000000   0.000000   0.000000 )  
               a(2) = (   0.000000   1.000000   0.000000 )  
               a(3) = (   0.000000   0.000000   1.000000 )  

     reciprocal axes: (cart. coord. in units 2 pi/alat)
               b(1) = (  1.000000  0.000000  0.000000 )  
               b(2) = (  0.000000  1.000000  0.000000 )  
               b(3) = (  0.000000  0.000000  1.000000 )  


     PseudoPot. # 1 for Au read from file:
     ./Au.blyp-d-hgh.UPF
     MD5 check sum: c10d8bae01f806c36a1643a1c69a8479
     Pseudo is Norm-conserving, Zval = 11.0
     Generated in analytical, separable form
     Using radial grid of 1279 points,  6 beta functions with: 
                l(1) =   0
                l(2) =   0
                l(3) =   1
                l(4) =   1
                l(5) =   2
                l(6) =   2

     atomic species   valence    mass     pseudopotential
        Au            11.00    28.08600     Au( 1.00)

     No symmetry found



   Cartesian axes

     site n.     atom                  positions (alat units)
         1           Au  tau(   1) = (  -0.1180192   0.0806964  -0.0016654  )
         2           Au  tau(   2) = (  -0.0212389   0.1191002   0.2324982  )
         3           Au  tau(   3) = (   0.1552688   0.0719588   0.0088816  )
         4           Au  tau(   4) = (   0.2198849   0.1981827   0.2618228  )
         5           Au  tau(   5) = (   0.3857064   0.0682542   0.1234230  )

     number of k points=     1  Marzari-Vanderbilt smearing, width (Ry)=  0.0250
                       cart. coord. in units 2pi/alat
        k(    1) = (   0.0000000   0.0000000   0.0000000), wk =   2.0000000

     Dense  grid:   177509 G-vectors     FFT dimensions: (  72,  72,  72)

     Estimated max dynamical RAM per process >      15.04Mb

     Estimated total allocated dynamical RAM >     150.39Mb

     Initial potential from superposition of free atoms
     Check: negative starting charge=   -0.006435

     starting charge   54.99940, renormalised to   55.00000

     negative rho (up, down):  6.435E-03 0.000E+00
     Starting wfc are   45 randomized atomic wfcs

     total cpu time spent up to now is        0.5 secs

     per-process dynamical memory:    41.0 Mb

     Self-consistent Calculation

     iteration #  1     ecut=    30.00 Ry     beta=0.70
     Davidson diagonalization with overlap
     ethr =  1.00E-02,  avg # of iterations =  3.0

     Threshold (ethr) on eigenvalues was too large:
     Diagonalizing with lowered threshold

     Davidson diagonalization with overlap
     ethr =  3.88E-04,  avg # of iterations =  6.0

     negative rho (up, down):  8.678E-04 0.000E+00

     total cpu time spent up to now is        1.1 secs

     total energy              =    -329.35981188 Ry
     Harris-Foulkes estimate   =    -329.52355595 Ry
     estimated scf accuracy    <       0.27230189 Ry

     iteration #  2     ecut=    30.00 Ry     beta=0.70
     Davidson diagonalization with overlap
     ethr =  4.95E-04,  avg # of iterations =  4.0

     negative rho (up, down):  4.203E-04 0.000E+00

     total cpu time spent up to now is        1.5 secs

     total energy              =    -329.37649559 Ry
     Harris-Foulkes estimate   =    -329.55795620 Ry
     estimated scf accuracy    <       0.39197130 Ry

     iteration #  3     ecut=    30.00 Ry     beta=0.70
     Davidson diagonalization with overlap
     ethr =  4.95E-04,  avg # of iterations =  2.0

     negative rho (up, down):  1.488E-04 0.000E+00

     total cpu time spent up to now is        1.9 secs

     total energy              =    -329.45542916 Ry
     Harris-Foulkes estimate   =    -329.48736239 Ry
     estimated scf accuracy    <       0.08537001 Ry

     iteration #  4     ecut=    30.00 Ry     beta=0.70
     Davidson diagonalization with overlap
     ethr =  1.55E-04,  avg # of iterations =  2.0

     negative rho (up, down):  7.706E-06 0.000E+00

     total cpu time spent up to now is        2.2 secs

     total energy              =    -329.46991903 Ry
     Harris-Foulkes estimate   =    -329.47105476 Ry
     estimated scf accuracy    <       0.00271756 Ry

     iteration #  5     ecut=    30.00 Ry     beta=0.70
     Davidson diagonalization with overlap
     ethr =  4.94E-06,  avg # of iterations =  4.0

     total cpu time spent up to now is        2.8 secs

     total energy              =    -329.47056088 Ry
     Harris-Foulkes estimate   =    -329.47172020 Ry
     estimated scf accuracy    <       0.00322025 Ry

     iteration #  6     ecut=    30.00 Ry     beta=0.70
     Davidson diagonalization with overlap
     ethr =  4.94E-06,  avg # of iterations =  2.0

     total cpu time spent up to now is        3.1 secs

     total energy              =    -329.47105739 Ry
     Harris-Foulkes estimate   =    -329.47125171 Ry
     estimated scf accuracy    <       0.00050581 Ry

     iteration #  7     ecut=    30.00 Ry     beta=0.70
     Davidson diagonalization with overlap
     ethr =  9.20E-07,  avg # of iterations =  2.0

     total cpu time spent up to now is        3.3 secs

     total energy              =    -329.47115265 Ry
     Harris-Foulkes estimate   =    -329.47116480 Ry
     estimated scf accuracy    <       0.00003239 Ry

     iteration #  8     ecut=    30.00 Ry     beta=0.70
     Davidson diagonalization with overlap
     ethr =  5.89E-08,  avg # of iterations =  3.0

     total cpu time spent up to now is        3.6 secs

     total energy              =    -329.47116038 Ry
     Harris-Foulkes estimate   =    -329.47116447 Ry
     estimated scf accuracy    <       0.00000860 Ry

     iteration #  9     ecut=    30.00 Ry     beta=0.70
     Davidson diagonalization with overlap
     ethr =  1.56E-08,  avg # of iterations =  2.0

     total cpu time spent up to now is        4.1 secs

     total energy              =    -329.47116183 Ry
     Harris-Foulkes estimate   =    -329.47116267 Ry
     estimated scf accuracy    <       0.00000107 Ry

     iteration # 10     ecut=    30.00 Ry     beta=0.70
     Davidson diagonalization with overlap
     ethr =  1.94E-09,  avg # of iterations =  2.0

     total cpu time spent up to now is        4.4 secs

     total energy              =    -329.47116187 Ry
     Harris-Foulkes estimate   =    -329.47116219 Ry
     estimated scf accuracy    <       0.00000035 Ry

     iteration # 11     ecut=    30.00 Ry     beta=0.70
     Davidson diagonalization with overlap
     ethr =  6.28E-10,  avg # of iterations =  2.0

     total cpu time spent up to now is        4.7 secs

     total energy              =    -329.47116194 Ry
     Harris-Foulkes estimate   =    -329.47116194 Ry
     estimated scf accuracy    <       0.00000002 Ry

     iteration # 12     ecut=    30.00 Ry     beta=0.70
     Davidson diagonalization with overlap
     ethr =  3.63E-11,  avg # of iterations =  3.0

     total cpu time spent up to now is        5.0 secs

     End of self-consistent calculation

          k = 0.0000 0.0000 0.0000 ( 22119 PWs)   bands (ev):

    -8.0178  -7.4926  -7.4580  -7.1177  -6.8827  -6.7827  -6.5521  -6.3060
    -6.1500  -6.0750  -5.7834  -5.6646  -5.6258  -5.5789  -5.4953  -5.3716
    -5.3208  -5.2436  -5.2057  -5.1974  -5.1292  -5.0817  -5.0325  -4.9688
    -4.8288  -4.6962  -4.3943  -3.7728  -2.7586  -2.2129  -0.4468  -0.2014
     0.4618   0.6596

     the Fermi energy is    -3.7517 ev

!    total energy              =    -329.47116193 Ry
     Harris-Foulkes estimate   =    -329.47116195 Ry
     estimated scf accuracy    <          8.3E-09 Ry

     The total energy is the sum of the following terms:

     one-electron contribution =    -597.46739311 Ry
     hartree contribution      =     320.28758251 Ry
     xc contribution           =     -51.36389119 Ry
     ewald contribution        =      -0.92551216 Ry
     smearing contrib. (-TS)   =      -0.00194798 Ry

     convergence has been achieved in  12 iterations

     Forces acting on atoms (Ry/au):

     atom    1 type  1   force =     0.03001189   -0.00025195    0.00217444
     atom    2 type  1   force =     0.00152188    0.00017737   -0.01504910
     atom    3 type  1   force =    -0.02585598    0.00399464    0.02502795
     atom    4 type  1   force =    -0.00132216   -0.00195502    0.00019176
     atom    5 type  1   force =    -0.00435563   -0.00196505   -0.01234506

     Total force =     0.051245     Total SCF correction =     0.000353

     BFGS Geometry Optimization

     number of scf cycles    =   1
     number of bfgs steps    =   0

     energy   new            =    -329.4711619322 Ry

     new trust radius        =       0.0362061739 bohr
     new conv_thr            =       0.0000000100 Ry


ATOMIC_POSITIONS (bohr)
Au      -2.330371107   1.613676053  -0.031134556
Au      -0.423256124   2.382181375   4.634915901
Au       3.079520023   1.443169638   0.202658951
Au       4.396375840   3.961698979   5.236648763
Au       7.709773367   1.363118955   2.456114941



     Writing output data file pwscf.save
     Check: negative starting charge=   -0.006435
     NEW-OLD atomic charge density approx. for the potential
     Check: negative starting charge=   -0.006435

     negative rho (up, down):  2.053E-04 0.000E+00

     total cpu time spent up to now is        5.3 secs

     per-process dynamical memory:    42.9 Mb

     Self-consistent Calculation

     iteration #  1     ecut=    30.00 Ry     beta=0.70
     Davidson diagonalization with overlap
     ethr =  1.00E-06,  avg # of iterations =  4.0

     negative rho (up, down):  3.987E-06 0.000E+00

     total cpu time spent up to now is        5.8 secs

     total energy              =    -329.47356638 Ry
     Harris-Foulkes estimate   =    -329.47357145 Ry
     estimated scf accuracy    <       0.00017349 Ry

     iteration #  2     ecut=    30.00 Ry     beta=0.70
     Davidson diagonalization with overlap
     ethr =  3.15E-07,  avg # of iterations =  3.0

     negative rho (up, down):  1.025E-06 0.000E+00

     total cpu time spent up to now is        6.1 secs

     total energy              =    -329.47353131 Ry
     Harris-Foulkes estimate   =    -329.47373209 Ry
     estimated scf accuracy    <       0.00053542 Ry

     iteration #  3     ecut=    30.00 Ry     beta=0.70
     Davidson diagonalization with overlap
     ethr =  3.15E-07,  avg # of iterations =  2.0

     total cpu time spent up to now is        6.4 secs

     total energy              =    -329.47363337 Ry
     Harris-Foulkes estimate   =    -329.47364743 Ry
     estimated scf accuracy    <       0.00004838 Ry

     iteration #  4     ecut=    30.00 Ry     beta=0.70
     Davidson diagonalization with overlap
     ethr =  8.80E-08,  avg # of iterations =  2.0

     total cpu time spent up to now is        6.6 secs

     total energy              =    -329.47364236 Ry
     Harris-Foulkes estimate   =    -329.47364493 Ry
     estimated scf accuracy    <       0.00000734 Ry

     iteration #  5     ecut=    30.00 Ry     beta=0.70
     Davidson diagonalization with overlap
     ethr =  1.34E-08,  avg # of iterations =  2.0

     total cpu time spent up to now is        6.9 secs

     total energy              =    -329.47364371 Ry
     Harris-Foulkes estimate   =    -329.47364440 Ry
     estimated scf accuracy    <       0.00000133 Ry

     iteration #  6     ecut=    30.00 Ry     beta=0.70
     Davidson diagonalization with overlap
     ethr =  2.42E-09,  avg # of iterations =  2.0

     total cpu time spent up to now is        7.2 secs

     total energy              =    -329.47364404 Ry
     Harris-Foulkes estimate   =    -329.47364407 Ry
     estimated scf accuracy    <       0.00000023 Ry

     iteration #  7     ecut=    30.00 Ry     beta=0.70
     Davidson diagonalization with overlap
     ethr =  4.12E-10,  avg # of iterations =  2.0

     total cpu time spent up to now is        7.4 secs

     total energy              =    -329.47364397 Ry
     Harris-Foulkes estimate   =    -329.47364411 Ry
     estimated scf accuracy    <       0.00000004 Ry

     iteration #  8     ecut=    30.00 Ry     beta=0.70
     Davidson diagonalization with overlap
     ethr =  7.73E-11,  avg # of iterations =  2.0

     total cpu time spent up to now is        7.6 secs

     End of self-consistent calculation

          k = 0.0000 0.0000 0.0000 ( 22119 PWs)   bands (ev):

    -8.0483  -7.5332  -7.4767  -7.1396  -6.9064  -6.7993  -6.5598  -6.3394
    -6.1634  -6.0799  -5.7967  -5.6768  -5.6430  -5.5919  -5.5026  -5.3691
    -5.3232  -5.2488  -5.2021  -5.1989  -5.1338  -5.0828  -5.0382  -4.9703
    -4.8287  -4.6849  -4.3974  -3.7634  -2.7390  -2.2075  -0.4511  -0.1974
     0.4709   0.6619

     the Fermi energy is    -3.7404 ev

!    total energy              =    -329.47364398 Ry
     Harris-Foulkes estimate   =    -329.47364398 Ry
     estimated scf accuracy    <          6.4E-09 Ry

     The total energy is the sum of the following terms:

     one-electron contribution =    -599.60780257 Ry
     hartree contribution      =     321.34214511 Ry
     xc contribution           =     -51.36956127 Ry
     ewald contribution        =       0.16390659 Ry
     smearing contrib. (-TS)   =      -0.00233184 Ry

     convergence has been achieved in   8 iterations

     Forces acting on atoms (Ry/au):

     atom    1 type  1   force =     0.02688704   -0.00093269   -0.00098975
     atom    2 type  1   force =     0.00159196    0.00081590   -0.01109792
     atom    3 type  1   force =    -0.02257653    0.00367225    0.02325319
     atom    4 type  1   force =    -0.00111229   -0.00193981    0.00072308
     atom    5 type  1   force =    -0.00479019   -0.00161565   -0.01188860

     Total force =     0.045689     Total SCF correction =     0.000301

     number of scf cycles    =   2
     number of bfgs steps    =   1

     energy   old            =    -329.4711619322 Ry
     energy   new            =    -329.4736439759 Ry

     CASE: energy  _new < energy  _old


     WARNING: bfgs curvature condition failed, Theta= 0.901
     new trust radius        =       0.0398267913 bohr
     new conv_thr            =       0.0000000025 Ry


ATOMIC_POSITIONS (bohr)
Au      -2.297504627   1.612698187  -0.031670216
Au      -0.421362572   2.383027950   4.620802731
Au       3.051787896   1.447637094   0.230892695
Au       4.394999616   3.959370996   5.237406135
Au       7.704121688   1.361110773   2.441772655



     Writing output data file pwscf.save
     Check: negative starting charge=   -0.006435
     NEW-OLD atomic charge density approx. for the potential
     Check: negative starting charge=   -0.006429

     negative rho (up, down):  2.522E-04 0.000E+00

     total cpu time spent up to now is        7.9 secs

     per-process dynamical memory:    50.7 Mb

     Self-consistent Calculation

     iteration #  1     ecut=    30.00 Ry     beta=0.70
     Davidson diagonalization with overlap
     ethr =  1.00E-06,  avg # of iterations =  4.0

     negative rho (up, down):  5.954E-06 0.000E+00

     total cpu time spent up to now is        8.5 secs

     total energy              =    -329.47592006 Ry
     Harris-Foulkes estimate   =    -329.47590045 Ry
     estimated scf accuracy    <       0.00019662 Ry

     iteration #  2     ecut=    30.00 Ry     beta=0.70
     Davidson diagonalization with overlap
     ethr =  3.57E-07,  avg # of iterations =  3.0

     negative rho (up, down):  1.544E-06 0.000E+00

     total cpu time spent up to now is        8.8 secs

     total energy              =    -329.47588678 Ry
     Harris-Foulkes estimate   =    -329.47609236 Ry
     estimated scf accuracy    <       0.00052975 Ry

     iteration #  3     ecut=    30.00 Ry     beta=0.70
     Davidson diagonalization with overlap
     ethr =  3.57E-07,  avg # of iterations =  2.0

     negative rho (up, down):  1.560E-08 0.000E+00

     total cpu time spent up to now is        9.1 secs

     total energy              =    -329.47599098 Ry
     Harris-Foulkes estimate   =    -329.47601000 Ry
     estimated scf accuracy    <       0.00006226 Ry

     iteration #  4     ecut=    30.00 Ry     beta=0.70
     Davidson diagonalization with overlap
     ethr =  1.13E-07,  avg # of iterations =  2.0

     total cpu time spent up to now is        9.4 secs

     total energy              =    -329.47600294 Ry
     Harris-Foulkes estimate   =    -329.47600519 Ry
     estimated scf accuracy    <       0.00000792 Ry

     iteration #  5     ecut=    30.00 Ry     beta=0.70
     Davidson diagonalization with overlap
     ethr =  1.44E-08,  avg # of iterations =  2.0

     total cpu time spent up to now is        9.7 secs

     total energy              =    -329.47600481 Ry
     Harris-Foulkes estimate   =    -329.47600516 Ry
     estimated scf accuracy    <       0.00000143 Ry

     iteration #  6     ecut=    30.00 Ry     beta=0.70
     Davidson diagonalization with overlap
     ethr =  2.60E-09,  avg # of iterations =  2.0

     total cpu time spent up to now is        9.9 secs

     total energy              =    -329.47600514 Ry
     Harris-Foulkes estimate   =    -329.47600519 Ry
     estimated scf accuracy    <       0.00000024 Ry

     iteration #  7     ecut=    30.00 Ry     beta=0.70
     Davidson diagonalization with overlap
     ethr =  4.27E-10,  avg # of iterations =  2.0

     total cpu time spent up to now is       10.2 secs

     total energy              =    -329.47600517 Ry
     Harris-Foulkes estimate   =    -329.47600521 Ry
     estimated scf accuracy    <       0.00000005 Ry

     iteration #  8     ecut=    30.00 Ry     beta=0.70
     Davidson diagonalization with overlap
     ethr =  9.66E-11,  avg # of iterations =  2.0

     total cpu time spent up to now is       10.5 secs

     total energy              =    -329.47600514 Ry
     Harris-Foulkes estimate   =    -329.47600518 Ry
     estimated scf accuracy    <          6.2E-09 Ry

     iteration #  9     ecut=    30.00 Ry     beta=0.70
     Davidson diagonalization with overlap
     ethr =  1.13E-11,  avg # of iterations =  3.0

     total cpu time spent up to now is       10.8 secs

     End of self-consistent calculation

          k = 0.0000 0.0000 0.0000 ( 22119 PWs)   bands (ev):

    -8.0877  -7.5758  -7.4994  -7.1621  -6.9326  -6.8137  -6.5724  -6.3736
    -6.1778  -6.0835  -5.8119  -5.6903  -5.6609  -5.6052  -5.5096  -5.3656
    -5.3243  -5.2561  -5.1994  -5.1982  -5.1389  -5.0851  -5.0406  -4.9717
    -4.8282  -4.6721  -4.4003  -3.7542  -2.7164  -2.2023  -0.4560  -0.1933
     0.4807   0.6657

     the Fermi energy is    -3.7294 ev

!    total energy              =    -329.47600514 Ry
     Harris-Foulkes estimate   =    -329.47600514 Ry
     estimated scf accuracy    <          1.6E-09 Ry

     The total energy is the sum of the following terms:

     one-electron contribution =    -601.90098345 Ry
     hartree contribution      =     322.47156628 Ry
     xc contribution           =     -51.37589629 Ry
     ewald contribution        =       1.33199792 Ry
     smearing contrib. (-TS)   =      -0.00268960 Ry

     convergence has been achieved in   9 iterations

     Forces acting on atoms (Ry/au):

     atom    1 type  1   force =     0.02256663   -0.00198763   -0.00423197
     atom    2 type  1   force =     0.00158210    0.00143724   -0.00695656
     atom    3 type  1   force =    -0.01867260    0.00373635    0.02087133
     atom    4 type  1   force =    -0.00058922   -0.00192246    0.00141858
     atom    5 type  1   force =    -0.00488691   -0.00126350   -0.01110137

     Total force =     0.039206     Total SCF correction =     0.000167

     number of scf cycles    =   3
     number of bfgs steps    =   2

     energy   old            =    -329.4736439759 Ry
     energy   new            =    -329.4760051398 Ry

     CASE: energy  _new < energy  _old

     new trust radius        =       0.0597401870 bohr
     new conv_thr            =       0.0000000023 Ry


ATOMIC_POSITIONS (bohr)
Au      -2.249348686   1.609369097  -0.037720266
Au      -0.418208926   2.385432478   4.603741878
Au       3.011549628   1.455239675   0.274389505
Au       4.393537316   3.955498208   5.239786369
Au       7.694512669   1.358305542   2.419006514



     Writing output data file pwscf.save
     Check: negative starting charge=   -0.006429
     NEW-OLD atomic charge density approx. for the potential
     Check: negative starting charge=   -0.006416

     negative rho (up, down):  5.760E-04 0.000E+00

     total cpu time spent up to now is       11.1 secs

     per-process dynamical memory:    50.7 Mb

     Self-consistent Calculation

     iteration #  1     ecut=    30.00 Ry     beta=0.70
     Davidson diagonalization with overlap
     ethr =  1.00E-06,  avg # of iterations =  5.0

     negative rho (up, down):  2.615E-05 0.000E+00

     total cpu time spent up to now is       11.6 secs

     total energy              =    -329.47867209 Ry
     Harris-Foulkes estimate   =    -329.47843952 Ry
     estimated scf accuracy    <       0.00041481 Ry

     iteration #  2     ecut=    30.00 Ry     beta=0.70
     Davidson diagonalization with overlap
     ethr =  7.54E-07,  avg # of iterations =  4.0

     negative rho (up, down):  8.440E-06 0.000E+00

     total cpu time spent up to now is       11.9 secs

     total energy              =    -329.47861953 Ry
     Harris-Foulkes estimate   =    -329.47899756 Ry
     estimated scf accuracy    <       0.00093354 Ry

     iteration #  3     ecut=    30.00 Ry     beta=0.70
     Davidson diagonalization with overlap
     ethr =  7.54E-07,  avg # of iterations =  2.0

     negative rho (up, down):  2.313E-07 0.000E+00

     total cpu time spent up to now is       12.2 secs

     total energy              =    -329.47881082 Ry
     Harris-Foulkes estimate   =    -329.47885867 Ry
     estimated scf accuracy    <       0.00015358 Ry

     iteration #  4     ecut=    30.00 Ry     beta=0.70
     Davidson diagonalization with overlap
     ethr =  2.79E-07,  avg # of iterations =  2.0

     total cpu time spent up to now is       12.5 secs

     total energy              =    -329.47884013 Ry
     Harris-Foulkes estimate   =    -329.47884434 Ry
     estimated scf accuracy    <       0.00001549 Ry

     iteration #  5     ecut=    30.00 Ry     beta=0.70
     Davidson diagonalization with overlap
     ethr =  2.82E-08,  avg # of iterations =  2.0

     total cpu time spent up to now is       12.8 secs

     total energy              =    -329.47884344 Ry
     Harris-Foulkes estimate   =    -329.47884454 Ry
     estimated scf accuracy    <       0.00000296 Ry

     iteration #  6     ecut=    30.00 Ry     beta=0.70
     Davidson diagonalization with overlap
     ethr =  5.38E-09,  avg # of iterations =  2.0

     total cpu time spent up to now is       13.1 secs

     total energy              =    -329.47884402 Ry
     Harris-Foulkes estimate   =    -329.47884422 Ry
     estimated scf accuracy    <       0.00000046 Ry

     iteration #  7     ecut=    30.00 Ry     beta=0.70
     Davidson diagonalization with overlap
     ethr =  8.34E-10,  avg # of iterations =  2.0

     total cpu time spent up to now is       13.3 secs

     total energy              =    -329.47884398 Ry
     Harris-Foulkes estimate   =    -329.47884416 Ry
     estimated scf accuracy    <       0.00000012 Ry

     iteration #  8     ecut=    30.00 Ry     beta=0.70
     Davidson diagonalization with overlap
     ethr =  2.22E-10,  avg # of iterations =  2.0

     total cpu time spent up to now is       13.6 secs

     total energy              =    -329.47884396 Ry
     Harris-Foulkes estimate   =    -329.47884401 Ry
     estimated scf accuracy    <          7.9E-09 Ry

     iteration #  9     ecut=    30.00 Ry     beta=0.70
     Davidson diagonalization with overlap
     ethr =  1.44E-11,  avg # of iterations =  3.0

     total cpu time spent up to now is       13.9 secs

     total energy              =    -329.47884394 Ry
     Harris-Foulkes estimate   =    -329.47884396 Ry
     estimated scf accuracy    <          2.7E-09 Ry

     iteration # 10     ecut=    30.00 Ry     beta=0.70
     Davidson diagonalization with overlap
     ethr =  4.98E-12,  avg # of iterations =  2.0

     total cpu time spent up to now is       14.2 secs

     End of self-consistent calculation

          k = 0.0000 0.0000 0.0000 ( 22119 PWs)   bands (ev):

    -8.1568  -7.6345  -7.5362  -7.1946  -6.9698  -6.8284  -6.6018  -6.4172
    -6.1977  -6.0872  -5.8352  -5.7094  -5.6859  -5.6244  -5.5184  -5.3599
    -5.3251  -5.2671  -5.1988  -5.1943  -5.1463  -5.0903  -5.0369  -4.9736
    -4.8273  -4.6530  -4.4047  -3.7425  -2.6813  -2.1965  -0.4634  -0.1878
     0.4945   0.6733

     the Fermi energy is    -3.7154 ev

!    total energy              =    -329.47884392 Ry
     Harris-Foulkes estimate   =    -329.47884394 Ry
     estimated scf accuracy    <          3.8E-10 Ry

     The total energy is the sum of the following terms:

     one-electron contribution =    -605.18534119 Ry
     hartree contribution      =     324.08926136 Ry
     xc contribution           =     -51.38555318 Ry
     ewald contribution        =       3.00591779 Ry
     smearing contrib. (-TS)   =      -0.00312870 Ry

     convergence has been achieved in  10 iterations

     Forces acting on atoms (Ry/au):

     atom    1 type  1   force =     0.01516192   -0.00344030   -0.00875474
     atom    2 type  1   force =     0.00133550    0.00268566   -0.00149995
     atom    3 type  1   force =    -0.01229437    0.00267541    0.01795221
     atom    4 type  1   force =     0.00055442   -0.00145294    0.00232628
     atom    5 type  1   force =    -0.00475747   -0.00046783   -0.01002380

     Total force =     0.030682     Total SCF correction =     0.000085

     number of scf cycles    =   4
     number of bfgs steps    =   3

     energy   old            =    -329.4760051398 Ry
     energy   new            =    -329.4788439169 Ry

     CASE: energy  _new < energy  _old

     new trust radius        =       0.0896102805 bohr
     new conv_thr            =       0.0000000018 Ry


ATOMIC_POSITIONS (bohr)
Au      -2.181001538   1.601209493  -0.055781764
Au      -0.413332039   2.391688644   4.584356727
Au       2.954732552   1.466170255   0.342817165
Au       4.393099629   3.949806155   5.245383875
Au       7.678543395   1.354970452   2.382427997



     Writing output data file pwscf.save
     Check: negative starting charge=   -0.006416
     NEW-OLD atomic charge density approx. for the potential
     Check: negative starting charge=   -0.006412

     negative rho (up, down):  1.193E-03 0.000E+00

     total cpu time spent up to now is       14.5 secs

     per-process dynamical memory:    50.7 Mb

     Self-consistent Calculation

     iteration #  1     ecut=    30.00 Ry     beta=0.70
     Davidson diagonalization with overlap
     ethr =  1.00E-06,  avg # of iterations =  9.0

     negative rho (up, down):  8.560E-05 0.000E+00

     total cpu time spent up to now is       15.2 secs

     total energy              =    -329.48122269 Ry
     Harris-Foulkes estimate   =    -329.48045480 Ry
     estimated scf accuracy    <       0.00086723 Ry

     iteration #  2     ecut=    30.00 Ry     beta=0.70
     Davidson diagonalization with overlap
     ethr =  1.58E-06,  avg # of iterations =  6.0

     negative rho (up, down):  3.066E-05 0.000E+00

     total cpu time spent up to now is       15.5 secs

     total energy              =    -329.48116281 Ry
     Harris-Foulkes estimate   =    -329.48179665 Ry
     estimated scf accuracy    <       0.00148058 Ry

     iteration #  3     ecut=    30.00 Ry     beta=0.70
     Davidson diagonalization with overlap
     ethr =  1.58E-06,  avg # of iterations =  3.0

     negative rho (up, down):  1.784E-06 0.000E+00

     total cpu time spent up to now is       15.8 secs

     total energy              =    -329.48148164 Ry
     Harris-Foulkes estimate   =    -329.48160355 Ry
     estimated scf accuracy    <       0.00038412 Ry

     iteration #  4     ecut=    30.00 Ry     beta=0.70
     Davidson diagonalization with overlap
     ethr =  6.98E-07,  avg # of iterations =  2.0

     total cpu time spent up to now is       16.0 secs

     total energy              =    -329.48155374 Ry
     Harris-Foulkes estimate   =    -329.48156068 Ry
     estimated scf accuracy    <       0.00002906 Ry

     iteration #  5     ecut=    30.00 Ry     beta=0.70
     Davidson diagonalization with overlap
     ethr =  5.28E-08,  avg # of iterations =  2.0

     total cpu time spent up to now is       16.3 secs

     total energy              =    -329.48155995 Ry
     Harris-Foulkes estimate   =    -329.48156213 Ry
     estimated scf accuracy    <       0.00000486 Ry

     iteration #  6     ecut=    30.00 Ry     beta=0.70
     Davidson diagonalization with overlap
     ethr =  8.84E-09,  avg # of iterations =  2.0

     total cpu time spent up to now is       16.6 secs

     total energy              =    -329.48156101 Ry
     Harris-Foulkes estimate   =    -329.48156115 Ry
     estimated scf accuracy    <       0.00000048 Ry

     iteration #  7     ecut=    30.00 Ry     beta=0.70
     Davidson diagonalization with overlap
     ethr =  8.74E-10,  avg # of iterations =  2.0

     total cpu time spent up to now is       16.9 secs

     total energy              =    -329.48156099 Ry
     Harris-Foulkes estimate   =    -329.48156118 Ry
     estimated scf accuracy    <       0.00000022 Ry

     iteration #  8     ecut=    30.00 Ry     beta=0.70
     Davidson diagonalization with overlap
     ethr =  4.02E-10,  avg # of iterations =  2.0

     total cpu time spent up to now is       17.1 secs

     total energy              =    -329.48156102 Ry
     Harris-Foulkes estimate   =    -329.48156105 Ry
     estimated scf accuracy    <       0.00000002 Ry

     iteration #  9     ecut=    30.00 Ry     beta=0.70
     Davidson diagonalization with overlap
     ethr =  4.41E-11,  avg # of iterations =  2.0

     total cpu time spent up to now is       17.4 secs

     total energy              =    -329.48156098 Ry
     Harris-Foulkes estimate   =    -329.48156103 Ry
     estimated scf accuracy    <          3.8E-09 Ry

     iteration # 10     ecut=    30.00 Ry     beta=0.70
     Davidson diagonalization with overlap
     ethr =  6.91E-12,  avg # of iterations =  2.0

     total cpu time spent up to now is       17.7 secs

     End of self-consistent calculation

          k = 0.0000 0.0000 0.0000 ( 22119 PWs)   bands (ev):

    -8.2777  -7.7140  -7.5946  -7.2433  -7.0162  -6.8376  -6.6676  -6.4664
    -6.2218  -6.0912  -5.8731  -5.7352  -5.7186  -5.6515  -5.5271  -5.3504
    -5.3306  -5.2754  -5.2015  -5.1923  -5.1552  -5.0963  -5.0219  -4.9767
    -4.8250  -4.6256  -4.4119  -3.7283  -2.6273  -2.1912  -0.4746  -0.1805
     0.5135   0.6886

     the Fermi energy is    -3.6988 ev

!    total energy              =    -329.48156094 Ry
     Harris-Foulkes estimate   =    -329.48156098 Ry
     estimated scf accuracy    <          9.7E-10 Ry

     The total energy is the sum of the following terms:

     one-electron contribution =    -609.78018695 Ry
     hartree contribution      =     326.35229472 Ry
     xc contribution           =     -51.40019512 Ry
     ewald contribution        =       5.35017294 Ry
     smearing contrib. (-TS)   =      -0.00364654 Ry

     convergence has been achieved in  10 iterations

     Forces acting on atoms (Ry/au):

     atom    1 type  1   force =     0.00312754   -0.00320235   -0.01244133
     atom    2 type  1   force =     0.00003537    0.00416501    0.00543193
     atom    3 type  1   force =    -0.00082530   -0.00018423    0.01225645
     atom    4 type  1   force =     0.00232346   -0.00090839    0.00377910
     atom    5 type  1   force =    -0.00466107    0.00012996   -0.00902616

     Total force =     0.022279     Total SCF correction =     0.000150

     number of scf cycles    =   5
     number of bfgs steps    =   4

     energy   old            =    -329.4788439169 Ry
     energy   new            =    -329.4815609403 Ry

     CASE: energy  _new < energy  _old

     new trust radius        =       0.0882877754 bohr
     new conv_thr            =       0.0000000012 Ry


ATOMIC_POSITIONS (bohr)
Au      -2.120270152   1.591092499  -0.086315677
Au      -0.409742666   2.402563759   4.574530580
Au       2.907004721   1.474168009   0.416660387
Au       4.396156787   3.943869854   5.255287023
Au       7.658893309   1.352150879   2.339041687



     Writing output data file pwscf.save
     Check: negative starting charge=   -0.006412
     NEW-OLD atomic charge density approx. for the potential
     Check: negative starting charge=   -0.006448

     negative rho (up, down):  1.210E-03 0.000E+00

     total cpu time spent up to now is       18.1 secs

     per-process dynamical memory:    50.7 Mb

     Self-consistent Calculation

     iteration #  1     ecut=    30.00 Ry     beta=0.70
     Davidson diagonalization with overlap
     ethr =  1.00E-06,  avg # of iterations = 10.0

     negative rho (up, down):  8.807E-05 0.000E+00

     total cpu time spent up to now is       18.8 secs

     total energy              =    -329.48257535 Ry
     Harris-Foulkes estimate   =    -329.48177189 Ry
     estimated scf accuracy    <       0.00085941 Ry

     iteration #  2     ecut=    30.00 Ry     beta=0.70
     Davidson diagonalization with overlap
     ethr =  1.56E-06,  avg # of iterations =  6.0

     negative rho (up, down):  2.439E-05 0.000E+00

     total cpu time spent up to now is       19.1 secs

     total energy              =    -329.48261171 Ry
     Harris-Foulkes estimate   =    -329.48302823 Ry
     estimated scf accuracy    <       0.00089500 Ry

     iteration #  3     ecut=    30.00 Ry     beta=0.70
     Davidson diagonalization with overlap
     ethr =  1.56E-06,  avg # of iterations =  2.0

     negative rho (up, down):  1.983E-06 0.000E+00

     total cpu time spent up to now is       19.4 secs

     total energy              =    -329.48280087 Ry
     Harris-Foulkes estimate   =    -329.48293659 Ry
     estimated scf accuracy    <       0.00040172 Ry

     iteration #  4     ecut=    30.00 Ry     beta=0.70
     Davidson diagonalization with overlap
     ethr =  7.30E-07,  avg # of iterations =  2.0

     total cpu time spent up to now is       19.6 secs

     total energy              =    -329.48287952 Ry
     Harris-Foulkes estimate   =    -329.48288634 Ry
     estimated scf accuracy    <       0.00003120 Ry

     iteration #  5     ecut=    30.00 Ry     beta=0.70
     Davidson diagonalization with overlap
     ethr =  5.67E-08,  avg # of iterations =  2.0

     total cpu time spent up to now is       19.9 secs

     total energy              =    -329.48288551 Ry
     Harris-Foulkes estimate   =    -329.48288733 Ry
     estimated scf accuracy    <       0.00000352 Ry

     iteration #  6     ecut=    30.00 Ry     beta=0.70
     Davidson diagonalization with overlap
     ethr =  6.39E-09,  avg # of iterations =  2.0

     total cpu time spent up to now is       20.2 secs

     total energy              =    -329.48288604 Ry
     Harris-Foulkes estimate   =    -329.48288641 Ry
     estimated scf accuracy    <       0.00000042 Ry

     iteration #  7     ecut=    30.00 Ry     beta=0.70
     Davidson diagonalization with overlap
     ethr =  7.57E-10,  avg # of iterations =  2.0

     total cpu time spent up to now is       20.5 secs

     total energy              =    -329.48288608 Ry
     Harris-Foulkes estimate   =    -329.48288617 Ry
     estimated scf accuracy    <       0.00000015 Ry

     iteration #  8     ecut=    30.00 Ry     beta=0.70
     Davidson diagonalization with overlap
     ethr =  2.70E-10,  avg # of iterations =  2.0

     total cpu time spent up to now is       20.8 secs

     total energy              =    -329.48288609 Ry
     Harris-Foulkes estimate   =    -329.48288613 Ry
     estimated scf accuracy    <       0.00000003 Ry

     iteration #  9     ecut=    30.00 Ry     beta=0.70
     Davidson diagonalization with overlap
     ethr =  4.65E-11,  avg # of iterations =  2.0

     total cpu time spent up to now is       21.1 secs

     total energy              =    -329.48288607 Ry
     Harris-Foulkes estimate   =    -329.48288610 Ry
     estimated scf accuracy    <          4.1E-09 Ry

     iteration # 10     ecut=    30.00 Ry     beta=0.70
     Davidson diagonalization with overlap
     ethr =  7.49E-12,  avg # of iterations =  3.0

     total cpu time spent up to now is       21.3 secs

     End of self-consistent calculation

          k = 0.0000 0.0000 0.0000 ( 22119 PWs)   bands (ev):

    -8.4040  -7.7834  -7.6523  -7.2832  -7.0462  -6.8294  -6.7432  -6.5053
    -6.2346  -6.0902  -5.9162  -5.7600  -5.7424  -5.6750  -5.5289  -5.3452
    -5.3397  -5.2691  -5.2092  -5.1967  -5.1582  -5.0981  -5.0022  -4.9783
    -4.8220  -4.6021  -4.4213  -3.7201  -2.5710  -2.1928  -0.4851  -0.1754
     0.5288   0.7102

     the Fermi energy is    -3.6888 ev

!    total energy              =    -329.48288604 Ry
     Harris-Foulkes estimate   =    -329.48288607 Ry
     estimated scf accuracy    <          1.1E-09 Ry

     The total energy is the sum of the following terms:

     one-electron contribution =    -613.68598253 Ry
     hartree contribution      =     328.27607759 Ry
     xc contribution           =     -51.41384536 Ry
     ewald contribution        =       7.34485717 Ry
     smearing contrib. (-TS)   =      -0.00399291 Ry

     convergence has been achieved in  10 iterations

     Forces acting on atoms (Ry/au):

     atom    1 type  1   force =    -0.00780383   -0.00323656   -0.01412777
     atom    2 type  1   force =    -0.00210553    0.00508078    0.00940078
     atom    3 type  1   force =     0.00906389   -0.00172642    0.00844211
     atom    4 type  1   force =     0.00415634   -0.00055442    0.00470882
     atom    5 type  1   force =    -0.00331086    0.00043662   -0.00842395

     Total force =     0.025843     Total SCF correction =     0.000135

     number of scf cycles    =   6
     number of bfgs steps    =   5

     energy   old            =    -329.4815609403 Ry
     energy   new            =    -329.4828860372 Ry

     CASE: energy  _new < energy  _old

     new trust radius        =       0.0559357724 bohr
     new conv_thr            =       0.0000000013 Ry


ATOMIC_POSITIONS (bohr)
Au      -2.093626783   1.582152576  -0.118194263
Au      -0.410579526   2.414348844   4.577604943
Au       2.889273871   1.476755549   0.469648425
Au       4.402745362   3.939797947   5.266147213
Au       7.644229077   1.350790085   2.303997681



     Writing output data file pwscf.save
     Check: negative starting charge=   -0.006448
     NEW-OLD atomic charge density approx. for the potential
     Check: negative starting charge=   -0.006474

     negative rho (up, down):  6.062E-04 0.000E+00

     total cpu time spent up to now is       21.7 secs

     per-process dynamical memory:    50.7 Mb

     Self-consistent Calculation

     iteration #  1     ecut=    30.00 Ry     beta=0.70
     Davidson diagonalization with overlap
     ethr =  1.00E-06,  avg # of iterations =  6.0

     negative rho (up, down):  2.890E-05 0.000E+00

     total cpu time spent up to now is       22.2 secs

     total energy              =    -329.48363086 Ry
     Harris-Foulkes estimate   =    -329.48336038 Ry
     estimated scf accuracy    <       0.00042445 Ry

     iteration #  2     ecut=    30.00 Ry     beta=0.70
     Davidson diagonalization with overlap
     ethr =  7.72E-07,  avg # of iterations =  5.0

     negative rho (up, down):  4.307E-06 0.000E+00

     total cpu time spent up to now is       22.5 secs

     total energy              =    -329.48368955 Ry
     Harris-Foulkes estimate   =    -329.48383833 Ry
     estimated scf accuracy    <       0.00030620 Ry

     iteration #  3     ecut=    30.00 Ry     beta=0.70
     Davidson diagonalization with overlap
     ethr =  5.57E-07,  avg # of iterations =  2.0

     negative rho (up, down):  1.934E-07 0.000E+00

     total cpu time spent up to now is       22.8 secs

     total energy              =    -329.48375146 Ry
     Harris-Foulkes estimate   =    -329.48379676 Ry
     estimated scf accuracy    <       0.00012117 Ry

     iteration #  4     ecut=    30.00 Ry     beta=0.70
     Davidson diagonalization with overlap
     ethr =  2.20E-07,  avg # of iterations =  2.0

     total cpu time spent up to now is       23.0 secs

     total energy              =    -329.48377810 Ry
     Harris-Foulkes estimate   =    -329.48378356 Ry
     estimated scf accuracy    <       0.00001931 Ry

     iteration #  5     ecut=    30.00 Ry     beta=0.70
     Davidson diagonalization with overlap
     ethr =  3.51E-08,  avg # of iterations =  2.0

     total cpu time spent up to now is       23.3 secs

     total energy              =    -329.48378113 Ry
     Harris-Foulkes estimate   =    -329.48378196 Ry
     estimated scf accuracy    <       0.00000187 Ry

     iteration #  6     ecut=    30.00 Ry     beta=0.70
     Davidson diagonalization with overlap
     ethr =  3.39E-09,  avg # of iterations =  2.0

     total cpu time spent up to now is       23.6 secs

     total energy              =    -329.48378147 Ry
     Harris-Foulkes estimate   =    -329.48378171 Ry
     estimated scf accuracy    <       0.00000038 Ry

     iteration #  7     ecut=    30.00 Ry     beta=0.70
     Davidson diagonalization with overlap
     ethr =  6.88E-10,  avg # of iterations =  2.0

     total cpu time spent up to now is       23.8 secs

     total energy              =    -329.48378147 Ry
     Harris-Foulkes estimate   =    -329.48378157 Ry
     estimated scf accuracy    <       0.00000006 Ry

     iteration #  8     ecut=    30.00 Ry     beta=0.70
     Davidson diagonalization with overlap
     ethr =  1.07E-10,  avg # of iterations =  2.0

     total cpu time spent up to now is       24.1 secs

     total energy              =    -329.48378145 Ry
     Harris-Foulkes estimate   =    -329.48378149 Ry
     estimated scf accuracy    <       0.00000001 Ry

     iteration #  9     ecut=    30.00 Ry     beta=0.70
     Davidson diagonalization with overlap
     ethr =  2.22E-11,  avg # of iterations =  2.0

     total cpu time spent up to now is       24.4 secs

     total energy              =    -329.48378146 Ry
     Harris-Foulkes estimate   =    -329.48378145 Ry
     estimated scf accuracy    <          1.6E-09 Ry

     iteration # 10     ecut=    30.00 Ry     beta=0.70
     Davidson diagonalization with overlap
     ethr =  2.88E-12,  avg # of iterations =  2.0

     total cpu time spent up to now is       24.6 secs

     End of self-consistent calculation

          k = 0.0000 0.0000 0.0000 ( 22119 PWs)   bands (ev):

    -8.4678  -7.8141  -7.6810  -7.2899  -7.0505  -6.8076  -6.7780  -6.5260
    -6.2316  -6.0794  -5.9479  -5.7686  -5.7535  -5.6868  -5.5245  -5.3574
    -5.3325  -5.2598  -5.2154  -5.2007  -5.1583  -5.0997  -4.9925  -4.9762
    -4.8212  -4.5936  -4.4314  -3.7210  -2.5361  -2.2027  -0.4904  -0.1743
     0.5335   0.7279

     the Fermi energy is    -3.6891 ev

!    total energy              =    -329.48378145 Ry
     Harris-Foulkes estimate   =    -329.48378146 Ry
     estimated scf accuracy    <          2.1E-10 Ry

     The total energy is the sum of the following terms:

     one-electron contribution =    -615.16376966 Ry
     hartree contribution      =     329.00349657 Ry
     xc contribution           =     -51.41911591 Ry
     ewald contribution        =       8.09974321 Ry
     smearing contrib. (-TS)   =      -0.00413566 Ry

     convergence has been achieved in  10 iterations

     Forces acting on atoms (Ry/au):

     atom    1 type  1   force =    -0.01049582   -0.00313518   -0.01288139
     atom    2 type  1   force =    -0.00411683    0.00534643    0.00879910
     atom    3 type  1   force =     0.01127478   -0.00276387    0.00600350
     atom    4 type  1   force =     0.00456061   -0.00032228    0.00514109
     atom    5 type  1   force =    -0.00122273    0.00087489   -0.00706230

     Total force =     0.026061     Total SCF correction =     0.000072

     number of scf cycles    =   7
     number of bfgs steps    =   6

     energy   old            =    -329.4828860372 Ry
     energy   new            =    -329.4837814516 Ry

     CASE: energy  _new < energy  _old

     new trust radius        =       0.0615293496 bohr
     new conv_thr            =       0.0000000009 Ry


ATOMIC_POSITIONS (bohr)
Au      -2.074856758   1.570219406  -0.161964872
Au      -0.416196326   2.431614565   4.587250032
Au       2.880524966   1.476445398   0.530551802
Au       4.413882148   3.935300937   5.282352851
Au       7.628687971   1.350264695   2.261014187



     Writing output data file pwscf.save
     Check: negative starting charge=   -0.006474
     NEW-OLD atomic charge density approx. for the potential
     Check: negative starting charge=   -0.006502

     negative rho (up, down):  8.134E-04 0.000E+00

     total cpu time spent up to now is       24.9 secs

     per-process dynamical memory:    50.7 Mb

     Self-consistent Calculation

     iteration #  1     ecut=    30.00 Ry     beta=0.70
     Davidson diagonalization with overlap
     ethr =  1.00E-06,  avg # of iterations =  8.0

     negative rho (up, down):  4.693E-05 0.000E+00

     total cpu time spent up to now is       25.5 secs

     total energy              =    -329.48460007 Ry
     Harris-Foulkes estimate   =    -329.48420602 Ry
     estimated scf accuracy    <       0.00063778 Ry

     iteration #  2     ecut=    30.00 Ry     beta=0.70
     Davidson diagonalization with overlap
     ethr =  1.16E-06,  avg # of iterations =  5.0

     negative rho (up, down):  9.759E-06 0.000E+00

     total cpu time spent up to now is       25.9 secs

     total energy              =    -329.48466781 Ry
     Harris-Foulkes estimate   =    -329.48494713 Ry
     estimated scf accuracy    <       0.00058315 Ry

     iteration #  3     ecut=    30.00 Ry     beta=0.70
     Davidson diagonalization with overlap
     ethr =  1.06E-06,  avg # of iterations =  2.0

     negative rho (up, down):  6.463E-07 0.000E+00

     total cpu time spent up to now is       26.2 secs

     total energy              =    -329.48479004 Ry
     Harris-Foulkes estimate   =    -329.48486446 Ry
     estimated scf accuracy    <       0.00020383 Ry

     iteration #  4     ecut=    30.00 Ry     beta=0.70
     Davidson diagonalization with overlap
     ethr =  3.71E-07,  avg # of iterations =  2.0

     total cpu time spent up to now is       26.4 secs

     total energy              =    -329.48483409 Ry
     Harris-Foulkes estimate   =    -329.48483760 Ry
     estimated scf accuracy    <       0.00001840 Ry

     iteration #  5     ecut=    30.00 Ry     beta=0.70
     Davidson diagonalization with overlap
     ethr =  3.35E-08,  avg # of iterations =  2.0

     total cpu time spent up to now is       26.7 secs

     total energy              =    -329.48483711 Ry
     Harris-Foulkes estimate   =    -329.48483826 Ry
     estimated scf accuracy    <       0.00000159 Ry

     iteration #  6     ecut=    30.00 Ry     beta=0.70
     Davidson diagonalization with overlap
     ethr =  2.90E-09,  avg # of iterations =  2.0

     total cpu time spent up to now is       27.0 secs

     total energy              =    -329.48483719 Ry
     Harris-Foulkes estimate   =    -329.48483757 Ry
     estimated scf accuracy    <       0.00000032 Ry

     iteration #  7     ecut=    30.00 Ry     beta=0.70
     Davidson diagonalization with overlap
     ethr =  5.90E-10,  avg # of iterations =  2.0

     total cpu time spent up to now is       27.2 secs

     total energy              =    -329.48483707 Ry
     Harris-Foulkes estimate   =    -329.48483728 Ry
     estimated scf accuracy    <       0.00000006 Ry

     iteration #  8     ecut=    30.00 Ry     beta=0.70
     Davidson diagonalization with overlap
     ethr =  1.07E-10,  avg # of iterations =  2.0

     total cpu time spent up to now is       27.6 secs

     total energy              =    -329.48483712 Ry
     Harris-Foulkes estimate   =    -329.48483709 Ry
     estimated scf accuracy    <       0.00000002 Ry

     iteration #  9     ecut=    30.00 Ry     beta=0.70
     Davidson diagonalization with overlap
     ethr =  3.82E-11,  avg # of iterations =  2.0

     total cpu time spent up to now is       27.8 secs

     total energy              =    -329.48483713 Ry
     Harris-Foulkes estimate   =    -329.48483713 Ry
     estimated scf accuracy    <          4.9E-09 Ry

     iteration # 10     ecut=    30.00 Ry     beta=0.70
     Davidson diagonalization with overlap
     ethr =  8.87E-12,  avg # of iterations =  2.0

     total cpu time spent up to now is       28.1 secs

     End of self-consistent calculation

          k = 0.0000 0.0000 0.0000 ( 22119 PWs)   bands (ev):

    -8.5186  -7.8332  -7.7043  -7.2773  -7.0432  -6.8016  -6.7699  -6.5430
    -6.2208  -6.0588  -5.9847  -5.7698  -5.7618  -5.6975  -5.5140  -5.3717
    -5.3249  -5.2496  -5.2216  -5.2040  -5.1571  -5.1026  -4.9895  -4.9675
    -4.8209  -4.5917  -4.4460  -3.7272  -2.5015  -2.2210  -0.4949  -0.1748
     0.5339   0.7496

     the Fermi energy is    -3.6946 ev

!    total energy              =    -329.48483710 Ry
     Harris-Foulkes estimate   =    -329.48483713 Ry
     estimated scf accuracy    <          4.2E-10 Ry

     The total energy is the sum of the following terms:

     one-electron contribution =    -615.76444235 Ry
     hartree contribution      =     329.29806102 Ry
     xc contribution           =     -51.42125073 Ry
     ewald contribution        =       8.40705049 Ry
     smearing contrib. (-TS)   =      -0.00425553 Ry

     convergence has been achieved in  10 iterations

     Forces acting on atoms (Ry/au):

     atom    1 type  1   force =    -0.00999983   -0.00256727   -0.00965451
     atom    2 type  1   force =    -0.00594254    0.00529466    0.00635885
     atom    3 type  1   force =     0.00905380   -0.00365477    0.00168190
     atom    4 type  1   force =     0.00459418   -0.00052269    0.00559790
     atom    5 type  1   force =     0.00229439    0.00145008   -0.00398414

     Total force =     0.021856     Total SCF correction =     0.000102

     number of scf cycles    =   8
     number of bfgs steps    =   7

     energy   old            =    -329.4837814516 Ry
     energy   new            =    -329.4848371038 Ry

     CASE: energy  _new < energy  _old

     new trust radius        =       0.0717905905 bohr
     new conv_thr            =       0.0000000010 Ry


ATOMIC_POSITIONS (bohr)
Au      -2.070321183   1.552658450  -0.227750601
Au      -0.433023239   2.460568142   4.608660351
Au       2.885059656   1.469275066   0.601839331
Au       4.434712093   3.929092825   5.310790604
Au       7.615614673   1.352250516   2.205664315



     Writing output data file pwscf.save
     Check: negative starting charge=   -0.006502
     NEW-OLD atomic charge density approx. for the potential
     Check: negative starting charge=   -0.006521

     negative rho (up, down):  1.317E-03 0.000E+00

     total cpu time spent up to now is       28.4 secs

     per-process dynamical memory:    50.7 Mb

     Self-consistent Calculation

     iteration #  1     ecut=    30.00 Ry     beta=0.70
     Davidson diagonalization with overlap
     ethr =  1.00E-06,  avg # of iterations = 10.0

     negative rho (up, down):  1.002E-04 0.000E+00

     total cpu time spent up to now is       29.0 secs

     total energy              =    -329.48529038 Ry
     Harris-Foulkes estimate   =    -329.48457913 Ry
     estimated scf accuracy    <       0.00121843 Ry

     iteration #  2     ecut=    30.00 Ry     beta=0.70
     Davidson diagonalization with overlap
     ethr =  2.22E-06,  avg # of iterations =  6.0

     negative rho (up, down):  3.116E-05 0.000E+00

     total cpu time spent up to now is       29.4 secs

     total energy              =    -329.48535782 Ry
     Harris-Foulkes estimate   =    -329.48606302 Ry
     estimated scf accuracy    <       0.00154250 Ry

     iteration #  3     ecut=    30.00 Ry     beta=0.70
     Davidson diagonalization with overlap
     ethr =  2.22E-06,  avg # of iterations =  2.0

     negative rho (up, down):  3.495E-06 0.000E+00

     total cpu time spent up to now is       29.7 secs

     total energy              =    -329.48568941 Ry
     Harris-Foulkes estimate   =    -329.48583373 Ry
     estimated scf accuracy    <       0.00041552 Ry

     iteration #  4     ecut=    30.00 Ry     beta=0.70
     Davidson diagonalization with overlap
     ethr =  7.55E-07,  avg # of iterations =  2.0

     total cpu time spent up to now is       30.0 secs

     total energy              =    -329.48577377 Ry
     Harris-Foulkes estimate   =    -329.48577923 Ry
     estimated scf accuracy    <       0.00002745 Ry

     iteration #  5     ecut=    30.00 Ry     beta=0.70
     Davidson diagonalization with overlap
     ethr =  4.99E-08,  avg # of iterations =  2.0

     total cpu time spent up to now is       30.3 secs

     total energy              =    -329.48577894 Ry
     Harris-Foulkes estimate   =    -329.48578214 Ry
     estimated scf accuracy    <       0.00000720 Ry

     iteration #  6     ecut=    30.00 Ry     beta=0.70
     Davidson diagonalization with overlap
     ethr =  1.31E-08,  avg # of iterations =  2.0

     total cpu time spent up to now is       30.5 secs

     total energy              =    -329.48578022 Ry
     Harris-Foulkes estimate   =    -329.48578060 Ry
     estimated scf accuracy    <       0.00000087 Ry

     iteration #  7     ecut=    30.00 Ry     beta=0.70
     Davidson diagonalization with overlap
     ethr =  1.58E-09,  avg # of iterations =  2.0

     total cpu time spent up to now is       30.8 secs

     total energy              =    -329.48578014 Ry
     Harris-Foulkes estimate   =    -329.48578046 Ry
     estimated scf accuracy    <       0.00000017 Ry

     iteration #  8     ecut=    30.00 Ry     beta=0.70
     Davidson diagonalization with overlap
     ethr =  3.05E-10,  avg # of iterations =  2.0

     total cpu time spent up to now is       31.1 secs

     total energy              =    -329.48578001 Ry
     Harris-Foulkes estimate   =    -329.48578019 Ry
     estimated scf accuracy    <       0.00000004 Ry

     iteration #  9     ecut=    30.00 Ry     beta=0.70
     Davidson diagonalization with overlap
     ethr =  6.74E-11,  avg # of iterations =  3.0

     total cpu time spent up to now is       31.4 secs

     total energy              =    -329.48578000 Ry
     Harris-Foulkes estimate   =    -329.48578003 Ry
     estimated scf accuracy    <       0.00000001 Ry

     iteration # 10     ecut=    30.00 Ry     beta=0.70
     Davidson diagonalization with overlap
     ethr =  2.04E-11,  avg # of iterations =  2.0

     total cpu time spent up to now is       31.6 secs

     total energy              =    -329.48578001 Ry
     Harris-Foulkes estimate   =    -329.48578000 Ry
     estimated scf accuracy    <          1.2E-09 Ry

     iteration # 11     ecut=    30.00 Ry     beta=0.70
     Davidson diagonalization with overlap
     ethr =  2.14E-12,  avg # of iterations =  2.0

     total cpu time spent up to now is       31.9 secs

     End of self-consistent calculation

          k = 0.0000 0.0000 0.0000 ( 22119 PWs)   bands (ev):

    -8.5437  -7.8234  -7.7078  -7.2309  -7.0134  -6.8069  -6.7038  -6.5421
    -6.1973  -6.0345  -6.0103  -5.7618  -5.7582  -5.7014  -5.4931  -5.3862
    -5.3166  -5.2460  -5.2246  -5.2067  -5.1513  -5.1077  -4.9916  -4.9562
    -4.8227  -4.6033  -4.4686  -3.7434  -2.4716  -2.2552  -0.4978  -0.1787
     0.5260   0.7771

     the Fermi energy is    -3.7104 ev

!    total energy              =    -329.48578000 Ry
     Harris-Foulkes estimate   =    -329.48578002 Ry
     estimated scf accuracy    <          9.5E-11 Ry

     The total energy is the sum of the following terms:

     one-electron contribution =    -614.42811997 Ry
     hartree contribution      =     328.63564955 Ry
     xc contribution           =     -51.41622905 Ry
     ewald contribution        =       7.72725910 Ry
     smearing contrib. (-TS)   =      -0.00433963 Ry

     convergence has been achieved in  11 iterations

     Forces acting on atoms (Ry/au):

     atom    1 type  1   force =    -0.00401354   -0.00134668   -0.00232966
     atom    2 type  1   force =    -0.00660489    0.00461417    0.00048840
     atom    3 type  1   force =    -0.00120092   -0.00363053   -0.00419957
     atom    4 type  1   force =     0.00372566   -0.00189763    0.00494994
     atom    5 type  1   force =     0.00809369    0.00226066    0.00109089

     Total force =     0.015315     Total SCF correction =     0.000049

     number of scf cycles    =   9
     number of bfgs steps    =   8

     energy   old            =    -329.4848371038 Ry
     energy   new            =    -329.4857800019 Ry

     CASE: energy  _new < energy  _old

     new trust radius        =       0.0159635904 bohr
     new conv_thr            =       0.0000000008 Ry


ATOMIC_POSITIONS (bohr)
Au      -2.082208010   1.549561729  -0.237946183
Au      -0.442855370   2.469014821   4.614966370
Au       2.891096947   1.463156611   0.599528385
Au       4.441817282   3.926748512   5.319526375
Au       7.624191150   1.355363328   2.203129052



     Writing output data file pwscf.save
     Check: negative starting charge=   -0.006521
     NEW-OLD atomic charge density approx. for the potential
     Check: negative starting charge=   -0.006513

     negative rho (up, down):  4.345E-05 0.000E+00

     total cpu time spent up to now is       32.2 secs

     per-process dynamical memory:    50.7 Mb

     Self-consistent Calculation

     iteration #  1     ecut=    30.00 Ry     beta=0.70
     Davidson diagonalization with overlap
     ethr =  1.00E-06,  avg # of iterations =  4.0

     Threshold (ethr) on eigenvalues was too large:
     Diagonalizing with lowered threshold

     Davidson diagonalization with overlap
     ethr =  7.87E-08,  avg # of iterations =  1.0

     negative rho (up, down):  1.412E-07 0.000E+00

     total cpu time spent up to now is       32.9 secs

     total energy              =    -329.48605332 Ry
     Harris-Foulkes estimate   =    -329.48605470 Ry
     estimated scf accuracy    <       0.00004352 Ry

     iteration #  2     ecut=    30.00 Ry     beta=0.70
     Davidson diagonalization with overlap
     ethr =  7.91E-08,  avg # of iterations =  3.0

     total cpu time spent up to now is       33.2 secs

     total energy              =    -329.48605466 Ry
     Harris-Foulkes estimate   =    -329.48608057 Ry
     estimated scf accuracy    <       0.00005880 Ry

     iteration #  3     ecut=    30.00 Ry     beta=0.70
     Davidson diagonalization with overlap
     ethr =  7.91E-08,  avg # of iterations =  2.0

     total cpu time spent up to now is       33.4 secs

     total energy              =    -329.48606736 Ry
     Harris-Foulkes estimate   =    -329.48607171 Ry
     estimated scf accuracy    <       0.00001334 Ry

     iteration #  4     ecut=    30.00 Ry     beta=0.70
     Davidson diagonalization with overlap
     ethr =  2.43E-08,  avg # of iterations =  2.0

     total cpu time spent up to now is       33.7 secs

     total energy              =    -329.48607015 Ry
     Harris-Foulkes estimate   =    -329.48607106 Ry
     estimated scf accuracy    <       0.00000264 Ry

     iteration #  5     ecut=    30.00 Ry     beta=0.70
     Davidson diagonalization with overlap
     ethr =  4.80E-09,  avg # of iterations =  2.0

     total cpu time spent up to now is       33.9 secs

     total energy              =    -329.48607058 Ry
     Harris-Foulkes estimate   =    -329.48607075 Ry
     estimated scf accuracy    <       0.00000028 Ry

     iteration #  6     ecut=    30.00 Ry     beta=0.70
     Davidson diagonalization with overlap
     ethr =  5.01E-10,  avg # of iterations =  2.0

     total cpu time spent up to now is       34.2 secs

     total energy              =    -329.48607065 Ry
     Harris-Foulkes estimate   =    -329.48607065 Ry
     estimated scf accuracy    <       0.00000003 Ry

     iteration #  7     ecut=    30.00 Ry     beta=0.70
     Davidson diagonalization with overlap
     ethr =  5.03E-11,  avg # of iterations =  2.0

     total cpu time spent up to now is       34.6 secs

     total energy              =    -329.48607073 Ry
     Harris-Foulkes estimate   =    -329.48607066 Ry
     estimated scf accuracy    <       0.00000001 Ry

     iteration #  8     ecut=    30.00 Ry     beta=0.70
     Davidson diagonalization with overlap
     ethr =  2.56E-11,  avg # of iterations =  2.0

     total cpu time spent up to now is       34.8 secs

     End of self-consistent calculation

          k = 0.0000 0.0000 0.0000 ( 22119 PWs)   bands (ev):

    -8.5152  -7.7965  -7.6807  -7.2108  -6.9934  -6.7913  -6.6876  -6.5237
    -6.1883  -6.0257  -6.0041  -5.7546  -5.7488  -5.6950  -5.4881  -5.3847
    -5.3165  -5.2463  -5.2249  -5.2063  -5.1500  -5.1106  -4.9932  -4.9601
    -4.8291  -4.6123  -4.4735  -3.7495  -2.4809  -2.2654  -0.4961  -0.1814
     0.5202   0.7781

     the Fermi energy is    -3.7165 ev

!    total energy              =    -329.48607075 Ry
     Harris-Foulkes estimate   =    -329.48607073 Ry
     estimated scf accuracy    <          3.9E-10 Ry

     The total energy is the sum of the following terms:

     one-electron contribution =    -612.79194935 Ry
     hartree contribution      =     327.82727552 Ry
     xc contribution           =     -51.40985663 Ry
     ewald contribution        =       6.89280092 Ry
     smearing contrib. (-TS)   =      -0.00434121 Ry

     convergence has been achieved in   8 iterations

     Forces acting on atoms (Ry/au):

     atom    1 type  1   force =    -0.00106908   -0.00102716   -0.00015440
     atom    2 type  1   force =    -0.00518776    0.00430775   -0.00186918
     atom    3 type  1   force =    -0.00388252   -0.00299073   -0.00303617
     atom    4 type  1   force =     0.00272292   -0.00288945    0.00371520
     atom    5 type  1   force =     0.00741643    0.00259959    0.00134455

     Total force =     0.013325     Total SCF correction =     0.000083

     number of scf cycles    =  10
     number of bfgs steps    =   9

     energy   old            =    -329.4857800019 Ry
     energy   new            =    -329.4860707484 Ry

     CASE: energy  _new < energy  _old

     new trust radius        =       0.0175599495 bohr
     new conv_thr            =       0.0000000003 Ry


ATOMIC_POSITIONS (bohr)
Au      -2.092586853   1.545758363  -0.247238356
Au      -0.455594961   2.480599945   4.618407234
Au       2.892213253   1.455319806   0.596306642
Au       4.450331202   3.921529250   5.330322147
Au       7.637679358   1.360637636   2.201406332



     Writing output data file pwscf.save
     Check: negative starting charge=   -0.006513
     NEW-OLD atomic charge density approx. for the potential
     Check: negative starting charge=   -0.006507

     negative rho (up, down):  6.818E-05 0.000E+00

     total cpu time spent up to now is       35.1 secs

     per-process dynamical memory:    50.7 Mb

     Self-consistent Calculation

     iteration #  1     ecut=    30.00 Ry     beta=0.70
     Davidson diagonalization with overlap
     ethr =  1.00E-06,  avg # of iterations =  4.0

     negative rho (up, down):  3.528E-07 0.000E+00

     total cpu time spent up to now is       35.5 secs

     total energy              =    -329.48633359 Ry
     Harris-Foulkes estimate   =    -329.48633907 Ry
     estimated scf accuracy    <       0.00006206 Ry

     iteration #  2     ecut=    30.00 Ry     beta=0.70
     Davidson diagonalization with overlap
     ethr =  1.13E-07,  avg # of iterations =  3.0

     total cpu time spent up to now is       35.9 secs

     total energy              =    -329.48634493 Ry
     Harris-Foulkes estimate   =    -329.48636560 Ry
     estimated scf accuracy    <       0.00004675 Ry

     iteration #  3     ecut=    30.00 Ry     beta=0.70
     Davidson diagonalization with overlap
     ethr =  8.50E-08,  avg # of iterations =  2.0

     total cpu time spent up to now is       36.1 secs

     total energy              =    -329.48635509 Ry
     Harris-Foulkes estimate   =    -329.48635730 Ry
     estimated scf accuracy    <       0.00000588 Ry

     iteration #  4     ecut=    30.00 Ry     beta=0.70
     Davidson diagonalization with overlap
     ethr =  1.07E-08,  avg # of iterations =  2.0

     total cpu time spent up to now is       36.4 secs

     total energy              =    -329.48635592 Ry
     Harris-Foulkes estimate   =    -329.48635831 Ry
     estimated scf accuracy    <       0.00000626 Ry

     iteration #  5     ecut=    30.00 Ry     beta=0.70
     Davidson diagonalization with overlap
     ethr =  1.07E-08,  avg # of iterations =  2.0

     total cpu time spent up to now is       36.7 secs

     total energy              =    -329.48635689 Ry
     Harris-Foulkes estimate   =    -329.48635713 Ry
     estimated scf accuracy    <       0.00000045 Ry

     iteration #  6     ecut=    30.00 Ry     beta=0.70
     Davidson diagonalization with overlap
     ethr =  8.19E-10,  avg # of iterations =  2.0

     total cpu time spent up to now is       37.0 secs

     total energy              =    -329.48635708 Ry
     Harris-Foulkes estimate   =    -329.48635700 Ry
     estimated scf accuracy    <       0.00000001 Ry

     iteration #  7     ecut=    30.00 Ry     beta=0.70
     Davidson diagonalization with overlap
     ethr =  2.55E-11,  avg # of iterations =  3.0

     total cpu time spent up to now is       37.3 secs

     total energy              =    -329.48635703 Ry
     Harris-Foulkes estimate   =    -329.48635708 Ry
     estimated scf accuracy    <          6.4E-09 Ry

     iteration #  8     ecut=    30.00 Ry     beta=0.70
     Davidson diagonalization with overlap
     ethr =  1.16E-11,  avg # of iterations =  2.0

     total cpu time spent up to now is       37.5 secs

     total energy              =    -329.48635703 Ry
     Harris-Foulkes estimate   =    -329.48635703 Ry
     estimated scf accuracy    <          1.8E-09 Ry

     iteration #  9     ecut=    30.00 Ry     beta=0.70
     Davidson diagonalization with overlap
     ethr =  3.19E-12,  avg # of iterations =  2.0

     total cpu time spent up to now is       37.7 secs

     End of self-consistent calculation

          k = 0.0000 0.0000 0.0000 ( 22119 PWs)   bands (ev):

    -8.4853  -7.7691  -7.6508  -7.1909  -6.9708  -6.7751  -6.6717  -6.5047
    -6.1802  -6.0178  -5.9964  -5.7479  -5.7391  -5.6903  -5.4821  -5.3840
    -5.3162  -5.2457  -5.2258  -5.2052  -5.1495  -5.1140  -4.9955  -4.9655
    -4.8368  -4.6216  -4.4792  -3.7548  -2.4925  -2.2749  -0.4951  -0.1838
     0.5144   0.7792

     the Fermi energy is    -3.7216 ev

!    total energy              =    -329.48635704 Ry
     Harris-Foulkes estimate   =    -329.48635703 Ry
     estimated scf accuracy    <          9.4E-11 Ry

     The total energy is the sum of the following terms:

     one-electron contribution =    -611.06919974 Ry
     hartree contribution      =     326.97572823 Ry
     xc contribution           =     -51.40320604 Ry
     ewald contribution        =       6.01471078 Ry
     smearing contrib. (-TS)   =      -0.00439027 Ry

     convergence has been achieved in   9 iterations

     Forces acting on atoms (Ry/au):

     atom    1 type  1   force =     0.00083432   -0.00074991    0.00147344
     atom    2 type  1   force =    -0.00350953    0.00407654   -0.00366205
     atom    3 type  1   force =    -0.00433905   -0.00223707   -0.00127452
     atom    4 type  1   force =     0.00151783   -0.00406771    0.00220532
     atom    5 type  1   force =     0.00549643    0.00297815    0.00125781

     Total force =     0.011645     Total SCF correction =     0.000046

     number of scf cycles    =  11
     number of bfgs steps    =  10

     energy   old            =    -329.4860707484 Ry
     energy   new            =    -329.4863570402 Ry

     CASE: energy  _new < energy  _old

     new trust radius        =       0.0263399242 bohr
     new conv_thr            =       0.0000000003 Ry


ATOMIC_POSITIONS (bohr)
Au      -2.101510044   1.539633430  -0.259618193
Au      -0.473839647   2.499593495   4.618817207
Au       2.888428910   1.444262757   0.596952478
Au       4.462149427   3.910399789   5.345864441
Au       7.656813354   1.369955528   2.197188067



     Writing output data file pwscf.save
     Check: negative starting charge=   -0.006507
     NEW-OLD atomic charge density approx. for the potential
     Check: negative starting charge=   -0.006507

     negative rho (up, down):  1.821E-04 0.000E+00

     total cpu time spent up to now is       38.1 secs

     per-process dynamical memory:    50.7 Mb

     Self-consistent Calculation

     iteration #  1     ecut=    30.00 Ry     beta=0.70
     Davidson diagonalization with overlap
     ethr =  1.00E-06,  avg # of iterations =  4.0

     negative rho (up, down):  2.668E-06 0.000E+00

     total cpu time spent up to now is       38.6 secs

     total energy              =    -329.48659784 Ry
     Harris-Foulkes estimate   =    -329.48661294 Ry
     estimated scf accuracy    <       0.00015281 Ry

     iteration #  2     ecut=    30.00 Ry     beta=0.70
     Davidson diagonalization with overlap
     ethr =  2.78E-07,  avg # of iterations =  3.0

     negative rho (up, down):  1.543E-07 0.000E+00

     total cpu time spent up to now is       38.9 secs

     total energy              =    -329.48662832 Ry
     Harris-Foulkes estimate   =    -329.48667957 Ry
     estimated scf accuracy    <       0.00011023 Ry

     iteration #  3     ecut=    30.00 Ry     beta=0.70
     Davidson diagonalization with overlap
     ethr =  2.00E-07,  avg # of iterations =  2.0

     total cpu time spent up to now is       39.2 secs

     total energy              =    -329.48665168 Ry
     Harris-Foulkes estimate   =    -329.48665512 Ry
     estimated scf accuracy    <       0.00000887 Ry

     iteration #  4     ecut=    30.00 Ry     beta=0.70
     Davidson diagonalization with overlap
     ethr =  1.61E-08,  avg # of iterations =  2.0

     total cpu time spent up to now is       39.5 secs

     total energy              =    -329.48665330 Ry
     Harris-Foulkes estimate   =    -329.48665742 Ry
     estimated scf accuracy    <       0.00001199 Ry

     iteration #  5     ecut=    30.00 Ry     beta=0.70
     Davidson diagonalization with overlap
     ethr =  1.61E-08,  avg # of iterations =  2.0

     total cpu time spent up to now is       39.7 secs

     total energy              =    -329.48665521 Ry
     Harris-Foulkes estimate   =    -329.48665560 Ry
     estimated scf accuracy    <       0.00000069 Ry

     iteration #  6     ecut=    30.00 Ry     beta=0.70
     Davidson diagonalization with overlap
     ethr =  1.26E-09,  avg # of iterations =  2.0

     total cpu time spent up to now is       40.0 secs

     total energy              =    -329.48665517 Ry
     Harris-Foulkes estimate   =    -329.48665539 Ry
     estimated scf accuracy    <       0.00000004 Ry

     iteration #  7     ecut=    30.00 Ry     beta=0.70
     Davidson diagonalization with overlap
     ethr =  6.55E-11,  avg # of iterations =  2.0

     total cpu time spent up to now is       40.3 secs

     total energy              =    -329.48665524 Ry
     Harris-Foulkes estimate   =    -329.48665519 Ry
     estimated scf accuracy    <       0.00000001 Ry

     iteration #  8     ecut=    30.00 Ry     beta=0.70
     Davidson diagonalization with overlap
     ethr =  2.33E-11,  avg # of iterations =  2.0

     total cpu time spent up to now is       40.6 secs

     total energy              =    -329.48665530 Ry
     Harris-Foulkes estimate   =    -329.48665524 Ry
     estimated scf accuracy    <          5.5E-09 Ry

     iteration #  9     ecut=    30.00 Ry     beta=0.70
     Davidson diagonalization with overlap
     ethr =  9.93E-12,  avg # of iterations =  2.0

     total cpu time spent up to now is       40.9 secs

     total energy              =    -329.48665530 Ry
     Harris-Foulkes estimate   =    -329.48665530 Ry
     estimated scf accuracy    <          3.1E-10 Ry

     iteration # 10     ecut=    30.00 Ry     beta=0.70
     Davidson diagonalization with overlap
     ethr =  5.63E-13,  avg # of iterations =  3.0

     total cpu time spent up to now is       41.1 secs

     End of self-consistent calculation

          k = 0.0000 0.0000 0.0000 ( 22119 PWs)   bands (ev):

    -8.4547  -7.7409  -7.6174  -7.1691  -6.9427  -6.7581  -6.6528  -6.4846
    -6.1725  -6.0118  -5.9862  -5.7422  -5.7275  -5.6876  -5.4732  -5.3857
    -5.3152  -5.2443  -5.2273  -5.2030  -5.1497  -5.1181  -4.9986  -4.9724
    -4.8461  -4.6325  -4.4872  -3.7601  -2.5059  -2.2854  -0.4953  -0.1861
     0.5081   0.7826

     the Fermi energy is    -3.7264 ev

!    total energy              =    -329.48665532 Ry
     Harris-Foulkes estimate   =    -329.48665531 Ry
     estimated scf accuracy    <          4.9E-11 Ry

     The total energy is the sum of the following terms:

     one-electron contribution =    -609.15133895 Ry
     hartree contribution      =     326.02679500 Ry
     xc contribution           =     -51.39585819 Ry
     ewald contribution        =       5.03825687 Ry
     smearing contrib. (-TS)   =      -0.00451005 Ry

     convergence has been achieved in  10 iterations

     Forces acting on atoms (Ry/au):

     atom    1 type  1   force =     0.00215060   -0.00046903    0.00307016
     atom    2 type  1   force =    -0.00134674    0.00378481   -0.00514896
     atom    3 type  1   force =    -0.00322307   -0.00121955    0.00080758
     atom    4 type  1   force =    -0.00015514   -0.00543679    0.00018019
     atom    5 type  1   force =     0.00257436    0.00334055    0.00109103

     Total force =     0.010865     Total SCF correction =     0.000033

     number of scf cycles    =  12
     number of bfgs steps    =  11

     energy   old            =    -329.4863570402 Ry
     energy   new            =    -329.4866553183 Ry

     CASE: energy  _new < energy  _old

     new trust radius        =       0.0392403232 bohr
     new conv_thr            =       0.0000000003 Ry


ATOMIC_POSITIONS (bohr)
Au      -2.107886429   1.530599557  -0.273055422
Au      -0.498516146   2.529425997   4.612422268
Au       2.878838617   1.429170832   0.602681795
Au       4.476789856   3.888456570   5.366044479
Au       7.682816102   1.386192045   2.191110880



     Writing output data file pwscf.save
     Check: negative starting charge=   -0.006507
     NEW-OLD atomic charge density approx. for the potential
     Check: negative starting charge=   -0.006512

     negative rho (up, down):  4.154E-04 0.000E+00

     total cpu time spent up to now is       41.5 secs

     per-process dynamical memory:    50.7 Mb

     Self-consistent Calculation

     iteration #  1     ecut=    30.00 Ry     beta=0.70
     Davidson diagonalization with overlap
     ethr =  1.00E-06,  avg # of iterations =  4.0

     negative rho (up, down):  1.326E-05 0.000E+00

     total cpu time spent up to now is       42.0 secs

     total energy              =    -329.48678822 Ry
     Harris-Foulkes estimate   =    -329.48675877 Ry
     estimated scf accuracy    <       0.00036096 Ry

     iteration #  2     ecut=    30.00 Ry     beta=0.70
     Davidson diagonalization with overlap
     ethr =  6.56E-07,  avg # of iterations =  3.0

     negative rho (up, down):  1.577E-06 0.000E+00

     total cpu time spent up to now is       42.3 secs

     total energy              =    -329.48685778 Ry
     Harris-Foulkes estimate   =    -329.48699364 Ry
     estimated scf accuracy    <       0.00028678 Ry

     iteration #  3     ecut=    30.00 Ry     beta=0.70
     Davidson diagonalization with overlap
     ethr =  5.21E-07,  avg # of iterations =  2.0

     negative rho (up, down):  2.147E-08 0.000E+00

     total cpu time spent up to now is       42.5 secs

     total energy              =    -329.48691275 Ry
     Harris-Foulkes estimate   =    -329.48693063 Ry
     estimated scf accuracy    <       0.00003914 Ry

     iteration #  4     ecut=    30.00 Ry     beta=0.70
     Davidson diagonalization with overlap
     ethr =  7.12E-08,  avg # of iterations =  2.0

     total cpu time spent up to now is       42.8 secs

     total energy              =    -329.48692164 Ry
     Harris-Foulkes estimate   =    -329.48693188 Ry
     estimated scf accuracy    <       0.00002961 Ry

     iteration #  5     ecut=    30.00 Ry     beta=0.70
     Davidson diagonalization with overlap
     ethr =  5.38E-08,  avg # of iterations =  1.0

     total cpu time spent up to now is       43.0 secs

     total energy              =    -329.48692632 Ry
     Harris-Foulkes estimate   =    -329.48692663 Ry
     estimated scf accuracy    <       0.00000105 Ry

     iteration #  6     ecut=    30.00 Ry     beta=0.70
     Davidson diagonalization with overlap
     ethr =  1.90E-09,  avg # of iterations =  3.0

     total cpu time spent up to now is       43.4 secs

     total energy              =    -329.48692652 Ry
     Harris-Foulkes estimate   =    -329.48692673 Ry
     estimated scf accuracy    <       0.00000014 Ry

     iteration #  7     ecut=    30.00 Ry     beta=0.70
     Davidson diagonalization with overlap
[...]

     negative rho (up, down):  3.476E-05 0.000E+00

     total cpu time spent up to now is      111.2 secs

     per-process dynamical memory:    50.7 Mb

     Self-consistent Calculation

     iteration #  1     ecut=    30.00 Ry     beta=0.70
     Davidson diagonalization with overlap
     ethr =  1.00E-06,  avg # of iterations =  4.0

     negative rho (up, down):  9.460E-08 0.000E+00

     total cpu time spent up to now is      111.7 secs

     total energy              =    -329.49056438 Ry
     Harris-Foulkes estimate   =    -329.49059300 Ry
     estimated scf accuracy    <       0.00006514 Ry

     iteration #  2     ecut=    30.00 Ry     beta=0.70
     Davidson diagonalization with overlap
     ethr =  1.18E-07,  avg # of iterations =  2.0

     total cpu time spent up to now is      112.0 secs

     total energy              =    -329.49057509 Ry
     Harris-Foulkes estimate   =    -329.49060257 Ry
     estimated scf accuracy    <       0.00005597 Ry

     iteration #  3     ecut=    30.00 Ry     beta=0.70
     Davidson diagonalization with overlap
     ethr =  1.02E-07,  avg # of iterations =  2.0

     total cpu time spent up to now is      112.2 secs

     total energy              =    -329.49058549 Ry
     Harris-Foulkes estimate   =    -329.49058924 Ry
     estimated scf accuracy    <       0.00000723 Ry

     iteration #  4     ecut=    30.00 Ry     beta=0.70
     Davidson diagonalization with overlap
     ethr =  1.31E-08,  avg # of iterations =  2.0

     total cpu time spent up to now is      112.5 secs

     total energy              =    -329.49058760 Ry
     Harris-Foulkes estimate   =    -329.49058872 Ry
     estimated scf accuracy    <       0.00000448 Ry

     iteration #  5     ecut=    30.00 Ry     beta=0.70
     Davidson diagonalization with overlap
     ethr =  8.14E-09,  avg # of iterations =  2.0

     total cpu time spent up to now is      112.7 secs

     total energy              =    -329.49058831 Ry
     Harris-Foulkes estimate   =    -329.49058838 Ry
     estimated scf accuracy    <       0.00000014 Ry

     iteration #  6     ecut=    30.00 Ry     beta=0.70
     Davidson diagonalization with overlap
     ethr =  2.60E-10,  avg # of iterations =  3.0

     total cpu time spent up to now is      113.0 secs

     total energy              =    -329.49058826 Ry
     Harris-Foulkes estimate   =    -329.49058837 Ry
     estimated scf accuracy    <       0.00000002 Ry

     iteration #  7     ecut=    30.00 Ry     beta=0.70
     Davidson diagonalization with overlap
     ethr =  2.86E-11,  avg # of iterations =  3.0

     total cpu time spent up to now is      113.3 secs

     total energy              =    -329.49058826 Ry
     Harris-Foulkes estimate   =    -329.49058826 Ry
     estimated scf accuracy    <          8.3E-09 Ry

     iteration #  8     ecut=    30.00 Ry     beta=0.70
     Davidson diagonalization with overlap
     ethr =  1.50E-11,  avg # of iterations =  2.0

     total cpu time spent up to now is      113.6 secs

     total energy              =    -329.49058825 Ry
     Harris-Foulkes estimate   =    -329.49058826 Ry
     estimated scf accuracy    <          4.2E-10 Ry

     iteration #  9     ecut=    30.00 Ry     beta=0.70
     Davidson diagonalization with overlap
     ethr =  7.62E-13,  avg # of iterations =  3.0

     total cpu time spent up to now is      113.8 secs

     End of self-consistent calculation

          k = 0.0000 0.0000 0.0000 ( 22119 PWs)   bands (ev):

    -8.5356  -7.8039  -7.6625  -7.2433  -6.8495  -6.8303  -6.6217  -6.4917
    -6.3071  -6.0843  -5.9595  -5.7778  -5.7372  -5.6911  -5.4632  -5.3631
    -5.3127  -5.2527  -5.2021  -5.1844  -5.1713  -5.1226  -4.9930  -4.9240
    -4.8304  -4.7367  -4.4790  -3.7893  -2.5315  -2.1820  -0.5779  -0.2058
     0.5606   0.9495

     the Fermi energy is    -3.7581 ev

!    total energy              =    -329.49058825 Ry
     Harris-Foulkes estimate   =    -329.49058825 Ry
     estimated scf accuracy    <          5.0E-11 Ry

     The total energy is the sum of the following terms:

     one-electron contribution =    -611.12234537 Ry
     hartree contribution      =     326.98766360 Ry
     xc contribution           =     -51.40736464 Ry
     ewald contribution        =       6.05547071 Ry
     smearing contrib. (-TS)   =      -0.00401254 Ry

     convergence has been achieved in   9 iterations

     Forces acting on atoms (Ry/au):

     atom    1 type  1   force =     0.00084256    0.00039783   -0.00015305
     atom    2 type  1   force =    -0.00034742   -0.00030890   -0.00080621
     atom    3 type  1   force =    -0.00138176    0.00062311    0.00005820
     atom    4 type  1   force =    -0.00118742    0.00041402    0.00132248
     atom    5 type  1   force =     0.00207405   -0.00112606   -0.00042142

     Total force =     0.003624     Total SCF correction =     0.000029

     number of scf cycles    =  33
     number of bfgs steps    =  32

     energy   old            =    -329.4905567614 Ry
     energy   new            =    -329.4905882499 Ry

     CASE: energy  _new < energy  _old

     new trust radius        =       0.0120461889 bohr
     new conv_thr            =            1.0E-10 Ry


ATOMIC_POSITIONS (bohr)
Au      -2.022410106   1.309024361  -0.271769463
Au      -0.646053632   3.060210565   4.403948009
Au       2.924948524   1.363237974   0.736922074
Au       4.400261925   3.376341070   5.556384457
Au       7.775295290   1.655031029   2.073718922



     Writing output data file pwscf.save
     Check: negative starting charge=   -0.006567
     NEW-OLD atomic charge density approx. for the potential
     Check: negative starting charge=   -0.006568

     negative rho (up, down):  1.046E-05 0.000E+00

     total cpu time spent up to now is      114.1 secs

     per-process dynamical memory:    50.7 Mb

     Self-consistent Calculation

     iteration #  1     ecut=    30.00 Ry     beta=0.70
     Davidson diagonalization with overlap
     ethr =  1.00E-06,  avg # of iterations =  4.0

     Threshold (ethr) on eigenvalues was too large:
     Diagonalizing with lowered threshold

     Davidson diagonalization with overlap
     ethr =  5.86E-08,  avg # of iterations =  1.0

     negative rho (up, down):  1.182E-08 0.000E+00

     total cpu time spent up to now is      114.7 secs

     total energy              =    -329.49059739 Ry
     Harris-Foulkes estimate   =    -329.49061374 Ry
     estimated scf accuracy    <       0.00003286 Ry

     iteration #  2     ecut=    30.00 Ry     beta=0.70
     Davidson diagonalization with overlap
     ethr =  5.97E-08,  avg # of iterations =  2.0

     total cpu time spent up to now is      115.1 secs

     total energy              =    -329.49059970 Ry
     Harris-Foulkes estimate   =    -329.49061970 Ry
     estimated scf accuracy    <       0.00004389 Ry

     iteration #  3     ecut=    30.00 Ry     beta=0.70
     Davidson diagonalization with overlap
     ethr =  5.97E-08,  avg # of iterations =  2.0

     total cpu time spent up to now is      115.4 secs

     total energy              =    -329.49060813 Ry
     Harris-Foulkes estimate   =    -329.49061174 Ry
     estimated scf accuracy    <       0.00000853 Ry

     iteration #  4     ecut=    30.00 Ry     beta=0.70
     Davidson diagonalization with overlap
     ethr =  1.55E-08,  avg # of iterations =  2.0

     total cpu time spent up to now is      115.7 secs

     total energy              =    -329.49061001 Ry
     Harris-Foulkes estimate   =    -329.49061034 Ry
     estimated scf accuracy    <       0.00000115 Ry

     iteration #  5     ecut=    30.00 Ry     beta=0.70
     Davidson diagonalization with overlap
     ethr =  2.08E-09,  avg # of iterations =  2.0

     total cpu time spent up to now is      116.1 secs

     total energy              =    -329.49061035 Ry
     Harris-Foulkes estimate   =    -329.49061028 Ry
     estimated scf accuracy    <       0.00000014 Ry

     iteration #  6     ecut=    30.00 Ry     beta=0.70
     Davidson diagonalization with overlap
     ethr =  2.50E-10,  avg # of iterations =  2.0

     total cpu time spent up to now is      116.5 secs

     total energy              =    -329.49061043 Ry
     Harris-Foulkes estimate   =    -329.49061039 Ry
     estimated scf accuracy    <          9.8E-09 Ry

     iteration #  7     ecut=    30.00 Ry     beta=0.70
     Davidson diagonalization with overlap
     ethr =  1.78E-11,  avg # of iterations =  2.0

     total cpu time spent up to now is      116.9 secs

     total energy              =    -329.49061041 Ry
     Harris-Foulkes estimate   =    -329.49061043 Ry
     estimated scf accuracy    <          4.2E-09 Ry

     iteration #  8     ecut=    30.00 Ry     beta=0.70
     Davidson diagonalization with overlap
     ethr =  7.65E-12,  avg # of iterations =  2.0

     total cpu time spent up to now is      117.3 secs

     total energy              =    -329.49061043 Ry
     Harris-Foulkes estimate   =    -329.49061041 Ry
     estimated scf accuracy    <          6.8E-10 Ry

     iteration #  9     ecut=    30.00 Ry     beta=0.70
     Davidson diagonalization with overlap
     ethr =  1.25E-12,  avg # of iterations =  2.0

     total cpu time spent up to now is      117.7 secs

     total energy              =    -329.49061041 Ry
     Harris-Foulkes estimate   =    -329.49061043 Ry
     estimated scf accuracy    <          1.9E-10 Ry

     iteration # 10     ecut=    30.00 Ry     beta=0.70
     Davidson diagonalization with overlap
     ethr =  3.47E-13,  avg # of iterations =  2.0

     total cpu time spent up to now is      117.9 secs

     End of self-consistent calculation

          k = 0.0000 0.0000 0.0000 ( 22119 PWs)   bands (ev):

    -8.5341  -7.8028  -7.6671  -7.2438  -6.8457  -6.8280  -6.6166  -6.4941
    -6.3083  -6.0851  -5.9551  -5.7766  -5.7354  -5.6913  -5.4666  -5.3621
    -5.3129  -5.2549  -5.2024  -5.1832  -5.1719  -5.1219  -4.9949  -4.9248
    -4.8273  -4.7388  -4.4813  -3.7896  -2.5335  -2.1822  -0.5783  -0.2043
     0.5604   0.9504

     the Fermi energy is    -3.7583 ev

!    total energy              =    -329.49061040 Ry
     Harris-Foulkes estimate   =    -329.49061041 Ry
     estimated scf accuracy    <          3.6E-12 Ry

     The total energy is the sum of the following terms:

     one-electron contribution =    -611.05418306 Ry
     hartree contribution      =     326.95344900 Ry
     xc contribution           =     -51.40673318 Ry
     ewald contribution        =       6.02092071 Ry
     smearing contrib. (-TS)   =      -0.00406387 Ry

     convergence has been achieved in  10 iterations

     Forces acting on atoms (Ry/au):

     atom    1 type  1   force =     0.00115141    0.00055740   -0.00011066
     atom    2 type  1   force =    -0.00055485   -0.00029810   -0.00058420
     atom    3 type  1   force =    -0.00072887    0.00009670   -0.00012381
     atom    4 type  1   force =    -0.00072501    0.00031535    0.00107904
     atom    5 type  1   force =     0.00085731   -0.00067135   -0.00026037

     Total force =     0.002447     Total SCF correction =     0.000008

     number of scf cycles    =  34
     number of bfgs steps    =  33

     energy   old            =    -329.4905882499 Ry
     energy   new            =    -329.4906103994 Ry

     CASE: energy  _new < energy  _old

     new trust radius        =       0.0062249974 bohr
     new conv_thr            =            1.0E-10 Ry


ATOMIC_POSITIONS (bohr)
Au      -2.020591223   1.309035594  -0.274520856
Au      -0.647186385   3.061014800   4.401777249
Au       2.922520744   1.366718739   0.741476276
Au       4.398736712   3.375279382   5.559421315
Au       7.778562151   1.651796484   2.071050015



     Writing output data file pwscf.save
     Check: negative starting charge=   -0.006568
     NEW-OLD atomic charge density approx. for the potential
     Check: negative starting charge=   -0.006570

     negative rho (up, down):  5.079E-07 0.000E+00

     total cpu time spent up to now is      118.2 secs

     per-process dynamical memory:    50.7 Mb

     Self-consistent Calculation

     iteration #  1     ecut=    30.00 Ry     beta=0.70
     Davidson diagonalization with overlap
     ethr =  1.00E-06,  avg # of iterations =  3.0

     Threshold (ethr) on eigenvalues was too large:
     Diagonalizing with lowered threshold

     Davidson diagonalization with overlap
     ethr =  1.38E-08,  avg # of iterations =  2.0

     total cpu time spent up to now is      118.9 secs

     total energy              =    -329.49061666 Ry
     Harris-Foulkes estimate   =    -329.49061908 Ry
     estimated scf accuracy    <       0.00000810 Ry

     iteration #  2     ecut=    30.00 Ry     beta=0.70
     Davidson diagonalization with overlap
     ethr =  1.47E-08,  avg # of iterations =  3.0

     total cpu time spent up to now is      119.2 secs

     total energy              =    -329.49061613 Ry
     Harris-Foulkes estimate   =    -329.49062353 Ry
     estimated scf accuracy    <       0.00001836 Ry

     iteration #  3     ecut=    30.00 Ry     beta=0.70
     Davidson diagonalization with overlap
     ethr =  1.47E-08,  avg # of iterations =  2.0

     total cpu time spent up to now is      119.5 secs

     total energy              =    -329.49062020 Ry
     Harris-Foulkes estimate   =    -329.49062059 Ry
     estimated scf accuracy    <       0.00000209 Ry

     iteration #  4     ecut=    30.00 Ry     beta=0.70
     Davidson diagonalization with overlap
     ethr =  3.80E-09,  avg # of iterations =  2.0

     total cpu time spent up to now is      119.8 secs

     total energy              =    -329.49062061 Ry
     Harris-Foulkes estimate   =    -329.49062067 Ry
     estimated scf accuracy    <       0.00000017 Ry

     iteration #  5     ecut=    30.00 Ry     beta=0.70
     Davidson diagonalization with overlap
     ethr =  3.12E-10,  avg # of iterations =  3.0

     total cpu time spent up to now is      120.0 secs

     total energy              =    -329.49062066 Ry
     Harris-Foulkes estimate   =    -329.49062067 Ry
     estimated scf accuracy    <       0.00000004 Ry

     iteration #  6     ecut=    30.00 Ry     beta=0.70
     Davidson diagonalization with overlap
     ethr =  8.06E-11,  avg # of iterations =  2.0

     total cpu time spent up to now is      120.3 secs

     total energy              =    -329.49062067 Ry
     Harris-Foulkes estimate   =    -329.49062067 Ry
     estimated scf accuracy    <          4.3E-09 Ry

     iteration #  7     ecut=    30.00 Ry     beta=0.70
     Davidson diagonalization with overlap
     ethr =  7.81E-12,  avg # of iterations =  3.0

     total cpu time spent up to now is      120.6 secs

     total energy              =    -329.49062064 Ry
     Harris-Foulkes estimate   =    -329.49062067 Ry
     estimated scf accuracy    <          8.0E-10 Ry

     iteration #  8     ecut=    30.00 Ry     beta=0.70
     Davidson diagonalization with overlap
     ethr =  1.45E-12,  avg # of iterations =  2.0

     total cpu time spent up to now is      120.9 secs

     total energy              =    -329.49062065 Ry
     Harris-Foulkes estimate   =    -329.49062064 Ry
     estimated scf accuracy    <          1.7E-10 Ry

     iteration #  9     ecut=    30.00 Ry     beta=0.70
     Davidson diagonalization with overlap
     ethr =  3.18E-13,  avg # of iterations =  2.0

     total cpu time spent up to now is      121.2 secs

     total energy              =    -329.49062065 Ry
     Harris-Foulkes estimate   =    -329.49062065 Ry
     estimated scf accuracy    <          1.0E-10 Ry

     iteration # 10     ecut=    30.00 Ry     beta=0.70
     Davidson diagonalization with overlap
     ethr =  1.88E-13,  avg # of iterations =  2.0

     total cpu time spent up to now is      121.4 secs

     End of self-consistent calculation

          k = 0.0000 0.0000 0.0000 ( 22119 PWs)   bands (ev):

    -8.5357  -7.8026  -7.6699  -7.2419  -6.8432  -6.8278  -6.6118  -6.4955
    -6.3073  -6.0874  -5.9515  -5.7766  -5.7352  -5.6915  -5.4681  -5.3611
    -5.3127  -5.2566  -5.2028  -5.1818  -5.1725  -5.1214  -4.9947  -4.9262
    -4.8256  -4.7392  -4.4832  -3.7902  -2.5327  -2.1839  -0.5785  -0.2035
     0.5610   0.9504

     the Fermi energy is    -3.7587 ev

!    total energy              =    -329.49062065 Ry
     Harris-Foulkes estimate   =    -329.49062065 Ry
     estimated scf accuracy    <          2.9E-12 Ry

     The total energy is the sum of the following terms:

     one-electron contribution =    -611.01904384 Ry
     hartree contribution      =     326.93586845 Ry
     xc contribution           =     -51.40642445 Ry
     ewald contribution        =       6.00307616 Ry
     smearing contrib. (-TS)   =      -0.00409697 Ry

     convergence has been achieved in  10 iterations

     Forces acting on atoms (Ry/au):

     atom    1 type  1   force =     0.00078730    0.00054482   -0.00015249
     atom    2 type  1   force =    -0.00058350   -0.00020751   -0.00032416
     atom    3 type  1   force =     0.00016779   -0.00008172   -0.00017163
     atom    4 type  1   force =    -0.00029610    0.00010357    0.00066127
     atom    5 type  1   force =    -0.00007548   -0.00035917   -0.00001299

     Total force =     0.001471     Total SCF correction =     0.000009

     bfgs converged in  35 scf cycles and  34 bfgs steps
     (criteria: energy <  1.0E-04, force <  1.0E-03)

     End of BFGS Geometry Optimization

     Final energy   =    -329.4906206517 Ry
Begin final coordinates

ATOMIC_POSITIONS (bohr)
Au      -2.020591223   1.309035594  -0.274520856
Au      -0.647186385   3.061014800   4.401777249
Au       2.922520744   1.366718739   0.741476276
Au       4.398736712   3.375279382   5.559421315
Au       7.778562151   1.651796484   2.071050015
End final coordinates



     Writing output data file pwscf.save
 
     init_run     :      0.24s CPU      0.28s WALL (       1 calls)
     electrons    :    105.77s CPU    111.97s WALL (      35 calls)
     update_pot   :      3.30s CPU      4.17s WALL (      34 calls)
     forces       :      1.91s CPU      1.95s WALL (      35 calls)

     Called by init_run:
     wfcinit      :      0.11s CPU      0.13s WALL (       1 calls)
     potinit      :      0.03s CPU      0.03s WALL (       1 calls)

     Called by electrons:
     c_bands      :     79.42s CPU     80.71s WALL (     357 calls)
     sum_band     :      9.64s CPU      9.86s WALL (     357 calls)
     v_of_rho     :      8.85s CPU      8.96s WALL (     381 calls)
     mix_rho      :      4.54s CPU      6.96s WALL (     357 calls)

     Called by c_bands:
     init_us_2    :      1.09s CPU      1.13s WALL (     715 calls)
     cegterg      :     72.74s CPU     73.86s WALL (     357 calls)

     Called by sum_band:

     Called by *egterg:
     h_psi        :     54.81s CPU     55.60s WALL (    1335 calls)
     g_psi        :      0.43s CPU      0.43s WALL (     977 calls)
     cdiaghg      :      5.70s CPU      5.80s WALL (    1289 calls)

     Called by h_psi:
     h_psi:pot    :     54.20s CPU     54.99s WALL (    1335 calls)
     h_psi:calbec :      7.50s CPU      7.69s WALL (    1335 calls)
     vloc_psi     :     44.09s CPU     44.68s WALL (    1335 calls)
     add_vuspsi   :      2.60s CPU      2.61s WALL (    1335 calls)

     General routines
     calbec       :      8.11s CPU      8.32s WALL (    1475 calls)
     fft          :      5.48s CPU      5.56s WALL (    4282 calls)
     fftw         :     46.94s CPU     47.91s WALL (   81072 calls)
     davcio       :      0.47s CPU      2.53s WALL (    3670 calls)
 
     Parallel routines
     fft_scatter  :     20.10s CPU     20.20s WALL (   85354 calls)
 
     PWSCF        :  1m52.79s CPU     2m 1.80s WALL

 
   This run was terminated on:   1: 9:20  29Jul2017            

=------------------------------------------------------------------------------=
   JOB DONE.
=------------------------------------------------------------------------------=
