
     Program PWSCF v.6.0 (svn rev. 13079) starts on 29Jul2017 at  1:14:49 

     This program is part of the open-source Quantum ESPRESSO suite
     for quantum simulation of materials; please cite
         "P. Giannozzi et al., J. Phys.:Condens. Matter 21 395502 (2009);
          URL http://www.quantum-espresso.org", 
     in publications or presentations arising from this work. More details at
     http://www.quantum-espresso.org/quote

     Parallel version (MPI), running on    10 processors
     R & G space division:  proc/nbgrp/npool/nimage =      10
     Reading input from input/dftmin-Gold5-multi-14.in

     Current dimensions of program PWSCF are:
     Max number of different atomic species (ntypx) = 10
     Max number of k-points (npk) =  40000
     Max angular momentum in pseudopotentials (lmaxx) =  3
     Message from routine iosys:
     pot_extrapolation='second-order' not available, using 'atomic'
     Message from routine iosys:
     wfc_extrapolation='second-order' not available, using 'atomic'

     Subspace diagonalization in iterative solution of the eigenvalue problem:
     a serial algorithm will be used

 
     Parallelization info
     --------------------
     sticks:   dense  smooth     PW     G-vecs:    dense   smooth      PW
     Min         380     380     94                17748    17748    2208
     Max         381     381     95                17753    17753    2213
     Sum        3809    3809    949               177509   177509   22119
 


     bravais-lattice index     =            1
     lattice parameter (alat)  =      20.0000  a.u.
     unit-cell volume          =    8000.0000 (a.u.)^3
     number of atoms/cell      =            5
     number of atomic types    =            1
     number of electrons       =        55.00
     number of Kohn-Sham states=           34
     kinetic-energy cutoff     =      30.0000  Ry
     charge density cutoff     =     120.0000  Ry
     convergence threshold     =      1.0E-08
     mixing beta               =       0.7000
     number of iterations used =            8  plain     mixing
     Exchange-correlation      = BLYP ( 1  3  1  3 0 0)
     nstep                     =           50


     celldm(1)=  20.000000  celldm(2)=   0.000000  celldm(3)=   0.000000
     celldm(4)=   0.000000  celldm(5)=   0.000000  celldm(6)=   0.000000

     crystal axes: (cart. coord. in units of alat)
               a(1) = (   1.000000   0.000000   0.000000 )  
               a(2) = (   0.000000   1.000000   0.000000 )  
               a(3) = (   0.000000   0.000000   1.000000 )  

     reciprocal axes: (cart. coord. in units 2 pi/alat)
               b(1) = (  1.000000  0.000000  0.000000 )  
               b(2) = (  0.000000  1.000000  0.000000 )  
               b(3) = (  0.000000  0.000000  1.000000 )  


     PseudoPot. # 1 for Au read from file:
     ./Au.blyp-d-hgh.UPF
     MD5 check sum: c10d8bae01f806c36a1643a1c69a8479
     Pseudo is Norm-conserving, Zval = 11.0
     Generated in analytical, separable form
     Using radial grid of 1279 points,  6 beta functions with: 
                l(1) =   0
                l(2) =   0
                l(3) =   1
                l(4) =   1
                l(5) =   2
                l(6) =   2

     atomic species   valence    mass     pseudopotential
        Au            11.00    28.08600     Au( 1.00)

     No symmetry found



   Cartesian axes

     site n.     atom                  positions (alat units)
         1           Au  tau(   1) = (  -0.0835726   0.1194572  -0.0477749  )
         2           Au  tau(   2) = (  -0.0508476   0.1900664   0.1876029  )
         3           Au  tau(   3) = (   0.1533541   0.0789210   0.0284504  )
         4           Au  tau(   4) = (   0.1978255   0.1656944   0.2853260  )
         5           Au  tau(   5) = (   0.3751731   0.0671069   0.1458393  )

     number of k points=     1  Marzari-Vanderbilt smearing, width (Ry)=  0.0250
                       cart. coord. in units 2pi/alat
        k(    1) = (   0.0000000   0.0000000   0.0000000), wk =   2.0000000

     Dense  grid:   177509 G-vectors     FFT dimensions: (  72,  72,  72)

     Estimated max dynamical RAM per process >      15.04Mb

     Estimated total allocated dynamical RAM >     150.39Mb

     Initial potential from superposition of free atoms
     Check: negative starting charge=   -0.006426

     starting charge   54.99940, renormalised to   55.00000

     negative rho (up, down):  6.426E-03 0.000E+00
     Starting wfc are   45 randomized atomic wfcs

     total cpu time spent up to now is        0.4 secs

     per-process dynamical memory:    41.0 Mb

     Self-consistent Calculation

     iteration #  1     ecut=    30.00 Ry     beta=0.70
     Davidson diagonalization with overlap
     ethr =  1.00E-02,  avg # of iterations =  3.0

     Threshold (ethr) on eigenvalues was too large:
     Diagonalizing with lowered threshold

     Davidson diagonalization with overlap
     ethr =  4.19E-04,  avg # of iterations =  5.0

     negative rho (up, down):  8.828E-04 0.000E+00

     total cpu time spent up to now is        0.9 secs

     total energy              =    -329.36986455 Ry
     Harris-Foulkes estimate   =    -329.54550289 Ry
     estimated scf accuracy    <       0.28955090 Ry

     iteration #  2     ecut=    30.00 Ry     beta=0.70
     Davidson diagonalization with overlap
     ethr =  5.26E-04,  avg # of iterations =  3.0

     negative rho (up, down):  4.054E-04 0.000E+00

     total cpu time spent up to now is        1.2 secs

     total energy              =    -329.39726138 Ry
     Harris-Foulkes estimate   =    -329.56654676 Ry
     estimated scf accuracy    <       0.35491641 Ry

     iteration #  3     ecut=    30.00 Ry     beta=0.70
     Davidson diagonalization with overlap
     ethr =  5.26E-04,  avg # of iterations =  2.0

     negative rho (up, down):  1.470E-04 0.000E+00

     total cpu time spent up to now is        1.5 secs

     total energy              =    -329.47103925 Ry
     Harris-Foulkes estimate   =    -329.49962414 Ry
     estimated scf accuracy    <       0.07434235 Ry

     iteration #  4     ecut=    30.00 Ry     beta=0.70
     Davidson diagonalization with overlap
     ethr =  1.35E-04,  avg # of iterations =  3.0

     negative rho (up, down):  1.864E-06 0.000E+00

     total cpu time spent up to now is        1.7 secs

     total energy              =    -329.48419836 Ry
     Harris-Foulkes estimate   =    -329.48485992 Ry
     estimated scf accuracy    <       0.00179851 Ry

     iteration #  5     ecut=    30.00 Ry     beta=0.70
     Davidson diagonalization with overlap
     ethr =  3.27E-06,  avg # of iterations =  9.0

     total cpu time spent up to now is        2.2 secs

     total energy              =    -329.48459231 Ry
     Harris-Foulkes estimate   =    -329.48551241 Ry
     estimated scf accuracy    <       0.00242937 Ry

     iteration #  6     ecut=    30.00 Ry     beta=0.70
     Davidson diagonalization with overlap
     ethr =  3.27E-06,  avg # of iterations =  2.0

     total cpu time spent up to now is        2.4 secs

     total energy              =    -329.48499553 Ry
     Harris-Foulkes estimate   =    -329.48507937 Ry
     estimated scf accuracy    <       0.00020684 Ry

     iteration #  7     ecut=    30.00 Ry     beta=0.70
     Davidson diagonalization with overlap
     ethr =  3.76E-07,  avg # of iterations =  2.0

     total cpu time spent up to now is        2.7 secs

     total energy              =    -329.48503715 Ry
     Harris-Foulkes estimate   =    -329.48504414 Ry
     estimated scf accuracy    <       0.00001866 Ry

     iteration #  8     ecut=    30.00 Ry     beta=0.70
     Davidson diagonalization with overlap
     ethr =  3.39E-08,  avg # of iterations =  2.0

     total cpu time spent up to now is        3.0 secs

     total energy              =    -329.48504045 Ry
     Harris-Foulkes estimate   =    -329.48504444 Ry
     estimated scf accuracy    <       0.00000920 Ry

     iteration #  9     ecut=    30.00 Ry     beta=0.70
     Davidson diagonalization with overlap
     ethr =  1.67E-08,  avg # of iterations =  2.0

     total cpu time spent up to now is        3.3 secs

     total energy              =    -329.48504225 Ry
     Harris-Foulkes estimate   =    -329.48504281 Ry
     estimated scf accuracy    <       0.00000109 Ry

     iteration # 10     ecut=    30.00 Ry     beta=0.70
     Davidson diagonalization with overlap
     ethr =  1.97E-09,  avg # of iterations =  2.0

     total cpu time spent up to now is        3.6 secs

     total energy              =    -329.48504235 Ry
     Harris-Foulkes estimate   =    -329.48504256 Ry
     estimated scf accuracy    <       0.00000020 Ry

     iteration # 11     ecut=    30.00 Ry     beta=0.70
     Davidson diagonalization with overlap
     ethr =  3.59E-10,  avg # of iterations =  2.0

     total cpu time spent up to now is        3.8 secs

     End of self-consistent calculation

          k = 0.0000 0.0000 0.0000 ( 22119 PWs)   bands (ev):

    -8.5125  -7.8975  -7.6481  -7.1696  -6.9631  -6.8694  -6.8365  -6.5579
    -6.2143  -6.1738  -6.0569  -5.7650  -5.7474  -5.6659  -5.4375  -5.3379
    -5.2919  -5.2662  -5.2187  -5.1616  -5.1432  -5.1373  -5.0119  -4.9153
    -4.9003  -4.6563  -4.4568  -3.6903  -2.5014  -2.1773  -0.5473  -0.1782
     0.4805   0.7895

     the Fermi energy is    -3.6512 ev

!    total energy              =    -329.48504234 Ry
     Harris-Foulkes estimate   =    -329.48504240 Ry
     estimated scf accuracy    <          7.3E-09 Ry

     The total energy is the sum of the following terms:

     one-electron contribution =    -610.18389528 Ry
     hartree contribution      =     326.50204382 Ry
     xc contribution           =     -51.41769110 Ry
     ewald contribution        =       5.62041741 Ry
     smearing contrib. (-TS)   =      -0.00591720 Ry

     convergence has been achieved in  11 iterations

     Forces acting on atoms (Ry/au):

     atom    1 type  1   force =    -0.00368631   -0.00691806   -0.02273629
     atom    2 type  1   force =     0.01695408    0.00521308    0.02266559
     atom    3 type  1   force =    -0.00584076    0.00292198    0.00371429
     atom    4 type  1   force =    -0.03233760    0.01125372    0.01083280
     atom    5 type  1   force =     0.02491058   -0.01247072   -0.01447640

     Total force =     0.061143     Total SCF correction =     0.000420

     BFGS Geometry Optimization

     number of scf cycles    =   1
     number of bfgs steps    =   0

     energy   new            =    -329.4850423429 Ry

     new trust radius        =       0.0359126172 bohr
     new conv_thr            =       0.0000000100 Ry


ATOMIC_POSITIONS (bohr)
Au      -1.675138309   2.382225941  -0.978235285
Au      -0.999997916   3.806542080   3.774724589
Au       3.061242244   1.581341982   0.572722290
Au       3.924173403   3.325142723   5.717353804
Au       7.528372578   1.329667275   2.902309603



     Writing output data file pwscf.save
     Check: negative starting charge=   -0.006426
     NEW-OLD atomic charge density approx. for the potential
     Check: negative starting charge=   -0.006387

     negative rho (up, down):  3.294E-04 0.000E+00

     total cpu time spent up to now is        4.2 secs

     per-process dynamical memory:    42.9 Mb

     Self-consistent Calculation

     iteration #  1     ecut=    30.00 Ry     beta=0.70
     Davidson diagonalization with overlap
     ethr =  1.00E-06,  avg # of iterations =  5.0

     negative rho (up, down):  9.860E-06 0.000E+00

     total cpu time spent up to now is        4.8 secs

     total energy              =    -329.48804918 Ry
     Harris-Foulkes estimate   =    -329.48800312 Ry
     estimated scf accuracy    <       0.00025900 Ry

     iteration #  2     ecut=    30.00 Ry     beta=0.70
     Davidson diagonalization with overlap
     ethr =  4.71E-07,  avg # of iterations =  3.0

     negative rho (up, down):  2.737E-06 0.000E+00

     total cpu time spent up to now is        5.3 secs

     total energy              =    -329.48801307 Ry
     Harris-Foulkes estimate   =    -329.48828219 Ry
     estimated scf accuracy    <       0.00068135 Ry

     iteration #  3     ecut=    30.00 Ry     beta=0.70
     Davidson diagonalization with overlap
     ethr =  4.71E-07,  avg # of iterations =  3.0

     total cpu time spent up to now is        5.6 secs

     total energy              =    -329.48815541 Ry
     Harris-Foulkes estimate   =    -329.48816466 Ry
     estimated scf accuracy    <       0.00004548 Ry

     iteration #  4     ecut=    30.00 Ry     beta=0.70
     Davidson diagonalization with overlap
     ethr =  8.27E-08,  avg # of iterations =  2.0

     total cpu time spent up to now is        6.0 secs

     total energy              =    -329.48816418 Ry
     Harris-Foulkes estimate   =    -329.48816724 Ry
     estimated scf accuracy    <       0.00000962 Ry

     iteration #  5     ecut=    30.00 Ry     beta=0.70
     Davidson diagonalization with overlap
     ethr =  1.75E-08,  avg # of iterations =  2.0

     total cpu time spent up to now is        6.4 secs

     total energy              =    -329.48816581 Ry
     Harris-Foulkes estimate   =    -329.48816672 Ry
     estimated scf accuracy    <       0.00000136 Ry

     iteration #  6     ecut=    30.00 Ry     beta=0.70
     Davidson diagonalization with overlap
     ethr =  2.47E-09,  avg # of iterations =  2.0

     total cpu time spent up to now is        6.8 secs

     total energy              =    -329.48816613 Ry
     Harris-Foulkes estimate   =    -329.48816620 Ry
     estimated scf accuracy    <       0.00000018 Ry

     iteration #  7     ecut=    30.00 Ry     beta=0.70
     Davidson diagonalization with overlap
     ethr =  3.23E-10,  avg # of iterations =  2.0

     total cpu time spent up to now is        7.1 secs

     total energy              =    -329.48816609 Ry
     Harris-Foulkes estimate   =    -329.48816619 Ry
     estimated scf accuracy    <       0.00000004 Ry

     iteration #  8     ecut=    30.00 Ry     beta=0.70
     Davidson diagonalization with overlap
     ethr =  6.77E-11,  avg # of iterations =  2.0

     total cpu time spent up to now is        7.4 secs

     End of self-consistent calculation

          k = 0.0000 0.0000 0.0000 ( 22119 PWs)   bands (ev):

    -8.4756  -7.8360  -7.6080  -7.1787  -6.9081  -6.8273  -6.8076  -6.5140
    -6.2257  -6.1210  -6.0429  -5.7562  -5.7486  -5.6640  -5.4277  -5.3503
    -5.2997  -5.2454  -5.2174  -5.1645  -5.1568  -5.1431  -5.0122  -4.9066
    -4.9055  -4.6799  -4.4597  -3.7197  -2.5043  -2.1843  -0.5438  -0.1878
     0.4804   0.8012

     the Fermi energy is    -3.6828 ev

!    total energy              =    -329.48816614 Ry
     Harris-Foulkes estimate   =    -329.48816610 Ry
     estimated scf accuracy    <          4.8E-09 Ry

     The total energy is the sum of the following terms:

     one-electron contribution =    -608.34119181 Ry
     hartree contribution      =     325.59647340 Ry
     xc contribution           =     -51.40755908 Ry
     ewald contribution        =       4.66949485 Ry
     smearing contrib. (-TS)   =      -0.00538351 Ry

     convergence has been achieved in   8 iterations

     Forces acting on atoms (Ry/au):

     atom    1 type  1   force =    -0.00210028   -0.00505345   -0.01624628
     atom    2 type  1   force =     0.01443116    0.00332196    0.01534294
     atom    3 type  1   force =    -0.00401838    0.00329999    0.00585578
     atom    4 type  1   force =    -0.02247431    0.00631431    0.00508224
     atom    5 type  1   force =     0.01416182   -0.00788282   -0.01003468

     Total force =     0.041762     Total SCF correction =     0.000158

     number of scf cycles    =   2
     number of bfgs steps    =   1

     energy   old            =    -329.4850423429 Ry
     energy   new            =    -329.4881661420 Ry

     CASE: energy  _new < energy  _old

     new trust radius        =       0.0395038789 bohr
     new conv_thr            =       0.0000000022 Ry


ATOMIC_POSITIONS (bohr)
Au      -1.678637821   2.373901159  -1.005022751
Au      -0.976361644   3.812047001   3.800080891
Au       3.054605983   1.586700271   0.582158648
Au       3.887073673   3.335672061   5.725915319
Au       7.551971808   1.316599508   2.885742894



     Writing output data file pwscf.save
     Check: negative starting charge=   -0.006387
     NEW-OLD atomic charge density approx. for the potential
     Check: negative starting charge=   -0.006368

     negative rho (up, down):  4.223E-04 0.000E+00

     total cpu time spent up to now is        7.7 secs

     per-process dynamical memory:    50.7 Mb

     Self-consistent Calculation

     iteration #  1     ecut=    30.00 Ry     beta=0.70
     Davidson diagonalization with overlap
     ethr =  1.00E-06,  avg # of iterations =  5.0

     negative rho (up, down):  1.560E-05 0.000E+00

     total cpu time spent up to now is        8.2 secs

     total energy              =    -329.49024208 Ry
     Harris-Foulkes estimate   =    -329.49016137 Ry
     estimated scf accuracy    <       0.00034993 Ry

     iteration #  2     ecut=    30.00 Ry     beta=0.70
     Davidson diagonalization with overlap
     ethr =  6.36E-07,  avg # of iterations =  4.0

     negative rho (up, down):  4.976E-06 0.000E+00

     total cpu time spent up to now is        8.6 secs

     total energy              =    -329.49018687 Ry
     Harris-Foulkes estimate   =    -329.49057049 Ry
     estimated scf accuracy    <       0.00098388 Ry

     iteration #  3     ecut=    30.00 Ry     beta=0.70
     Davidson diagonalization with overlap
     ethr =  6.36E-07,  avg # of iterations =  3.0

     negative rho (up, down):  2.406E-08 0.000E+00

     total cpu time spent up to now is        8.8 secs

     total energy              =    -329.49038822 Ry
     Harris-Foulkes estimate   =    -329.49040007 Ry
     estimated scf accuracy    <       0.00005855 Ry

     iteration #  4     ecut=    30.00 Ry     beta=0.70
     Davidson diagonalization with overlap
     ethr =  1.06E-07,  avg # of iterations =  2.0

     total cpu time spent up to now is        9.1 secs

     total energy              =    -329.49039915 Ry
     Harris-Foulkes estimate   =    -329.49040307 Ry
     estimated scf accuracy    <       0.00001157 Ry

     iteration #  5     ecut=    30.00 Ry     beta=0.70
     Davidson diagonalization with overlap
     ethr =  2.10E-08,  avg # of iterations =  2.0

     total cpu time spent up to now is        9.4 secs

     total energy              =    -329.49040145 Ry
     Harris-Foulkes estimate   =    -329.49040232 Ry
     estimated scf accuracy    <       0.00000188 Ry

     iteration #  6     ecut=    30.00 Ry     beta=0.70
     Davidson diagonalization with overlap
     ethr =  3.41E-09,  avg # of iterations =  2.0

     total cpu time spent up to now is        9.7 secs

     total energy              =    -329.49040229 Ry
     Harris-Foulkes estimate   =    -329.49040196 Ry
     estimated scf accuracy    <       0.00000020 Ry

     iteration #  7     ecut=    30.00 Ry     beta=0.70
     Davidson diagonalization with overlap
     ethr =  3.69E-10,  avg # of iterations =  2.0

     total cpu time spent up to now is       10.0 secs

     total energy              =    -329.49040229 Ry
     Harris-Foulkes estimate   =    -329.49040235 Ry
     estimated scf accuracy    <       0.00000005 Ry

     iteration #  8     ecut=    30.00 Ry     beta=0.70
     Davidson diagonalization with overlap
     ethr =  9.91E-11,  avg # of iterations =  2.0

     total cpu time spent up to now is       10.3 secs

     total energy              =    -329.49040226 Ry
     Harris-Foulkes estimate   =    -329.49040230 Ry
     estimated scf accuracy    <          7.1E-09 Ry

     iteration #  9     ecut=    30.00 Ry     beta=0.70
     Davidson diagonalization with overlap
     ethr =  1.29E-11,  avg # of iterations =  2.0

     total cpu time spent up to now is       10.6 secs

     End of self-consistent calculation

          k = 0.0000 0.0000 0.0000 ( 22119 PWs)   bands (ev):

    -8.4461  -7.7787  -7.5867  -7.1899  -6.8873  -6.7861  -6.7511  -6.4742
    -6.2503  -6.0627  -6.0299  -5.7600  -5.7361  -5.6634  -5.4200  -5.3630
    -5.3093  -5.2238  -5.2145  -5.1754  -5.1679  -5.1411  -5.0117  -4.9074
    -4.8911  -4.7042  -4.4591  -3.7509  -2.5040  -2.1872  -0.5415  -0.1973
     0.4812   0.8156

     the Fermi energy is    -3.7172 ev

!    total energy              =    -329.49040229 Ry
     Harris-Foulkes estimate   =    -329.49040226 Ry
     estimated scf accuracy    <          1.9E-09 Ry

     The total energy is the sum of the following terms:

     one-electron contribution =    -606.87879576 Ry
     hartree contribution      =     324.87967610 Ry
     xc contribution           =     -51.39987822 Ry
     ewald contribution        =       3.91321569 Ry
     smearing contrib. (-TS)   =      -0.00462011 Ry

     convergence has been achieved in   9 iterations

     Forces acting on atoms (Ry/au):

     atom    1 type  1   force =    -0.00057131   -0.00328733   -0.00981542
     atom    2 type  1   force =     0.01059407    0.00174248    0.00775655
     atom    3 type  1   force =    -0.00301349    0.00355986    0.00717082
     atom    4 type  1   force =    -0.01207225    0.00207467    0.00102649
     atom    5 type  1   force =     0.00506298   -0.00408968   -0.00613844

     Total force =     0.024233     Total SCF correction =     0.000177

     number of scf cycles    =   3
     number of bfgs steps    =   2

     energy   old            =    -329.4881661420 Ry
     energy   new            =    -329.4904022918 Ry

     CASE: energy  _new < energy  _old

     new trust radius        =       0.0501953514 bohr
     new conv_thr            =       0.0000000012 Ry


ATOMIC_POSITIONS (bohr)
Au      -1.681988085   2.361764568  -1.042400009
Au      -0.939340328   3.819164988   3.832109438
Au       3.044005188   1.597616493   0.603269474
Au       3.838662709   3.346576045   5.733468790
Au       7.577312517   1.299797906   2.862427307



     Writing output data file pwscf.save
     Check: negative starting charge=   -0.006368
     NEW-OLD atomic charge density approx. for the potential
     Check: negative starting charge=   -0.006368

     negative rho (up, down):  7.418E-04 0.000E+00

     total cpu time spent up to now is       11.0 secs

     per-process dynamical memory:    50.7 Mb

     Self-consistent Calculation

     iteration #  1     ecut=    30.00 Ry     beta=0.70
     Davidson diagonalization with overlap
     ethr =  1.00E-06,  avg # of iterations =  6.0

     negative rho (up, down):  4.084E-05 0.000E+00

     total cpu time spent up to now is       11.7 secs

     total energy              =    -329.49135449 Ry
     Harris-Foulkes estimate   =    -329.49109414 Ry
     estimated scf accuracy    <       0.00069505 Ry

     iteration #  2     ecut=    30.00 Ry     beta=0.70
     Davidson diagonalization with overlap
     ethr =  1.26E-06,  avg # of iterations =  4.0

     negative rho (up, down):  1.606E-05 0.000E+00

     total cpu time spent up to now is       12.1 secs

     total energy              =    -329.49123321 Ry
     Harris-Foulkes estimate   =    -329.49203656 Ry
     estimated scf accuracy    <       0.00208863 Ry

     iteration #  3     ecut=    30.00 Ry     beta=0.70
     Davidson diagonalization with overlap
     ethr =  1.26E-06,  avg # of iterations =  3.0

     negative rho (up, down):  1.824E-07 0.000E+00

     total cpu time spent up to now is       12.4 secs

     total energy              =    -329.49164916 Ry
     Harris-Foulkes estimate   =    -329.49167212 Ry
     estimated scf accuracy    <       0.00011010 Ry

     iteration #  4     ecut=    30.00 Ry     beta=0.70
     Davidson diagonalization with overlap
     ethr =  2.00E-07,  avg # of iterations =  2.0

     total cpu time spent up to now is       12.6 secs

     total energy              =    -329.49166993 Ry
     Harris-Foulkes estimate   =    -329.49167657 Ry
     estimated scf accuracy    <       0.00002023 Ry

     iteration #  5     ecut=    30.00 Ry     beta=0.70
     Davidson diagonalization with overlap
     ethr =  3.68E-08,  avg # of iterations =  2.0

     total cpu time spent up to now is       13.0 secs

     total energy              =    -329.49167439 Ry
     Harris-Foulkes estimate   =    -329.49167582 Ry
     estimated scf accuracy    <       0.00000450 Ry

     iteration #  6     ecut=    30.00 Ry     beta=0.70
     Davidson diagonalization with overlap
     ethr =  8.19E-09,  avg # of iterations =  2.0

     total cpu time spent up to now is       13.3 secs

     total energy              =    -329.49167547 Ry
     Harris-Foulkes estimate   =    -329.49167559 Ry
     estimated scf accuracy    <       0.00000060 Ry

     iteration #  7     ecut=    30.00 Ry     beta=0.70
     Davidson diagonalization with overlap
     ethr =  1.09E-09,  avg # of iterations =  2.0

     total cpu time spent up to now is       13.5 secs

     total energy              =    -329.49167538 Ry
     Harris-Foulkes estimate   =    -329.49167566 Ry
     estimated scf accuracy    <       0.00000018 Ry

     iteration #  8     ecut=    30.00 Ry     beta=0.70
     Davidson diagonalization with overlap
     ethr =  3.36E-10,  avg # of iterations =  2.0

     total cpu time spent up to now is       13.8 secs

     total energy              =    -329.49167556 Ry
     Harris-Foulkes estimate   =    -329.49167542 Ry
     estimated scf accuracy    <       0.00000001 Ry

     iteration #  9     ecut=    30.00 Ry     beta=0.70
     Davidson diagonalization with overlap
     ethr =  2.37E-11,  avg # of iterations =  2.0

     total cpu time spent up to now is       14.1 secs

     total energy              =    -329.49167560 Ry
     Harris-Foulkes estimate   =    -329.49167557 Ry
     estimated scf accuracy    <          1.8E-09 Ry

     iteration # 10     ecut=    30.00 Ry     beta=0.70
     Davidson diagonalization with overlap
     ethr =  3.24E-12,  avg # of iterations =  2.0

     total cpu time spent up to now is       14.4 secs

     End of self-consistent calculation

          k = 0.0000 0.0000 0.0000 ( 22119 PWs)   bands (ev):

    -8.4236  -7.7209  -7.6029  -7.1982  -6.8867  -6.7674  -6.6406  -6.4403
    -6.2937  -6.0257  -5.9819  -5.7628  -5.7192  -5.6662  -5.4141  -5.3758
    -5.3226  -5.2173  -5.1980  -5.1907  -5.1702  -5.1343  -5.0095  -4.9017
    -4.8656  -4.7330  -4.4535  -3.7885  -2.4983  -2.1849  -0.5410  -0.2075
     0.4838   0.8362

     the Fermi energy is    -3.7605 ev

!    total energy              =    -329.49167559 Ry
     Harris-Foulkes estimate   =    -329.49167561 Ry
     estimated scf accuracy    <          2.0E-10 Ry

     The total energy is the sum of the following terms:

     one-electron contribution =    -605.79397027 Ry
     hartree contribution      =     324.35213328 Ry
     xc contribution           =     -51.39506079 Ry
     ewald contribution        =       3.34858028 Ry
     smearing contrib. (-TS)   =      -0.00335810 Ry

     convergence has been achieved in  10 iterations

     Forces acting on atoms (Ry/au):

     atom    1 type  1   force =     0.00117663   -0.00153418   -0.00250367
     atom    2 type  1   force =     0.00376230    0.00048599   -0.00166372
     atom    3 type  1   force =    -0.00245981    0.00377355    0.00723571
     atom    4 type  1   force =     0.00092768   -0.00206543   -0.00077227
     atom    5 type  1   force =    -0.00340680   -0.00065992   -0.00229607

     Total force =     0.011084     Total SCF correction =     0.000061

     number of scf cycles    =   4
     number of bfgs steps    =   3

     energy   old            =    -329.4904022918 Ry
     energy   new            =    -329.4916755933 Ry

     CASE: energy  _new < energy  _old

     new trust radius        =       0.0136128986 bohr
     new conv_thr            =       0.0000000007 Ry


ATOMIC_POSITIONS (bohr)
Au      -1.681302298   2.357963022  -1.051626300
Au      -0.929097826   3.820993619   3.835813362
Au       3.039407026   1.603585962   0.614606729
Au       3.831353071   3.346337925   5.734278824
Au       7.578292026   1.296039471   2.855802385



     Writing output data file pwscf.save
     Check: negative starting charge=   -0.006368
     NEW-OLD atomic charge density approx. for the potential
     Check: negative starting charge=   -0.006375

     negative rho (up, down):  2.386E-05 0.000E+00

     total cpu time spent up to now is       14.7 secs

     per-process dynamical memory:    50.7 Mb

     Self-consistent Calculation

     iteration #  1     ecut=    30.00 Ry     beta=0.70
     Davidson diagonalization with overlap
     ethr =  1.00E-06,  avg # of iterations =  4.0

     Threshold (ethr) on eigenvalues was too large:
     Diagonalizing with lowered threshold

     Davidson diagonalization with overlap
     ethr =  7.85E-08,  avg # of iterations =  1.0

     negative rho (up, down):  5.365E-08 0.000E+00

     total cpu time spent up to now is       15.3 secs

     total energy              =    -329.49180800 Ry
     Harris-Foulkes estimate   =    -329.49181655 Ry
     estimated scf accuracy    <       0.00004369 Ry

     iteration #  2     ecut=    30.00 Ry     beta=0.70
     Davidson diagonalization with overlap
     ethr =  7.94E-08,  avg # of iterations =  3.0

     total cpu time spent up to now is       15.6 secs

     total energy              =    -329.49180011 Ry
     Harris-Foulkes estimate   =    -329.49184744 Ry
     estimated scf accuracy    <       0.00011855 Ry

     iteration #  3     ecut=    30.00 Ry     beta=0.70
     Davidson diagonalization with overlap
     ethr =  7.94E-08,  avg # of iterations =  3.0

     total cpu time spent up to now is       15.9 secs

     total energy              =    -329.49182436 Ry
     Harris-Foulkes estimate   =    -329.49182694 Ry
     estimated scf accuracy    <       0.00000942 Ry

     iteration #  4     ecut=    30.00 Ry     beta=0.70
     Davidson diagonalization with overlap
     ethr =  1.71E-08,  avg # of iterations =  2.0

     total cpu time spent up to now is       16.2 secs

     total energy              =    -329.49182634 Ry
     Harris-Foulkes estimate   =    -329.49182642 Ry
     estimated scf accuracy    <       0.00000109 Ry

     iteration #  5     ecut=    30.00 Ry     beta=0.70
     Davidson diagonalization with overlap
     ethr =  1.98E-09,  avg # of iterations =  3.0

     total cpu time spent up to now is       16.4 secs

     total energy              =    -329.49182647 Ry
     Harris-Foulkes estimate   =    -329.49182676 Ry
     estimated scf accuracy    <       0.00000052 Ry

     iteration #  6     ecut=    30.00 Ry     beta=0.70
     Davidson diagonalization with overlap
     ethr =  9.53E-10,  avg # of iterations =  2.0

     total cpu time spent up to now is       16.7 secs

     total energy              =    -329.49182655 Ry
     Harris-Foulkes estimate   =    -329.49182658 Ry
     estimated scf accuracy    <       0.00000003 Ry

     iteration #  7     ecut=    30.00 Ry     beta=0.70
     Davidson diagonalization with overlap
     ethr =  6.25E-11,  avg # of iterations =  3.0

     total cpu time spent up to now is       16.9 secs

     total energy              =    -329.49182658 Ry
     Harris-Foulkes estimate   =    -329.49182657 Ry
     estimated scf accuracy    <       0.00000001 Ry

     iteration #  8     ecut=    30.00 Ry     beta=0.70
     Davidson diagonalization with overlap
     ethr =  2.34E-11,  avg # of iterations =  2.0

     total cpu time spent up to now is       17.2 secs

     total energy              =    -329.49182659 Ry
     Harris-Foulkes estimate   =    -329.49182659 Ry
     estimated scf accuracy    <          7.5E-10 Ry

     iteration #  9     ecut=    30.00 Ry     beta=0.70
     Davidson diagonalization with overlap
     ethr =  1.37E-12,  avg # of iterations =  3.0

     total cpu time spent up to now is       17.5 secs

     End of self-consistent calculation

          k = 0.0000 0.0000 0.0000 ( 22119 PWs)   bands (ev):

    -8.4311  -7.7203  -7.6172  -7.2055  -6.8883  -6.7711  -6.6210  -6.4418
    -6.3052  -6.0289  -5.9684  -5.7645  -5.7184  -5.6696  -5.4170  -5.3766
    -5.3245  -5.2190  -5.2012  -5.1861  -5.1704  -5.1314  -5.0082  -4.9004
    -4.8583  -4.7370  -4.4530  -3.7931  -2.4933  -2.1831  -0.5425  -0.2077
     0.4848   0.8406

     the Fermi energy is    -3.7659 ev

!    total energy              =    -329.49182655 Ry
     Harris-Foulkes estimate   =    -329.49182659 Ry
     estimated scf accuracy    <          1.0E-10 Ry

     The total energy is the sum of the following terms:

     one-electron contribution =    -606.06852363 Ry
     hartree contribution      =     324.48844080 Ry
     xc contribution           =     -51.39595569 Ry
     ewald contribution        =       3.48739621 Ry
     smearing contrib. (-TS)   =      -0.00318425 Ry

     convergence has been achieved in   9 iterations

     Forces acting on atoms (Ry/au):

     atom    1 type  1   force =     0.00128785   -0.00130261   -0.00126737
     atom    2 type  1   force =     0.00193842    0.00041996   -0.00313767
     atom    3 type  1   force =    -0.00244664    0.00362837    0.00621102
     atom    4 type  1   force =     0.00313714   -0.00239438   -0.00015733
     atom    5 type  1   force =    -0.00391677   -0.00035134   -0.00164865

     Total force =     0.010500     Total SCF correction =     0.000048

     number of scf cycles    =   5
     number of bfgs steps    =   4

     energy   old            =    -329.4916755933 Ry
     energy   new            =    -329.4918265525 Ry

     CASE: energy  _new < energy  _old

     new trust radius        =       0.0149741885 bohr
     new conv_thr            =       0.0000000002 Ry


ATOMIC_POSITIONS (bohr)
Au      -1.679841153   2.354351457  -1.058790485
Au      -0.920982424   3.822609804   3.835715319
Au       3.034301051   1.610457830   0.626892199
Au       3.829103505   3.344357017   5.735034917
Au       7.576071021   1.293143891   2.850023051



     Writing output data file pwscf.save
     Check: negative starting charge=   -0.006375
     NEW-OLD atomic charge density approx. for the potential
     Check: negative starting charge=   -0.006385

     negative rho (up, down):  1.634E-05 0.000E+00

     total cpu time spent up to now is       17.8 secs

     per-process dynamical memory:    50.7 Mb

     Self-consistent Calculation

     iteration #  1     ecut=    30.00 Ry     beta=0.70
     Davidson diagonalization with overlap
     ethr =  1.00E-06,  avg # of iterations =  4.0

     Threshold (ethr) on eigenvalues was too large:
     Diagonalizing with lowered threshold

     Davidson diagonalization with overlap
     ethr =  5.76E-08,  avg # of iterations =  1.0

     negative rho (up, down):  2.112E-08 0.000E+00

     total cpu time spent up to now is       18.4 secs

     total energy              =    -329.49195684 Ry
     Harris-Foulkes estimate   =    -329.49196245 Ry
     estimated scf accuracy    <       0.00003209 Ry

     iteration #  2     ecut=    30.00 Ry     beta=0.70
     Davidson diagonalization with overlap
     ethr =  5.83E-08,  avg # of iterations =  3.0

     total cpu time spent up to now is       18.7 secs

     total energy              =    -329.49195306 Ry
     Harris-Foulkes estimate   =    -329.49198164 Ry
     estimated scf accuracy    <       0.00006789 Ry

     iteration #  3     ecut=    30.00 Ry     beta=0.70
     Davidson diagonalization with overlap
     ethr =  5.83E-08,  avg # of iterations =  2.0

     total cpu time spent up to now is       19.0 secs

     total energy              =    -329.49196734 Ry
     Harris-Foulkes estimate   =    -329.49197071 Ry
     estimated scf accuracy    <       0.00000995 Ry

     iteration #  4     ecut=    30.00 Ry     beta=0.70
     Davidson diagonalization with overlap
     ethr =  1.81E-08,  avg # of iterations =  2.0

     total cpu time spent up to now is       19.2 secs

     total energy              =    -329.49196933 Ry
     Harris-Foulkes estimate   =    -329.49196936 Ry
     estimated scf accuracy    <       0.00000075 Ry

     iteration #  5     ecut=    30.00 Ry     beta=0.70
     Davidson diagonalization with overlap
     ethr =  1.36E-09,  avg # of iterations =  3.0

     total cpu time spent up to now is       19.5 secs

     total energy              =    -329.49196935 Ry
     Harris-Foulkes estimate   =    -329.49196966 Ry
     estimated scf accuracy    <       0.00000043 Ry

     iteration #  6     ecut=    30.00 Ry     beta=0.70
     Davidson diagonalization with overlap
     ethr =  7.85E-10,  avg # of iterations =  2.0

     total cpu time spent up to now is       19.8 secs

     total energy              =    -329.49196945 Ry
     Harris-Foulkes estimate   =    -329.49196944 Ry
     estimated scf accuracy    <       0.00000003 Ry

     iteration #  7     ecut=    30.00 Ry     beta=0.70
     Davidson diagonalization with overlap
     ethr =  5.48E-11,  avg # of iterations =  3.0

     total cpu time spent up to now is       20.0 secs

     total energy              =    -329.49196948 Ry
     Harris-Foulkes estimate   =    -329.49196946 Ry
     estimated scf accuracy    <          7.3E-09 Ry

     iteration #  8     ecut=    30.00 Ry     beta=0.70
     Davidson diagonalization with overlap
     ethr =  1.32E-11,  avg # of iterations =  2.0

     total cpu time spent up to now is       20.3 secs

     total energy              =    -329.49196946 Ry
     Harris-Foulkes estimate   =    -329.49196948 Ry
     estimated scf accuracy    <          8.4E-10 Ry

     iteration #  9     ecut=    30.00 Ry     beta=0.70
     Davidson diagonalization with overlap
     ethr =  1.53E-12,  avg # of iterations =  3.0

     total cpu time spent up to now is       20.6 secs

     total energy              =    -329.49196946 Ry
     Harris-Foulkes estimate   =    -329.49196946 Ry
     estimated scf accuracy    <          2.4E-10 Ry

     iteration # 10     ecut=    30.00 Ry     beta=0.70
     Davidson diagonalization with overlap
     ethr =  4.44E-13,  avg # of iterations =  2.0

     total cpu time spent up to now is       20.9 secs

     End of self-consistent calculation

          k = 0.0000 0.0000 0.0000 ( 22119 PWs)   bands (ev):

    -8.4443  -7.7275  -7.6313  -7.2144  -6.8890  -6.7785  -6.6111  -6.4478
    -6.3134  -6.0352  -5.9610  -5.7669  -5.7198  -5.6736  -5.4220  -5.3758
    -5.3249  -5.2218  -5.2032  -5.1831  -5.1709  -5.1287  -5.0067  -4.9006
    -4.8523  -4.7386  -4.4538  -3.7939  -2.4874  -2.1818  -0.5444  -0.2063
     0.4857   0.8433

     the Fermi energy is    -3.7666 ev

!    total energy              =    -329.49196946 Ry
     Harris-Foulkes estimate   =    -329.49196946 Ry
     estimated scf accuracy    <          2.5E-11 Ry

     The total energy is the sum of the following terms:

     one-electron contribution =    -606.55667296 Ry
     hartree contribution      =     324.72903886 Ry
     xc contribution           =     -51.39749416 Ry
     ewald contribution        =       3.73634092 Ry
     smearing contrib. (-TS)   =      -0.00318212 Ry

     convergence has been achieved in  10 iterations

     Forces acting on atoms (Ry/au):

     atom    1 type  1   force =     0.00113092   -0.00120232   -0.00061201
     atom    2 type  1   force =     0.00068827    0.00047465   -0.00368963
     atom    3 type  1   force =    -0.00237398    0.00335480    0.00485889
     atom    4 type  1   force =     0.00415916   -0.00228908    0.00068892
     atom    5 type  1   force =    -0.00360438   -0.00033805   -0.00124617

     Total force =     0.009777     Total SCF correction =     0.000023

     number of scf cycles    =   6
     number of bfgs steps    =   5

     energy   old            =    -329.4918265525 Ry
     energy   new            =    -329.4919694590 Ry

     CASE: energy  _new < energy  _old

     new trust radius        =       0.0224612827 bohr
     new conv_thr            =       0.0000000001 Ry


ATOMIC_POSITIONS (bohr)
Au      -1.677272501   2.349099931  -1.067569092
Au      -0.911248239   3.824959376   3.832386248
Au       3.026313529   1.621263886   0.644890473
Au       3.830219902   3.340193461   5.736886856
Au       7.570639309   1.289403346   2.842280514



     Writing output data file pwscf.save
     Check: negative starting charge=   -0.006385
     NEW-OLD atomic charge density approx. for the potential
     Check: negative starting charge=   -0.006402

     negative rho (up, down):  5.460E-05 0.000E+00

     total cpu time spent up to now is       21.1 secs

     per-process dynamical memory:    50.7 Mb

     Self-consistent Calculation

     iteration #  1     ecut=    30.00 Ry     beta=0.70
     Davidson diagonalization with overlap
     ethr =  1.00E-06,  avg # of iterations =  4.0

     negative rho (up, down):  2.628E-07 0.000E+00

     total cpu time spent up to now is       21.6 secs

     total energy              =    -329.49213329 Ry
     Harris-Foulkes estimate   =    -329.49214175 Ry
     estimated scf accuracy    <       0.00006085 Ry

     iteration #  2     ecut=    30.00 Ry     beta=0.70
     Davidson diagonalization with overlap
     ethr =  1.11E-07,  avg # of iterations =  3.0

     negative rho (up, down):  1.739E-08 0.000E+00

     total cpu time spent up to now is       21.9 secs

     total energy              =    -329.49213052 Ry
     Harris-Foulkes estimate   =    -329.49217442 Ry
     estimated scf accuracy    <       0.00009795 Ry

     iteration #  3     ecut=    30.00 Ry     beta=0.70
     Davidson diagonalization with overlap
     ethr =  1.11E-07,  avg # of iterations =  2.0

     total cpu time spent up to now is       22.1 secs

     total energy              =    -329.49215198 Ry
     Harris-Foulkes estimate   =    -329.49215960 Ry
     estimated scf accuracy    <       0.00002314 Ry

     iteration #  4     ecut=    30.00 Ry     beta=0.70
     Davidson diagonalization with overlap
     ethr =  4.21E-08,  avg # of iterations =  2.0

     total cpu time spent up to now is       22.4 secs

     total energy              =    -329.49215640 Ry
     Harris-Foulkes estimate   =    -329.49215667 Ry
     estimated scf accuracy    <       0.00000152 Ry

     iteration #  5     ecut=    30.00 Ry     beta=0.70
     Davidson diagonalization with overlap
     ethr =  2.77E-09,  avg # of iterations =  3.0

     total cpu time spent up to now is       22.7 secs

     total energy              =    -329.49215679 Ry
     Harris-Foulkes estimate   =    -329.49215697 Ry
     estimated scf accuracy    <       0.00000062 Ry

     iteration #  6     ecut=    30.00 Ry     beta=0.70
     Davidson diagonalization with overlap
     ethr =  1.12E-09,  avg # of iterations =  2.0

     total cpu time spent up to now is       22.9 secs

     total energy              =    -329.49215688 Ry
     Harris-Foulkes estimate   =    -329.49215693 Ry
     estimated scf accuracy    <       0.00000007 Ry

     iteration #  7     ecut=    30.00 Ry     beta=0.70
     Davidson diagonalization with overlap
     ethr =  1.19E-10,  avg # of iterations =  2.0

     total cpu time spent up to now is       23.1 secs

     total energy              =    -329.49215689 Ry
     Harris-Foulkes estimate   =    -329.49215689 Ry
     estimated scf accuracy    <       0.00000001 Ry

     iteration #  8     ecut=    30.00 Ry     beta=0.70
     Davidson diagonalization with overlap
     ethr =  2.02E-11,  avg # of iterations =  2.0

     total cpu time spent up to now is       23.5 secs

     total energy              =    -329.49215693 Ry
     Harris-Foulkes estimate   =    -329.49215690 Ry
     estimated scf accuracy    <          2.0E-09 Ry

     iteration #  9     ecut=    30.00 Ry     beta=0.70
     Davidson diagonalization with overlap
     ethr =  3.60E-12,  avg # of iterations =  2.0

     total cpu time spent up to now is       23.7 secs

     total energy              =    -329.49215695 Ry
     Harris-Foulkes estimate   =    -329.49215693 Ry
     estimated scf accuracy    <          5.9E-10 Ry

     iteration # 10     ecut=    30.00 Ry     beta=0.70
     Davidson diagonalization with overlap
     ethr =  1.07E-12,  avg # of iterations =  2.0

     total cpu time spent up to now is       24.0 secs

     End of self-consistent calculation

          k = 0.0000 0.0000 0.0000 ( 22119 PWs)   bands (ev):

    -8.4669  -7.7433  -7.6501  -7.2273  -6.8884  -6.7916  -6.6047  -6.4596
    -6.3216  -6.0465  -5.9548  -5.7707  -5.7233  -5.6796  -5.4307  -5.3732
    -5.3243  -5.2269  -5.2049  -5.1801  -5.1720  -5.1253  -5.0046  -4.9025
    -4.8446  -4.7393  -4.4566  -3.7920  -2.4785  -2.1811  -0.5475  -0.2032
     0.4867   0.8457

     the Fermi energy is    -3.7641 ev

!    total energy              =    -329.49215695 Ry
     Harris-Foulkes estimate   =    -329.49215695 Ry
     estimated scf accuracy    <          5.8E-11 Ry

     The total energy is the sum of the following terms:

     one-electron contribution =    -607.36689415 Ry
     hartree contribution      =     325.12749477 Ry
     xc contribution           =     -51.39998363 Ry
     ewald contribution        =       4.15054694 Ry
     smearing contrib. (-TS)   =      -0.00332087 Ry

     convergence has been achieved in  10 iterations

     Forces acting on atoms (Ry/au):

     atom    1 type  1   force =     0.00066263   -0.00111347   -0.00012714
     atom    2 type  1   force =    -0.00055071    0.00066198   -0.00374759
     atom    3 type  1   force =    -0.00210403    0.00274964    0.00276692
     atom    4 type  1   force =     0.00462511   -0.00180077    0.00195206
     atom    5 type  1   force =    -0.00263301   -0.00049739   -0.00084424

     Total force =     0.008512     Total SCF correction =     0.000037

     number of scf cycles    =   7
     number of bfgs steps    =   6

     energy   old            =    -329.4919694590 Ry
     energy   new            =    -329.4921569461 Ry

     CASE: energy  _new < energy  _old

     new trust radius        =       0.0336919240 bohr
     new conv_thr            =       0.0000000002 Ry


ATOMIC_POSITIONS (bohr)
Au      -1.673363867   2.341000574  -1.079066293
Au      -0.899309757   3.828858270   3.823773502
Au       3.013643534   1.638313505   0.671042480
Au       3.837037245   3.332809104   5.741787830
Au       7.560644845   1.283938547   2.831337481



     Writing output data file pwscf.save
     Check: negative starting charge=   -0.006402
     NEW-OLD atomic charge density approx. for the potential
     Check: negative starting charge=   -0.006429

     negative rho (up, down):  1.670E-04 0.000E+00

     total cpu time spent up to now is       24.3 secs

     per-process dynamical memory:    50.7 Mb

     Self-consistent Calculation

     iteration #  1     ecut=    30.00 Ry     beta=0.70
     Davidson diagonalization with overlap
     ethr =  1.00E-06,  avg # of iterations =  4.0

     negative rho (up, down):  2.478E-06 0.000E+00

     total cpu time spent up to now is       24.7 secs

     total energy              =    -329.49230875 Ry
     Harris-Foulkes estimate   =    -329.49231190 Ry
     estimated scf accuracy    <       0.00013247 Ry

     iteration #  2     ecut=    30.00 Ry     beta=0.70
     Davidson diagonalization with overlap
     ethr =  2.41E-07,  avg # of iterations =  3.0

     negative rho (up, down):  2.826E-07 0.000E+00

     total cpu time spent up to now is       25.0 secs

     total energy              =    -329.49231188 Ry
     Harris-Foulkes estimate   =    -329.49238991 Ry
     estimated scf accuracy    <       0.00016757 Ry

     iteration #  3     ecut=    30.00 Ry     beta=0.70
     Davidson diagonalization with overlap
     ethr =  2.41E-07,  avg # of iterations =  2.0

     total cpu time spent up to now is       25.3 secs

     total energy              =    -329.49234809 Ry
     Harris-Foulkes estimate   =    -329.49236589 Ry
     estimated scf accuracy    <       0.00005180 Ry

     iteration #  4     ecut=    30.00 Ry     beta=0.70
     Davidson diagonalization with overlap
     ethr =  9.42E-08,  avg # of iterations =  2.0

     total cpu time spent up to now is       25.5 secs

     total energy              =    -329.49235847 Ry
     Harris-Foulkes estimate   =    -329.49235919 Ry
     estimated scf accuracy    <       0.00000390 Ry

     iteration #  5     ecut=    30.00 Ry     beta=0.70
     Davidson diagonalization with overlap
     ethr =  7.09E-09,  avg # of iterations =  3.0

     total cpu time spent up to now is       25.8 secs

     total energy              =    -329.49235949 Ry
     Harris-Foulkes estimate   =    -329.49235968 Ry
     estimated scf accuracy    <       0.00000103 Ry

     iteration #  6     ecut=    30.00 Ry     beta=0.70
     Davidson diagonalization with overlap
     ethr =  1.87E-09,  avg # of iterations =  2.0

     total cpu time spent up to now is       26.1 secs

     total energy              =    -329.49235987 Ry
     Harris-Foulkes estimate   =    -329.49235973 Ry
     estimated scf accuracy    <       0.00000010 Ry

     iteration #  7     ecut=    30.00 Ry     beta=0.70
     Davidson diagonalization with overlap
     ethr =  1.91E-10,  avg # of iterations =  2.0

     total cpu time spent up to now is       26.4 secs

     total energy              =    -329.49235989 Ry
     Harris-Foulkes estimate   =    -329.49235990 Ry
     estimated scf accuracy    <       0.00000002 Ry

     iteration #  8     ecut=    30.00 Ry     beta=0.70
     Davidson diagonalization with overlap
     ethr =  3.94E-11,  avg # of iterations =  2.0

     total cpu time spent up to now is       26.6 secs

     total energy              =    -329.49235986 Ry
     Harris-Foulkes estimate   =    -329.49235990 Ry
     estimated scf accuracy    <          3.8E-09 Ry

     iteration #  9     ecut=    30.00 Ry     beta=0.70
     Davidson diagonalization with overlap
     ethr =  6.93E-12,  avg # of iterations =  2.0

     total cpu time spent up to now is       26.9 secs

     total energy              =    -329.49235986 Ry
     Harris-Foulkes estimate   =    -329.49235986 Ry
     estimated scf accuracy    <          1.1E-09 Ry

     iteration # 10     ecut=    30.00 Ry     beta=0.70
     Davidson diagonalization with overlap
     ethr =  2.09E-12,  avg # of iterations =  2.0

     total cpu time spent up to now is       27.2 secs

     End of self-consistent calculation

          k = 0.0000 0.0000 0.0000 ( 22119 PWs)   bands (ev):

    -8.5025  -7.7707  -7.6750  -7.2440  -6.8842  -6.8125  -6.6030  -6.4793
    -6.3285  -6.0654  -5.9503  -5.7764  -5.7294  -5.6881  -5.4446  -5.3675
    -5.3220  -5.2357  -5.2058  -5.1767  -5.1743  -5.1207  -5.0013  -4.9074
    -4.8337  -4.7387  -4.4624  -3.7864  -2.4649  -2.1822  -0.5518  -0.1975
     0.4876   0.8475

     the Fermi energy is    -3.7569 ev

!    total energy              =    -329.49235982 Ry
     Harris-Foulkes estimate   =    -329.49235986 Ry
     estimated scf accuracy    <          1.3E-10 Ry

     The total energy is the sum of the following terms:

     one-electron contribution =    -608.57116282 Ry
     hartree contribution      =     325.71893944 Ry
     xc contribution           =     -51.40362810 Ry
     ewald contribution        =       4.76715884 Ry
     smearing contrib. (-TS)   =      -0.00366717 Ry

     convergence has been achieved in  10 iterations

     Forces acting on atoms (Ry/au):

     atom    1 type  1   force =    -0.00025935   -0.00094753    0.00006620
     atom    2 type  1   force =    -0.00159779    0.00110300   -0.00312055
     atom    3 type  1   force =    -0.00150071    0.00143000   -0.00001668
     atom    4 type  1   force =     0.00412927   -0.00073436    0.00354659
     atom    5 type  1   force =    -0.00077141   -0.00085112   -0.00047556

     Total force =     0.007106     Total SCF correction =     0.000052

     number of scf cycles    =   8
     number of bfgs steps    =   7

     energy   old            =    -329.4921569461 Ry
     energy   new            =    -329.4923598155 Ry

     CASE: energy  _new < energy  _old

     new trust radius        =       0.0299265995 bohr
     new conv_thr            =       0.0000000002 Ry


ATOMIC_POSITIONS (bohr)
Au      -1.670507028   2.333104663  -1.088395078
Au      -0.891270294   3.833598395   3.812187121
Au       3.001281111   1.654254654   0.693147946
Au       3.848436088   3.325506790   5.750204196
Au       7.550712124   1.278455499   2.821730814



     Writing output data file pwscf.save
     Check: negative starting charge=   -0.006429
     NEW-OLD atomic charge density approx. for the potential
     Check: negative starting charge=   -0.006451

     negative rho (up, down):  1.452E-04 0.000E+00

     total cpu time spent up to now is       27.4 secs

     per-process dynamical memory:    50.7 Mb

     Self-consistent Calculation

     iteration #  1     ecut=    30.00 Ry     beta=0.70
     Davidson diagonalization with overlap
     ethr =  1.00E-06,  avg # of iterations =  4.0

     negative rho (up, down):  1.861E-06 0.000E+00

     total cpu time spent up to now is       27.9 secs

     total energy              =    -329.49242862 Ry
     Harris-Foulkes estimate   =    -329.49243090 Ry
     estimated scf accuracy    <       0.00011327 Ry

     iteration #  2     ecut=    30.00 Ry     beta=0.70
     Davidson diagonalization with overlap
     ethr =  2.06E-07,  avg # of iterations =  3.0

     negative rho (up, down):  1.365E-07 0.000E+00

     total cpu time spent up to now is       28.2 secs

     total energy              =    -329.49243994 Ry
     Harris-Foulkes estimate   =    -329.49249124 Ry
     estimated scf accuracy    <       0.00010850 Ry

     iteration #  3     ecut=    30.00 Ry     beta=0.70
     Davidson diagonalization with overlap
     ethr =  1.97E-07,  avg # of iterations =  2.0

     total cpu time spent up to now is       28.5 secs

     total energy              =    -329.49246166 Ry
     Harris-Foulkes estimate   =    -329.49247633 Ry
     estimated scf accuracy    <       0.00003860 Ry

     iteration #  4     ecut=    30.00 Ry     beta=0.70
     Davidson diagonalization with overlap
     ethr =  7.02E-08,  avg # of iterations =  2.0

     total cpu time spent up to now is       28.7 secs

     total energy              =    -329.49247045 Ry
     Harris-Foulkes estimate   =    -329.49247105 Ry
     estimated scf accuracy    <       0.00000455 Ry

     iteration #  5     ecut=    30.00 Ry     beta=0.70
     Davidson diagonalization with overlap
     ethr =  8.27E-09,  avg # of iterations =  2.0

     total cpu time spent up to now is       28.9 secs

     total energy              =    -329.49247144 Ry
     Harris-Foulkes estimate   =    -329.49247157 Ry
     estimated scf accuracy    <       0.00000073 Ry

     iteration #  6     ecut=    30.00 Ry     beta=0.70
     Davidson diagonalization with overlap
     ethr =  1.32E-09,  avg # of iterations =  2.0

     total cpu time spent up to now is       29.2 secs

     total energy              =    -329.49247170 Ry
     Harris-Foulkes estimate   =    -329.49247161 Ry
     estimated scf accuracy    <       0.00000005 Ry

     iteration #  7     ecut=    30.00 Ry     beta=0.70
     Davidson diagonalization with overlap
     ethr =  9.77E-11,  avg # of iterations =  2.0

     total cpu time spent up to now is       29.5 secs

     total energy              =    -329.49247171 Ry
     Harris-Foulkes estimate   =    -329.49247172 Ry
     estimated scf accuracy    <       0.00000002 Ry

     iteration #  8     ecut=    30.00 Ry     beta=0.70
     Davidson diagonalization with overlap
     ethr =  2.95E-11,  avg # of iterations =  2.0

     total cpu time spent up to now is       29.8 secs

     total energy              =    -329.49247171 Ry
     Harris-Foulkes estimate   =    -329.49247172 Ry
     estimated scf accuracy    <          2.5E-09 Ry

     iteration #  9     ecut=    30.00 Ry     beta=0.70
     Davidson diagonalization with overlap
     ethr =  4.53E-12,  avg # of iterations =  3.0

     total cpu time spent up to now is       30.1 secs

     total energy              =    -329.49247171 Ry
     Harris-Foulkes estimate   =    -329.49247171 Ry
     estimated scf accuracy    <          9.2E-10 Ry

     iteration # 10     ecut=    30.00 Ry     beta=0.70
     Davidson diagonalization with overlap
     ethr =  1.67E-12,  avg # of iterations =  2.0

     total cpu time spent up to now is       30.3 secs

     End of self-consistent calculation

          k = 0.0000 0.0000 0.0000 ( 22119 PWs)   bands (ev):

    -8.5333  -7.7961  -7.6904  -7.2539  -6.8755  -6.8307  -6.6076  -6.4958
    -6.3287  -6.0833  -5.9500  -5.7808  -5.7353  -5.6942  -5.4572  -5.3608
    -5.3185  -5.2445  -5.2049  -5.1770  -5.1742  -5.1175  -4.9983  -4.9140
    -4.8256  -4.7367  -4.4697  -3.7793  -2.4532  -2.1867  -0.5550  -0.1915
     0.4875   0.8470

     the Fermi energy is    -3.7480 ev

!    total energy              =    -329.49247172 Ry
     Harris-Foulkes estimate   =    -329.49247171 Ry
     estimated scf accuracy    <          8.1E-11 Ry

     The total energy is the sum of the following terms:

     one-electron contribution =    -609.48007632 Ry
     hartree contribution      =     326.16447629 Ry
     xc contribution           =     -51.40626336 Ry
     ewald contribution        =       5.23347655 Ry
     smearing contrib. (-TS)   =      -0.00408489 Ry

     convergence has been achieved in  10 iterations

     Forces acting on atoms (Ry/au):

     atom    1 type  1   force =    -0.00119984   -0.00074266   -0.00016809
     atom    2 type  1   force =    -0.00153019    0.00159805   -0.00191617
     atom    3 type  1   force =    -0.00077064    0.00003065   -0.00188244
     atom    4 type  1   force =     0.00248155    0.00033852    0.00425304
     atom    5 type  1   force =     0.00101913   -0.00122457   -0.00028633

     Total force =     0.006458     Total SCF correction =     0.000044

     number of scf cycles    =   9
     number of bfgs steps    =   8

     energy   old            =    -329.4923598155 Ry
     energy   new            =    -329.4924717226 Ry

     CASE: energy  _new < energy  _old

     new trust radius        =       0.0118004642 bohr
     new conv_thr            =       0.0000000001 Ry


ATOMIC_POSITIONS (bohr)
Au      -1.670693038   2.329043716  -1.092225004
Au      -0.889612140   3.837439049   3.804705636
Au       2.995335682   1.660901226   0.700531081
Au       3.856514317   3.322586519   5.758295252
Au       7.547107179   1.274949489   2.817568035



     Writing output data file pwscf.save
     Check: negative starting charge=   -0.006451
     NEW-OLD atomic charge density approx. for the potential
     Check: negative starting charge=   -0.006457

     negative rho (up, down):  1.672E-05 0.000E+00

     total cpu time spent up to now is       30.6 secs

     per-process dynamical memory:    50.7 Mb

     Self-consistent Calculation

     iteration #  1     ecut=    30.00 Ry     beta=0.70
     Davidson diagonalization with overlap
     ethr =  1.00E-06,  avg # of iterations =  4.0

     Threshold (ethr) on eigenvalues was too large:
     Diagonalizing with lowered threshold

     Davidson diagonalization with overlap
     ethr =  4.70E-08,  avg # of iterations =  1.0

     negative rho (up, down):  1.142E-08 0.000E+00

     total cpu time spent up to now is       31.2 secs

     total energy              =    -329.49251398 Ry
     Harris-Foulkes estimate   =    -329.49251753 Ry
     estimated scf accuracy    <       0.00002603 Ry

     iteration #  2     ecut=    30.00 Ry     beta=0.70
     Davidson diagonalization with overlap
     ethr =  4.73E-08,  avg # of iterations =  3.0

     total cpu time spent up to now is       31.5 secs

     total energy              =    -329.49251795 Ry
     Harris-Foulkes estimate   =    -329.49252696 Ry
     estimated scf accuracy    <       0.00001920 Ry

     iteration #  3     ecut=    30.00 Ry     beta=0.70
     Davidson diagonalization with overlap
     ethr =  3.49E-08,  avg # of iterations =  2.0

     total cpu time spent up to now is       31.8 secs

     total energy              =    -329.49252230 Ry
     Harris-Foulkes estimate   =    -329.49252401 Ry
     estimated scf accuracy    <       0.00000574 Ry

     iteration #  4     ecut=    30.00 Ry     beta=0.70
     Davidson diagonalization with overlap
     ethr =  1.04E-08,  avg # of iterations =  2.0

     total cpu time spent up to now is       32.0 secs

     total energy              =    -329.49252395 Ry
     Harris-Foulkes estimate   =    -329.49252413 Ry
     estimated scf accuracy    <       0.00000163 Ry

     iteration #  5     ecut=    30.00 Ry     beta=0.70
     Davidson diagonalization with overlap
     ethr =  2.96E-09,  avg # of iterations =  2.0

     total cpu time spent up to now is       32.3 secs

     total energy              =    -329.49252420 Ry
     Harris-Foulkes estimate   =    -329.49252429 Ry
     estimated scf accuracy    <       0.00000016 Ry

     iteration #  6     ecut=    30.00 Ry     beta=0.70
     Davidson diagonalization with overlap
     ethr =  2.93E-10,  avg # of iterations =  2.0

     total cpu time spent up to now is       32.5 secs

     total energy              =    -329.49252427 Ry
     Harris-Foulkes estimate   =    -329.49252425 Ry
     estimated scf accuracy    <       0.00000001 Ry

     iteration #  7     ecut=    30.00 Ry     beta=0.70
     Davidson diagonalization with overlap
     ethr =  2.06E-11,  avg # of iterations =  3.0

     total cpu time spent up to now is       32.8 secs

     total energy              =    -329.49252433 Ry
     Harris-Foulkes estimate   =    -329.49252427 Ry
     estimated scf accuracy    <          3.5E-09 Ry

     iteration #  8     ecut=    30.00 Ry     beta=0.70
     Davidson diagonalization with overlap
     ethr =  6.43E-12,  avg # of iterations =  2.0

     total cpu time spent up to now is       33.1 secs

     total energy              =    -329.49252438 Ry
     Harris-Foulkes estimate   =    -329.49252433 Ry
     estimated scf accuracy    <          6.4E-10 Ry

     iteration #  9     ecut=    30.00 Ry     beta=0.70
     Davidson diagonalization with overlap
     ethr =  1.17E-12,  avg # of iterations =  3.0

     total cpu time spent up to now is       33.4 secs

     total energy              =    -329.49252435 Ry
     Harris-Foulkes estimate   =    -329.49252438 Ry
     estimated scf accuracy    <          1.6E-10 Ry

     iteration # 10     ecut=    30.00 Ry     beta=0.70
     Davidson diagonalization with overlap
     ethr =  2.90E-13,  avg # of iterations =  2.0

     total cpu time spent up to now is       33.7 secs

     End of self-consistent calculation

          k = 0.0000 0.0000 0.0000 ( 22119 PWs)   bands (ev):

    -8.5419  -7.8032  -7.6886  -7.2525  -6.8673  -6.8358  -6.6112  -6.4989
    -6.3239  -6.0901  -5.9510  -5.7814  -5.7373  -5.6950  -5.4620  -5.3570
    -5.3162  -5.2485  -5.2039  -5.1784  -5.1732  -5.1171  -4.9973  -4.9186
    -4.8246  -4.7354  -4.4745  -3.7758  -2.4493  -2.1922  -0.5553  -0.1889
     0.4865   0.8453

     the Fermi energy is    -3.7434 ev

!    total energy              =    -329.49252437 Ry
     Harris-Foulkes estimate   =    -329.49252435 Ry
     estimated scf accuracy    <          1.4E-11 Ry

     The total energy is the sum of the following terms:

     one-electron contribution =    -609.55751325 Ry
     hartree contribution      =     326.20121746 Ry
     xc contribution           =     -51.40618365 Ry
     ewald contribution        =       5.27427118 Ry
     smearing contrib. (-TS)   =      -0.00431610 Ry

     convergence has been achieved in  10 iterations

     Forces acting on atoms (Ry/au):

     atom    1 type  1   force =    -0.00155143   -0.00062675   -0.00032566
     atom    2 type  1   force =    -0.00072323    0.00173917   -0.00106678
     atom    3 type  1   force =    -0.00020479   -0.00046260   -0.00214372
     atom    4 type  1   force =     0.00110474    0.00064711    0.00370687
     atom    5 type  1   force =     0.00137471   -0.00129693   -0.00017070

     Total force =     0.005606     Total SCF correction =     0.000017

     number of scf cycles    =  10
     number of bfgs steps    =   9

     energy   old            =    -329.4924717226 Ry
     energy   new            =    -329.4925243671 Ry

     CASE: energy  _new < energy  _old

     new trust radius        =       0.0129805106 bohr
     new conv_thr            =            1.0E-10 Ry


ATOMIC_POSITIONS (bohr)
Au      -1.672866206   2.325325794  -1.095242829
Au      -0.889263896   3.842507629   3.797648909
Au       2.990870610   1.665118713   0.703234855
Au       3.864049805   3.321135873   5.768764526
Au       7.545861686   1.270831992   2.814469539



     Writing output data file pwscf.save
     Check: negative starting charge=   -0.006457
     NEW-OLD atomic charge density approx. for the potential
     Check: negative starting charge=   -0.006457

     negative rho (up, down):  1.186E-05 0.000E+00

     total cpu time spent up to now is       34.1 secs

     per-process dynamical memory:    50.7 Mb

     Self-consistent Calculation

     iteration #  1     ecut=    30.00 Ry     beta=0.70
     Davidson diagonalization with overlap
     ethr =  1.00E-06,  avg # of iterations =  4.0

     Threshold (ethr) on eigenvalues was too large:
     Diagonalizing with lowered threshold

     Davidson diagonalization with overlap
     ethr =  3.73E-08,  avg # of iterations =  1.0

     total cpu time spent up to now is       34.7 secs

     total energy              =    -329.49256725 Ry
     Harris-Foulkes estimate   =    -329.49256877 Ry
     estimated scf accuracy    <       0.00002082 Ry

     iteration #  2     ecut=    30.00 Ry     beta=0.70
     Davidson diagonalization with overlap
     ethr =  3.79E-08,  avg # of iterations =  3.0

     total cpu time spent up to now is       35.0 secs

     total energy              =    -329.49257102 Ry
     Harris-Foulkes estimate   =    -329.49257774 Ry
     estimated scf accuracy    <       0.00001554 Ry

     iteration #  3     ecut=    30.00 Ry     beta=0.70
     Davidson diagonalization with overlap
     ethr =  2.83E-08,  avg # of iterations =  2.0

     total cpu time spent up to now is       35.3 secs

     total energy              =    -329.49257487 Ry
     Harris-Foulkes estimate   =    -329.49257563 Ry
     estimated scf accuracy    <       0.00000359 Ry

     iteration #  4     ecut=    30.00 Ry     beta=0.70
     Davidson diagonalization with overlap
     ethr =  6.52E-09,  avg # of iterations =  2.0

     total cpu time spent up to now is       35.5 secs

     total energy              =    -329.49257611 Ry
     Harris-Foulkes estimate   =    -329.49257621 Ry
     estimated scf accuracy    <       0.00000151 Ry

     iteration #  5     ecut=    30.00 Ry     beta=0.70
     Davidson diagonalization with overlap
     ethr =  2.75E-09,  avg # of iterations =  2.0

     total cpu time spent up to now is       35.9 secs

     total energy              =    -329.49257635 Ry
     Harris-Foulkes estimate   =    -329.49257641 Ry
     estimated scf accuracy    <       0.00000012 Ry

     iteration #  6     ecut=    30.00 Ry     beta=0.70
     Davidson diagonalization with overlap
     ethr =  2.09E-10,  avg # of iterations =  3.0

     total cpu time spent up to now is       36.2 secs

     total energy              =    -329.49257642 Ry
     Harris-Foulkes estimate   =    -329.49257638 Ry
     estimated scf accuracy    <       0.00000001 Ry

     iteration #  7     ecut=    30.00 Ry     beta=0.70
     Davidson diagonalization with overlap
     ethr =  1.84E-11,  avg # of iterations =  3.0

     total cpu time spent up to now is       36.7 secs

     total energy              =    -329.49257649 Ry
     Harris-Foulkes estimate   =    -329.49257643 Ry
     estimated scf accuracy    <          2.7E-09 Ry

     iteration #  8     ecut=    30.00 Ry     beta=0.70
     Davidson diagonalization with overlap
     ethr =  4.95E-12,  avg # of iterations =  2.0

     total cpu time spent up to now is       37.0 secs

     total energy              =    -329.49257651 Ry
     Harris-Foulkes estimate   =    -329.49257649 Ry
     estimated scf accuracy    <          5.7E-10 Ry

     iteration #  9     ecut=    30.00 Ry     beta=0.70
     Davidson diagonalization with overlap
     ethr =  1.04E-12,  avg # of iterations =  2.0

     total cpu time spent up to now is       37.2 secs

     total energy              =    -329.49257651 Ry
     Harris-Foulkes estimate   =    -329.49257651 Ry
     estimated scf accuracy    <          1.3E-10 Ry

     iteration # 10     ecut=    30.00 Ry     beta=0.70
     Davidson diagonalization with overlap
     ethr =  2.42E-13,  avg # of iterations =  2.0

     total cpu time spent up to now is       37.4 secs

     End of self-consistent calculation

          k = 0.0000 0.0000 0.0000 ( 22119 PWs)   bands (ev):

    -8.5417  -7.8023  -7.6793  -7.2455  -6.8575  -6.8355  -6.6127  -6.4965
    -6.3162  -6.0930  -5.9513  -5.7804  -5.7376  -5.6938  -5.4642  -5.3540
    -5.3142  -5.2512  -5.2031  -5.1793  -5.1723  -5.1176  -4.9970  -4.9232
    -4.8266  -4.7346  -4.4793  -3.7740  -2.4481  -2.1995  -0.5543  -0.1875
     0.4847   0.8431

     the Fermi energy is    -3.7407 ev

!    total energy              =    -329.49257651 Ry
     Harris-Foulkes estimate   =    -329.49257651 Ry
     estimated scf accuracy    <          6.9E-12 Ry

     The total energy is the sum of the following terms:

     one-electron contribution =    -609.23393013 Ry
     hartree contribution      =     326.04036109 Ry
     xc contribution           =     -51.40467142 Ry
     ewald contribution        =       5.11016049 Ry
     smearing contrib. (-TS)   =      -0.00449653 Ry

     convergence has been achieved in  10 iterations

     Forces acting on atoms (Ry/au):

     atom    1 type  1   force =    -0.00161811   -0.00049202   -0.00030656
     atom    2 type  1   force =     0.00040714    0.00169333   -0.00039937
     atom    3 type  1   force =     0.00037310   -0.00062066   -0.00177927
     atom    4 type  1   force =    -0.00013729    0.00059960    0.00246265
     atom    5 type  1   force =     0.00097516   -0.00118025    0.00002255

     Total force =     0.004316     Total SCF correction =     0.000012

     number of scf cycles    =  11
     number of bfgs steps    =  10

     energy   old            =    -329.4925243671 Ry
     energy   new            =    -329.4925765143 Ry

     CASE: energy  _new < energy  _old

     new trust radius        =       0.0163235137 bohr
     new conv_thr            =            1.0E-10 Ry


ATOMIC_POSITIONS (bohr)
Au      -1.677968035   2.320878533  -1.098543772
Au      -0.888351875   3.850491493   3.790044282
Au       2.987342284   1.667964460   0.702276887
Au       3.871204490   3.320843717   5.783433617
Au       7.546425136   1.264741796   2.811663986



     Writing output data file pwscf.save
     Check: negative starting charge=   -0.006457
     NEW-OLD atomic charge density approx. for the potential
     Check: negative starting charge=   -0.006451

     negative rho (up, down):  2.529E-05 0.000E+00

     total cpu time spent up to now is       37.7 secs

     per-process dynamical memory:    50.7 Mb

     Self-consistent Calculation

     iteration #  1     ecut=    30.00 Ry     beta=0.70
     Davidson diagonalization with overlap
     ethr =  1.00E-06,  avg # of iterations =  4.0

     Threshold (ethr) on eigenvalues was too large:
     Diagonalizing with lowered threshold

     Davidson diagonalization with overlap
     ethr =  5.63E-08,  avg # of iterations =  1.0

     negative rho (up, down):  3.853E-08 0.000E+00

     total cpu time spent up to now is       38.4 secs

     total energy              =    -329.49261086 Ry
     Harris-Foulkes estimate   =    -329.49261369 Ry
     estimated scf accuracy    <       0.00003127 Ry

     iteration #  2     ecut=    30.00 Ry     beta=0.70
     Davidson diagonalization with overlap
     ethr =  5.69E-08,  avg # of iterations =  3.0

     total cpu time spent up to now is       38.7 secs

     total energy              =    -329.49261624 Ry
     Harris-Foulkes estimate   =    -329.49262700 Ry
     estimated scf accuracy    <       0.00002453 Ry

     iteration #  3     ecut=    30.00 Ry     beta=0.70
     Davidson diagonalization with overlap
     ethr =  4.46E-08,  avg # of iterations =  2.0

     total cpu time spent up to now is       38.9 secs

     total energy              =    -329.49262216 Ry
     Harris-Foulkes estimate   =    -329.49262310 Ry
     estimated scf accuracy    <       0.00000416 Ry

     iteration #  4     ecut=    30.00 Ry     beta=0.70
     Davidson diagonalization with overlap
     ethr =  7.56E-09,  avg # of iterations =  3.0

     total cpu time spent up to now is       39.2 secs

     total energy              =    -329.49262341 Ry
     Harris-Foulkes estimate   =    -329.49262399 Ry
     estimated scf accuracy    <       0.00000268 Ry

     iteration #  5     ecut=    30.00 Ry     beta=0.70
     Davidson diagonalization with overlap
     ethr =  4.87E-09,  avg # of iterations =  2.0

     total cpu time spent up to now is       39.5 secs

     total energy              =    -329.49262386 Ry
     Harris-Foulkes estimate   =    -329.49262393 Ry
     estimated scf accuracy    <       0.00000016 Ry

     iteration #  6     ecut=    30.00 Ry     beta=0.70
     Davidson diagonalization with overlap
     ethr =  2.99E-10,  avg # of iterations =  3.0

     total cpu time spent up to now is       39.7 secs

     total energy              =    -329.49262407 Ry
     Harris-Foulkes estimate   =    -329.49262391 Ry
     estimated scf accuracy    <       0.00000002 Ry

     iteration #  7     ecut=    30.00 Ry     beta=0.70
     Davidson diagonalization with overlap
     ethr =  3.05E-11,  avg # of iterations =  3.0

     total cpu time spent up to now is       40.0 secs

     total energy              =    -329.49262404 Ry
     Harris-Foulkes estimate   =    -329.49262407 Ry
     estimated scf accuracy    <          4.4E-09 Ry

     iteration #  8     ecut=    30.00 Ry     beta=0.70
     Davidson diagonalization with overlap
     ethr =  7.92E-12,  avg # of iterations =  2.0

     total cpu time spent up to now is       40.4 secs

     total energy              =    -329.49262410 Ry
     Harris-Foulkes estimate   =    -329.49262404 Ry
     estimated scf accuracy    <          4.2E-10 Ry

     iteration #  9     ecut=    30.00 Ry     beta=0.70
     Davidson diagonalization with overlap
     ethr =  7.57E-13,  avg # of iterations =  2.0

     total cpu time spent up to now is       40.7 secs

     total energy              =    -329.49262410 Ry
     Harris-Foulkes estimate   =    -329.49262410 Ry
     estimated scf accuracy    <          1.3E-10 Ry

     iteration # 10     ecut=    30.00 Ry     beta=0.70
     Davidson diagonalization with overlap
     ethr =  2.32E-13,  avg # of iterations =  2.0

     total cpu time spent up to now is       41.0 secs

     End of self-consistent calculation

          k = 0.0000 0.0000 0.0000 ( 22119 PWs)   bands (ev):

    -8.5330  -7.7930  -7.6632  -7.2325  -6.8453  -6.8300  -6.6099  -6.4888
    -6.3055  -6.0926  -5.9497  -5.7778  -5.7361  -5.6905  -5.4641  -5.3515
    -5.3127  -5.2529  -5.2028  -5.1796  -5.1714  -5.1190  -4.9974  -4.9285
    -4.8313  -4.7346  -4.4847  -3.7740  -2.4489  -2.2094  -0.5520  -0.1872
     0.4821   0.8404

     the Fermi energy is    -3.7401 ev

!    total energy              =    -329.49262413 Ry
     Harris-Foulkes estimate   =    -329.49262410 Ry
     estimated scf accuracy    <          2.4E-11 Ry

     The total energy is the sum of the following terms:

     one-electron contribution =    -608.48498047 Ry
     hartree contribution      =     325.66974714 Ry
     xc contribution           =     -51.40160504 Ry
     ewald contribution        =       4.72884912 Ry
     smearing contrib. (-TS)   =      -0.00463488 Ry

     convergence has been achieved in  10 iterations

     Forces acting on atoms (Ry/au):

     atom    1 type  1   force =    -0.00129692   -0.00028615    0.00000950
     atom    2 type  1   force =     0.00173947    0.00141591   -0.00005421
     atom    3 type  1   force =     0.00084981   -0.00049646   -0.00094627
     atom    4 type  1   force =    -0.00107331    0.00022553    0.00064812
     atom    5 type  1   force =    -0.00021905   -0.00085882    0.00034286

     Total force =     0.003345     Total SCF correction =     0.000016

     number of scf cycles    =  12
     number of bfgs steps    =  11

     energy   old            =    -329.4925765143 Ry
     energy   new            =    -329.4926241280 Ry

     CASE: energy  _new < energy  _old

     new trust radius        =       0.0088157934 bohr
     new conv_thr            =            1.0E-10 Ry


ATOMIC_POSITIONS (bohr)
Au      -1.682307857   2.318201704  -1.100345479
Au      -0.885650850   3.856435742   3.786346941
Au       2.986611286   1.668703484   0.700239711
Au       3.873168922   3.321188702   5.792020829
Au       7.546830498   1.260390368   2.810612998



     Writing output data file pwscf.save
     Check: negative starting charge=   -0.006451
     NEW-OLD atomic charge density approx. for the potential
     Check: negative starting charge=   -0.006446

     negative rho (up, down):  3.444E-06 0.000E+00

     total cpu time spent up to now is       41.3 secs

     per-process dynamical memory:    50.7 Mb

     Self-consistent Calculation

     iteration #  1     ecut=    30.00 Ry     beta=0.70
     Davidson diagonalization with overlap
     ethr =  1.00E-06,  avg # of iterations =  4.0

     Threshold (ethr) on eigenvalues was too large:
     Diagonalizing with lowered threshold

     Davidson diagonalization with overlap
     ethr =  2.18E-08,  avg # of iterations =  2.0

     total cpu time spent up to now is       42.2 secs

     total energy              =    -329.49264052 Ry
     Harris-Foulkes estimate   =    -329.49264303 Ry
     estimated scf accuracy    <       0.00001291 Ry

     iteration #  2     ecut=    30.00 Ry     beta=0.70
     Davidson diagonalization with overlap
     ethr =  2.35E-08,  avg # of iterations =  2.0

     total cpu time spent up to now is       42.5 secs

     total energy              =    -329.49264305 Ry
     Harris-Foulkes estimate   =    -329.49264756 Ry
     estimated scf accuracy    <       0.00001045 Ry

     iteration #  3     ecut=    30.00 Ry     beta=0.70
     Davidson diagonalization with overlap
     ethr =  1.90E-08,  avg # of iterations =  2.0

     total cpu time spent up to now is       43.0 secs

     total energy              =    -329.49264546 Ry
     Harris-Foulkes estimate   =    -329.49264570 Ry
     estimated scf accuracy    <       0.00000099 Ry

     iteration #  4     ecut=    30.00 Ry     beta=0.70
     Davidson diagonalization with overlap
     ethr =  1.81E-09,  avg # of iterations =  3.0

     total cpu time spent up to now is       43.4 secs

     total energy              =    -329.49264594 Ry
     Harris-Foulkes estimate   =    -329.49264602 Ry
     estimated scf accuracy    <       0.00000106 Ry

     iteration #  5     ecut=    30.00 Ry     beta=0.70
     Davidson diagonalization with overlap
     ethr =  1.81E-09,  avg # of iterations =  2.0

     total cpu time spent up to now is       43.7 secs

     total energy              =    -329.49264603 Ry
     Harris-Foulkes estimate   =    -329.49264616 Ry
     estimated scf accuracy    <       0.00000007 Ry

     iteration #  6     ecut=    30.00 Ry     beta=0.70
     Davidson diagonalization with overlap
     ethr =  1.34E-10,  avg # of iterations =  3.0

[...]
Au       2.987660263   1.671822999   0.676082091
Au       3.872726971   3.317490681   5.837951556
Au       7.517623108   1.217146403   2.823727033



     Writing output data file pwscf.save
     Check: negative starting charge=   -0.006433
     NEW-OLD atomic charge density approx. for the potential
     Check: negative starting charge=   -0.006429

     negative rho (up, down):  3.476E-05 0.000E+00

     total cpu time spent up to now is       63.2 secs

     per-process dynamical memory:    50.7 Mb

     Self-consistent Calculation

     iteration #  1     ecut=    30.00 Ry     beta=0.70
     Davidson diagonalization with overlap
     ethr =  1.00E-06,  avg # of iterations =  4.0

     negative rho (up, down):  8.221E-08 0.000E+00

     total cpu time spent up to now is       63.8 secs

     total energy              =    -329.49278745 Ry
     Harris-Foulkes estimate   =    -329.49280461 Ry
     estimated scf accuracy    <       0.00005527 Ry

     iteration #  2     ecut=    30.00 Ry     beta=0.70
     Davidson diagonalization with overlap
     ethr =  1.00E-07,  avg # of iterations =  3.0

     total cpu time spent up to now is       64.2 secs

     total energy              =    -329.49279594 Ry
     Harris-Foulkes estimate   =    -329.49282045 Ry
     estimated scf accuracy    <       0.00005233 Ry

     iteration #  3     ecut=    30.00 Ry     beta=0.70
     Davidson diagonalization with overlap
     ethr =  9.51E-08,  avg # of iterations =  2.0

     total cpu time spent up to now is       64.6 secs

     total energy              =    -329.49280559 Ry
     Harris-Foulkes estimate   =    -329.49280892 Ry
     estimated scf accuracy    <       0.00000546 Ry

     iteration #  4     ecut=    30.00 Ry     beta=0.70
     Davidson diagonalization with overlap
     ethr =  9.93E-09,  avg # of iterations =  2.0

     total cpu time spent up to now is       65.0 secs

     total energy              =    -329.49280632 Ry
     Harris-Foulkes estimate   =    -329.49280846 Ry
     estimated scf accuracy    <       0.00000513 Ry

     iteration #  5     ecut=    30.00 Ry     beta=0.70
     Davidson diagonalization with overlap
     ethr =  9.32E-09,  avg # of iterations =  2.0

     total cpu time spent up to now is       65.4 secs

     total energy              =    -329.49280708 Ry
     Harris-Foulkes estimate   =    -329.49280726 Ry
     estimated scf accuracy    <       0.00000023 Ry

     iteration #  6     ecut=    30.00 Ry     beta=0.70
     Davidson diagonalization with overlap
     ethr =  4.11E-10,  avg # of iterations =  3.0

     total cpu time spent up to now is       65.8 secs

     total energy              =    -329.49280714 Ry
     Harris-Foulkes estimate   =    -329.49280716 Ry
     estimated scf accuracy    <       0.00000003 Ry

     iteration #  7     ecut=    30.00 Ry     beta=0.70
     Davidson diagonalization with overlap
     ethr =  4.94E-11,  avg # of iterations =  3.0

     total cpu time spent up to now is       66.2 secs

     total energy              =    -329.49280713 Ry
     Harris-Foulkes estimate   =    -329.49280715 Ry
     estimated scf accuracy    <          9.5E-09 Ry

     iteration #  8     ecut=    30.00 Ry     beta=0.70
     Davidson diagonalization with overlap
     ethr =  1.73E-11,  avg # of iterations =  2.0

     total cpu time spent up to now is       66.6 secs

     total energy              =    -329.49280711 Ry
     Harris-Foulkes estimate   =    -329.49280713 Ry
     estimated scf accuracy    <          1.2E-09 Ry

     iteration #  9     ecut=    30.00 Ry     beta=0.70
     Davidson diagonalization with overlap
     ethr =  2.18E-12,  avg # of iterations =  3.0

     total cpu time spent up to now is       67.1 secs

     total energy              =    -329.49280712 Ry
     Harris-Foulkes estimate   =    -329.49280711 Ry
     estimated scf accuracy    <          2.9E-10 Ry

     iteration # 10     ecut=    30.00 Ry     beta=0.70
     Davidson diagonalization with overlap
     ethr =  5.35E-13,  avg # of iterations =  2.0

     total cpu time spent up to now is       67.5 secs

     End of self-consistent calculation

          k = 0.0000 0.0000 0.0000 ( 22119 PWs)   bands (ev):

    -8.5049  -7.7670  -7.6513  -7.2211  -6.8560  -6.8125  -6.5941  -6.4751
    -6.3038  -6.0776  -5.9455  -5.7709  -5.7264  -5.6872  -5.4523  -5.3572
    -5.3172  -5.2473  -5.2060  -5.1809  -5.1670  -5.1238  -4.9997  -4.9274
    -4.8457  -4.7297  -4.4841  -3.7823  -2.4496  -2.2136  -0.5464  -0.1935
     0.4718   0.8336

     the Fermi energy is    -3.7496 ev

!    total energy              =    -329.49280713 Ry
     Harris-Foulkes estimate   =    -329.49280712 Ry
     estimated scf accuracy    <          3.7E-11 Ry

     The total energy is the sum of the following terms:

     one-electron contribution =    -607.21736588 Ry
     hartree contribution      =     325.04353862 Ry
     xc contribution           =     -51.39778085 Ry
     ewald contribution        =       4.08316372 Ry
     smearing contrib. (-TS)   =      -0.00436274 Ry

     convergence has been achieved in  10 iterations

     Forces acting on atoms (Ry/au):

     atom    1 type  1   force =     0.00162655    0.00038831    0.00081150
     atom    2 type  1   force =    -0.00015255   -0.00005351   -0.00095731
     atom    3 type  1   force =    -0.00132910    0.00050135   -0.00014175
     atom    4 type  1   force =     0.00065574   -0.00036905   -0.00121723
     atom    5 type  1   force =    -0.00080065   -0.00046710    0.00150479

     Total force =     0.003407     Total SCF correction =     0.000021

     number of scf cycles    =  18
     number of bfgs steps    =  17

     energy   old            =    -329.4927766732 Ry
     energy   new            =    -329.4928071327 Ry

     CASE: energy  _new < energy  _old

     new trust radius        =       0.0120142468 bohr
     new conv_thr            =            1.0E-10 Ry


ATOMIC_POSITIONS (bohr)
Au      -1.716025123   2.300285121  -1.087565692
Au      -0.815379759   3.924821292   3.738064549
Au       2.987061720   1.671316910   0.670933069
Au       3.873131415   3.315815971   5.835704050
Au       7.509863747   1.212680706   2.831739024



     Writing output data file pwscf.save
     Check: negative starting charge=   -0.006429
     NEW-OLD atomic charge density approx. for the potential
     Check: negative starting charge=   -0.006426

     negative rho (up, down):  1.202E-05 0.000E+00

     total cpu time spent up to now is       67.8 secs

     per-process dynamical memory:    50.7 Mb

     Self-consistent Calculation

     iteration #  1     ecut=    30.00 Ry     beta=0.70
     Davidson diagonalization with overlap
     ethr =  1.00E-06,  avg # of iterations =  4.0

     Threshold (ethr) on eigenvalues was too large:
     Diagonalizing with lowered threshold

     Davidson diagonalization with overlap
     ethr =  5.14E-08,  avg # of iterations =  1.0

     negative rho (up, down):  1.156E-08 0.000E+00

     total cpu time spent up to now is       68.7 secs

     total energy              =    -329.49281966 Ry
     Harris-Foulkes estimate   =    -329.49282777 Ry
     estimated scf accuracy    <       0.00002879 Ry

     iteration #  2     ecut=    30.00 Ry     beta=0.70
     Davidson diagonalization with overlap
     ethr =  5.23E-08,  avg # of iterations =  3.0

     total cpu time spent up to now is       69.1 secs

     total energy              =    -329.49282336 Ry
     Harris-Foulkes estimate   =    -329.49283689 Ry
     estimated scf accuracy    <       0.00002917 Ry

     iteration #  3     ecut=    30.00 Ry     beta=0.70
     Davidson diagonalization with overlap
     ethr =  5.23E-08,  avg # of iterations =  2.0

     total cpu time spent up to now is       69.5 secs

     total energy              =    -329.49282882 Ry
     Harris-Foulkes estimate   =    -329.49283076 Ry
     estimated scf accuracy    <       0.00000331 Ry

     iteration #  4     ecut=    30.00 Ry     beta=0.70
     Davidson diagonalization with overlap
     ethr =  6.02E-09,  avg # of iterations =  3.0

     total cpu time spent up to now is       69.9 secs

     total energy              =    -329.49282932 Ry
     Harris-Foulkes estimate   =    -329.49283037 Ry
     estimated scf accuracy    <       0.00000249 Ry

     iteration #  5     ecut=    30.00 Ry     beta=0.70
     Davidson diagonalization with overlap
     ethr =  4.53E-09,  avg # of iterations =  2.0

     total cpu time spent up to now is       70.3 secs

     total energy              =    -329.49282993 Ry
     Harris-Foulkes estimate   =    -329.49282979 Ry
     estimated scf accuracy    <       0.00000012 Ry

     iteration #  6     ecut=    30.00 Ry     beta=0.70
     Davidson diagonalization with overlap
     ethr =  2.18E-10,  avg # of iterations =  3.0

     total cpu time spent up to now is       70.8 secs

     total energy              =    -329.49282993 Ry
     Harris-Foulkes estimate   =    -329.49282997 Ry
     estimated scf accuracy    <       0.00000002 Ry

     iteration #  7     ecut=    30.00 Ry     beta=0.70
     Davidson diagonalization with overlap
     ethr =  3.40E-11,  avg # of iterations =  2.0

     total cpu time spent up to now is       71.2 secs

     total energy              =    -329.49282990 Ry
     Harris-Foulkes estimate   =    -329.49282994 Ry
     estimated scf accuracy    <          5.0E-09 Ry

     iteration #  8     ecut=    30.00 Ry     beta=0.70
     Davidson diagonalization with overlap
     ethr =  9.10E-12,  avg # of iterations =  2.0

     total cpu time spent up to now is       71.6 secs

     total energy              =    -329.49282986 Ry
     Harris-Foulkes estimate   =    -329.49282990 Ry
     estimated scf accuracy    <          8.3E-10 Ry

     iteration #  9     ecut=    30.00 Ry     beta=0.70
     Davidson diagonalization with overlap
     ethr =  1.51E-12,  avg # of iterations =  2.0

     total cpu time spent up to now is       72.0 secs

     total energy              =    -329.49282984 Ry
     Harris-Foulkes estimate   =    -329.49282986 Ry
     estimated scf accuracy    <          1.3E-10 Ry

     iteration # 10     ecut=    30.00 Ry     beta=0.70
     Davidson diagonalization with overlap
     ethr =  2.31E-13,  avg # of iterations =  2.0

     total cpu time spent up to now is       72.4 secs

     End of self-consistent calculation

          k = 0.0000 0.0000 0.0000 ( 22119 PWs)   bands (ev):

    -8.5120  -7.7772  -7.6569  -7.2316  -6.8651  -6.8171  -6.6057  -6.4799
    -6.3092  -6.0776  -5.9532  -5.7727  -5.7284  -5.6893  -5.4525  -5.3585
    -5.3171  -5.2457  -5.2045  -5.1823  -5.1677  -5.1239  -4.9998  -4.9243
    -4.8463  -4.7264  -4.4805  -3.7791  -2.4487  -2.2068  -0.5475  -0.1932
     0.4716   0.8324

     the Fermi energy is    -3.7465 ev

!    total energy              =    -329.49282986 Ry
     Harris-Foulkes estimate   =    -329.49282984 Ry
     estimated scf accuracy    <          1.3E-11 Ry

     The total energy is the sum of the following terms:

     one-electron contribution =    -607.77575388 Ry
     hartree contribution      =     325.31910391 Ry
     xc contribution           =     -51.40011884 Ry
     ewald contribution        =       4.36829609 Ry
     smearing contrib. (-TS)   =      -0.00435715 Ry

     convergence has been achieved in  10 iterations

     Forces acting on atoms (Ry/au):

     atom    1 type  1   force =     0.00091829    0.00022661   -0.00030527
     atom    2 type  1   force =    -0.00069263    0.00024649   -0.00023677
     atom    3 type  1   force =    -0.00076995    0.00034460   -0.00011399
     atom    4 type  1   force =     0.00039838    0.00002367   -0.00039167
     atom    5 type  1   force =     0.00014592   -0.00084136    0.00104769

     Total force =     0.002109     Total SCF correction =     0.000015

     number of scf cycles    =  19
     number of bfgs steps    =  18

     energy   old            =    -329.4928071327 Ry
     energy   new            =    -329.4928298641 Ry

     CASE: energy  _new < energy  _old

     new trust radius        =       0.0040290560 bohr
     new conv_thr            =            1.0E-10 Ry


ATOMIC_POSITIONS (bohr)
Au      -1.714121288   2.300872537  -1.086472691
Au      -0.815081882   3.925889603   3.736110388
Au       2.985658303   1.671953764   0.670391953
Au       3.874253266   3.315177538   5.833974213
Au       7.507943600   1.211026559   2.834871136



     Writing output data file pwscf.save
     Check: negative starting charge=   -0.006426
     NEW-OLD atomic charge density approx. for the potential
     Check: negative starting charge=   -0.006426

     negative rho (up, down):  1.564E-08 0.000E+00

     total cpu time spent up to now is       72.7 secs

     per-process dynamical memory:    50.7 Mb

     Self-consistent Calculation

     iteration #  1     ecut=    30.00 Ry     beta=0.70
     Davidson diagonalization with overlap
     ethr =  1.00E-06,  avg # of iterations =  3.0

     Threshold (ethr) on eigenvalues was too large:
     Diagonalizing with lowered threshold

     Davidson diagonalization with overlap
     ethr =  4.30E-09,  avg # of iterations =  2.0

     total cpu time spent up to now is       73.7 secs

     total energy              =    -329.49283519 Ry
     Harris-Foulkes estimate   =    -329.49283517 Ry
     estimated scf accuracy    <       0.00000248 Ry

     iteration #  2     ecut=    30.00 Ry     beta=0.70
     Davidson diagonalization with overlap
     ethr =  4.51E-09,  avg # of iterations =  3.0

     total cpu time spent up to now is       74.1 secs

     total energy              =    -329.49283529 Ry
     Harris-Foulkes estimate   =    -329.49283685 Ry
     estimated scf accuracy    <       0.00000340 Ry

     iteration #  3     ecut=    30.00 Ry     beta=0.70
     Davidson diagonalization with overlap
     ethr =  4.51E-09,  avg # of iterations =  2.0

     total cpu time spent up to now is       74.5 secs

     total energy              =    -329.49283601 Ry
     Harris-Foulkes estimate   =    -329.49283616 Ry
     estimated scf accuracy    <       0.00000046 Ry

     iteration #  4     ecut=    30.00 Ry     beta=0.70
     Davidson diagonalization with overlap
     ethr =  8.44E-10,  avg # of iterations =  2.0

     total cpu time spent up to now is       74.9 secs

     total energy              =    -329.49283612 Ry
     Harris-Foulkes estimate   =    -329.49283618 Ry
     estimated scf accuracy    <       0.00000021 Ry

     iteration #  5     ecut=    30.00 Ry     beta=0.70
     Davidson diagonalization with overlap
     ethr =  3.81E-10,  avg # of iterations =  2.0

     total cpu time spent up to now is       75.3 secs

     total energy              =    -329.49283618 Ry
     Harris-Foulkes estimate   =    -329.49283616 Ry
     estimated scf accuracy    <          7.8E-09 Ry

     iteration #  6     ecut=    30.00 Ry     beta=0.70
     Davidson diagonalization with overlap
     ethr =  1.42E-11,  avg # of iterations =  3.0

     total cpu time spent up to now is       75.7 secs

     total energy              =    -329.49283614 Ry
     Harris-Foulkes estimate   =    -329.49283618 Ry
     estimated scf accuracy    <          2.4E-09 Ry

     iteration #  7     ecut=    30.00 Ry     beta=0.70
     Davidson diagonalization with overlap
     ethr =  4.31E-12,  avg # of iterations =  2.0

     total cpu time spent up to now is       76.2 secs

     total energy              =    -329.49283614 Ry
     Harris-Foulkes estimate   =    -329.49283615 Ry
     estimated scf accuracy    <          7.0E-10 Ry

     iteration #  8     ecut=    30.00 Ry     beta=0.70
     Davidson diagonalization with overlap
     ethr =  1.28E-12,  avg # of iterations =  2.0

     total cpu time spent up to now is       76.5 secs

     End of self-consistent calculation

          k = 0.0000 0.0000 0.0000 ( 22119 PWs)   bands (ev):

    -8.5157  -7.7818  -7.6582  -7.2351  -6.8666  -6.8194  -6.6105  -6.4820
    -6.3102  -6.0786  -5.9561  -5.7735  -5.7297  -5.6901  -5.4535  -5.3583
    -5.3166  -5.2458  -5.2037  -5.1827  -5.1682  -5.1238  -4.9998  -4.9239
    -4.8463  -4.7251  -4.4800  -3.7773  -2.4481  -2.2052  -0.5479  -0.1925
     0.4715   0.8318

     the Fermi energy is    -3.7445 ev

!    total energy              =    -329.49283614 Ry
     Harris-Foulkes estimate   =    -329.49283614 Ry
     estimated scf accuracy    <          9.8E-11 Ry

     The total energy is the sum of the following terms:

     one-electron contribution =    -607.97936807 Ry
     hartree contribution      =     325.41942665 Ry
     xc contribution           =     -51.40090110 Ry
     ewald contribution        =       4.47240168 Ry
     smearing contrib. (-TS)   =      -0.00439531 Ry

     convergence has been achieved in   8 iterations

     Forces acting on atoms (Ry/au):

     atom    1 type  1   force =     0.00042105    0.00021946   -0.00075722
     atom    2 type  1   force =    -0.00068730    0.00038730    0.00013614
     atom    3 type  1   force =    -0.00017888    0.00017948   -0.00003402
     atom    4 type  1   force =     0.00010247    0.00021073   -0.00011857
     atom    5 type  1   force =     0.00034266   -0.00099697    0.00077366

     Total force =     0.001812     Total SCF correction =     0.000042

     bfgs converged in  20 scf cycles and  19 bfgs steps
     (criteria: energy <  1.0E-04, force <  1.0E-03)

     End of BFGS Geometry Optimization

     Final energy   =    -329.4928361429 Ry
Begin final coordinates

ATOMIC_POSITIONS (bohr)
Au      -1.714121288   2.300872537  -1.086472691
Au      -0.815081882   3.925889603   3.736110388
Au       2.985658303   1.671953764   0.670391953
Au       3.874253266   3.315177538   5.833974213
Au       7.507943600   1.211026559   2.834871136
End final coordinates



     Writing output data file pwscf.save
 
     init_run     :      0.20s CPU      0.23s WALL (       1 calls)
     electrons    :     67.07s CPU     71.02s WALL (      20 calls)
     update_pot   :      2.05s CPU      2.47s WALL (      19 calls)
     forces       :      1.10s CPU      1.13s WALL (      20 calls)

     Called by init_run:
     wfcinit      :      0.11s CPU      0.12s WALL (       1 calls)
     potinit      :      0.03s CPU      0.03s WALL (       1 calls)

     Called by electrons:
     c_bands      :     50.07s CPU     51.06s WALL (     205 calls)
     sum_band     :      6.40s CPU      6.55s WALL (     205 calls)
     v_of_rho     :      5.86s CPU      5.98s WALL (     214 calls)
     mix_rho      :      2.89s CPU      4.20s WALL (     205 calls)

     Called by c_bands:
     init_us_2    :      0.62s CPU      0.64s WALL (     411 calls)
     cegterg      :     46.10s CPU     46.96s WALL (     205 calls)

     Called by sum_band:

     Called by *egterg:
     h_psi        :     34.81s CPU     35.39s WALL (     713 calls)
     g_psi        :      0.23s CPU      0.23s WALL (     507 calls)
     cdiaghg      :      3.67s CPU      3.77s WALL (     682 calls)

     Called by h_psi:
     h_psi:pot    :     34.47s CPU     35.06s WALL (     713 calls)
     h_psi:calbec :      3.22s CPU      3.32s WALL (     713 calls)
     vloc_psi     :     29.83s CPU     30.31s WALL (     713 calls)
     add_vuspsi   :      1.42s CPU      1.42s WALL (     713 calls)

     General routines
     calbec       :      3.63s CPU      3.74s WALL (     793 calls)
     fft          :      3.86s CPU      3.95s WALL (    2415 calls)
     fftw         :     32.37s CPU     33.07s WALL (   45268 calls)
     davcio       :      0.28s CPU      1.38s WALL (    2025 calls)
 
     Parallel routines
     fft_scatter  :     18.11s CPU     18.38s WALL (   47683 calls)
 
     PWSCF        :  1m11.58s CPU     1m17.01s WALL

 
   This run was terminated on:   1:16: 6  29Jul2017            

=------------------------------------------------------------------------------=
   JOB DONE.
=------------------------------------------------------------------------------=
