
     Program PWSCF v.6.0 (svn rev. 13079) starts on 29Jul2017 at  0:44:46 

     This program is part of the open-source Quantum ESPRESSO suite
     for quantum simulation of materials; please cite
         "P. Giannozzi et al., J. Phys.:Condens. Matter 21 395502 (2009);
          URL http://www.quantum-espresso.org", 
     in publications or presentations arising from this work. More details at
     http://www.quantum-espresso.org/quote

     Parallel version (MPI), running on    10 processors
     R & G space division:  proc/nbgrp/npool/nimage =      10
     Reading input from input/dftmin-Gold5-multi-2.in

     Current dimensions of program PWSCF are:
     Max number of different atomic species (ntypx) = 10
     Max number of k-points (npk) =  40000
     Max angular momentum in pseudopotentials (lmaxx) =  3
     Message from routine iosys:
     pot_extrapolation='second-order' not available, using 'atomic'
     Message from routine iosys:
     wfc_extrapolation='second-order' not available, using 'atomic'

     Subspace diagonalization in iterative solution of the eigenvalue problem:
     a serial algorithm will be used

 
     Parallelization info
     --------------------
     sticks:   dense  smooth     PW     G-vecs:    dense   smooth      PW
     Min         380     380     94                17748    17748    2208
     Max         381     381     95                17753    17753    2213
     Sum        3809    3809    949               177509   177509   22119
 


     bravais-lattice index     =            1
     lattice parameter (alat)  =      20.0000  a.u.
     unit-cell volume          =    8000.0000 (a.u.)^3
     number of atoms/cell      =            5
     number of atomic types    =            1
     number of electrons       =        55.00
     number of Kohn-Sham states=           34
     kinetic-energy cutoff     =      30.0000  Ry
     charge density cutoff     =     120.0000  Ry
     convergence threshold     =      1.0E-08
     mixing beta               =       0.7000
     number of iterations used =            8  plain     mixing
     Exchange-correlation      = BLYP ( 1  3  1  3 0 0)
     nstep                     =           50


     celldm(1)=  20.000000  celldm(2)=   0.000000  celldm(3)=   0.000000
     celldm(4)=   0.000000  celldm(5)=   0.000000  celldm(6)=   0.000000

     crystal axes: (cart. coord. in units of alat)
               a(1) = (   1.000000   0.000000   0.000000 )  
               a(2) = (   0.000000   1.000000   0.000000 )  
               a(3) = (   0.000000   0.000000   1.000000 )  

     reciprocal axes: (cart. coord. in units 2 pi/alat)
               b(1) = (  1.000000  0.000000  0.000000 )  
               b(2) = (  0.000000  1.000000  0.000000 )  
               b(3) = (  0.000000  0.000000  1.000000 )  


     PseudoPot. # 1 for Au read from file:
     ./Au.blyp-d-hgh.UPF
     MD5 check sum: c10d8bae01f806c36a1643a1c69a8479
     Pseudo is Norm-conserving, Zval = 11.0
     Generated in analytical, separable form
     Using radial grid of 1279 points,  6 beta functions with: 
                l(1) =   0
                l(2) =   0
                l(3) =   1
                l(4) =   1
                l(5) =   2
                l(6) =   2

     atomic species   valence    mass     pseudopotential
        Au            11.00    28.08600     Au( 1.00)

     No symmetry found



   Cartesian axes

     site n.     atom                  positions (alat units)
         1           Au  tau(   1) = (  -0.1159957   0.0699762  -0.0175050  )
         2           Au  tau(   2) = (  -0.0279039   0.1402638   0.2081050  )
         3           Au  tau(   3) = (   0.1408650   0.0501362   0.0033792  )
         4           Au  tau(   4) = (   0.2128827   0.2088132   0.2692796  )
         5           Au  tau(   5) = (   0.3823723   0.0740107   0.1302908  )

     number of k points=     1  Marzari-Vanderbilt smearing, width (Ry)=  0.0250
                       cart. coord. in units 2pi/alat
        k(    1) = (   0.0000000   0.0000000   0.0000000), wk =   2.0000000

     Dense  grid:   177509 G-vectors     FFT dimensions: (  72,  72,  72)

     Estimated max dynamical RAM per process >      15.04Mb

     Estimated total allocated dynamical RAM >     150.39Mb

     Initial potential from superposition of free atoms
     Check: negative starting charge=   -0.006324

     starting charge   54.99940, renormalised to   55.00000

     negative rho (up, down):  6.324E-03 0.000E+00
     Starting wfc are   45 randomized atomic wfcs

     total cpu time spent up to now is        0.7 secs

     per-process dynamical memory:    41.0 Mb

     Self-consistent Calculation

     iteration #  1     ecut=    30.00 Ry     beta=0.70
     Davidson diagonalization with overlap
     ethr =  1.00E-02,  avg # of iterations =  3.0

     Threshold (ethr) on eigenvalues was too large:
     Diagonalizing with lowered threshold

     Davidson diagonalization with overlap
     ethr =  4.04E-04,  avg # of iterations =  6.0

     negative rho (up, down):  8.517E-04 0.000E+00

     total cpu time spent up to now is        1.8 secs

     total energy              =    -329.35514842 Ry
     Harris-Foulkes estimate   =    -329.52265372 Ry
     estimated scf accuracy    <       0.27720070 Ry

     iteration #  2     ecut=    30.00 Ry     beta=0.70
     Davidson diagonalization with overlap
     ethr =  5.04E-04,  avg # of iterations =  4.0

     negative rho (up, down):  4.307E-04 0.000E+00

     total cpu time spent up to now is        2.3 secs

     total energy              =    -329.36527766 Ry
     Harris-Foulkes estimate   =    -329.57110464 Ry
     estimated scf accuracy    <       0.45821393 Ry

     iteration #  3     ecut=    30.00 Ry     beta=0.70
     Davidson diagonalization with overlap
     ethr =  5.04E-04,  avg # of iterations =  2.0

     negative rho (up, down):  1.488E-04 0.000E+00

     total cpu time spent up to now is        2.7 secs

     total energy              =    -329.45424131 Ry
     Harris-Foulkes estimate   =    -329.48753186 Ry
     estimated scf accuracy    <       0.08780896 Ry

     iteration #  4     ecut=    30.00 Ry     beta=0.70
     Davidson diagonalization with overlap
     ethr =  1.60E-04,  avg # of iterations =  2.0

     negative rho (up, down):  2.016E-05 0.000E+00

     total cpu time spent up to now is        3.1 secs

     total energy              =    -329.46904433 Ry
     Harris-Foulkes estimate   =    -329.47115560 Ry
     estimated scf accuracy    <       0.00496158 Ry

     iteration #  5     ecut=    30.00 Ry     beta=0.70
     Davidson diagonalization with overlap
     ethr =  9.02E-06,  avg # of iterations =  4.0

     negative rho (up, down):  3.869E-08 0.000E+00

     total cpu time spent up to now is        3.7 secs

     total energy              =    -329.47023142 Ry
     Harris-Foulkes estimate   =    -329.47139290 Ry
     estimated scf accuracy    <       0.00336666 Ry

     iteration #  6     ecut=    30.00 Ry     beta=0.70
     Davidson diagonalization with overlap
     ethr =  6.12E-06,  avg # of iterations =  2.0

     total cpu time spent up to now is        4.1 secs

     total energy              =    -329.47076625 Ry
     Harris-Foulkes estimate   =    -329.47093184 Ry
     estimated scf accuracy    <       0.00038523 Ry

     iteration #  7     ecut=    30.00 Ry     beta=0.70
     Davidson diagonalization with overlap
     ethr =  7.00E-07,  avg # of iterations =  2.0

     total cpu time spent up to now is        4.6 secs

     total energy              =    -329.47085265 Ry
     Harris-Foulkes estimate   =    -329.47086404 Ry
     estimated scf accuracy    <       0.00002849 Ry

     iteration #  8     ecut=    30.00 Ry     beta=0.70
     Davidson diagonalization with overlap
     ethr =  5.18E-08,  avg # of iterations =  2.0

     total cpu time spent up to now is        5.0 secs

     total energy              =    -329.47085837 Ry
     Harris-Foulkes estimate   =    -329.47086162 Ry
     estimated scf accuracy    <       0.00000685 Ry

     iteration #  9     ecut=    30.00 Ry     beta=0.70
     Davidson diagonalization with overlap
     ethr =  1.25E-08,  avg # of iterations =  2.0

     total cpu time spent up to now is        5.5 secs

     total energy              =    -329.47085975 Ry
     Harris-Foulkes estimate   =    -329.47086018 Ry
     estimated scf accuracy    <       0.00000077 Ry

     iteration # 10     ecut=    30.00 Ry     beta=0.70
     Davidson diagonalization with overlap
     ethr =  1.40E-09,  avg # of iterations =  2.0

     total cpu time spent up to now is        6.0 secs

     total energy              =    -329.47085983 Ry
     Harris-Foulkes estimate   =    -329.47085999 Ry
     estimated scf accuracy    <       0.00000016 Ry

     iteration # 11     ecut=    30.00 Ry     beta=0.70
     Davidson diagonalization with overlap
     ethr =  2.95E-10,  avg # of iterations =  2.0

     total cpu time spent up to now is        6.5 secs

     total energy              =    -329.47085989 Ry
     Harris-Foulkes estimate   =    -329.47085987 Ry
     estimated scf accuracy    <       0.00000001 Ry

     iteration # 12     ecut=    30.00 Ry     beta=0.70
     Davidson diagonalization with overlap
     ethr =  2.29E-11,  avg # of iterations =  2.0

     total cpu time spent up to now is        7.0 secs

     End of self-consistent calculation

          k = 0.0000 0.0000 0.0000 ( 22119 PWs)   bands (ev):

    -7.9887  -7.4357  -7.3625  -7.0256  -6.8565  -6.6577  -6.5069  -6.2628
    -6.1402  -6.0387  -5.8082  -5.7000  -5.6135  -5.5684  -5.4502  -5.3688
    -5.2985  -5.2238  -5.1965  -5.1547  -5.1376  -5.1131  -5.0762  -4.9773
    -4.8670  -4.6410  -4.4374  -3.8125  -2.7625  -2.2103  -0.4574  -0.2339
     0.4230   0.7078

     the Fermi energy is    -3.7948 ev

!    total energy              =    -329.47085992 Ry
     Harris-Foulkes estimate   =    -329.47085990 Ry
     estimated scf accuracy    <          4.1E-09 Ry

     The total energy is the sum of the following terms:

     one-electron contribution =    -589.73057389 Ry
     hartree contribution      =     316.44934690 Ry
     xc contribution           =     -51.35310680 Ry
     ewald contribution        =      -4.83550202 Ry
     smearing contrib. (-TS)   =      -0.00102412 Ry

     convergence has been achieved in  12 iterations

     Forces acting on atoms (Ry/au):

     atom    1 type  1   force =     0.01002757   -0.00547052   -0.00717887
     atom    2 type  1   force =     0.01458426    0.00111727   -0.00389944
     atom    3 type  1   force =     0.00594013    0.01219083    0.02868464
     atom    4 type  1   force =     0.00217213   -0.00872447   -0.00731347
     atom    5 type  1   force =    -0.03272409    0.00088689   -0.01029286

     Total force =     0.052247     Total SCF correction =     0.000339

     BFGS Geometry Optimization

     number of scf cycles    =   1
     number of bfgs steps    =   0

     energy   new            =    -329.4708599198 Ry

     new trust radius        =       0.0343161109 bohr
     new conv_thr            =       0.0000000100 Ry


ATOMIC_POSITIONS (bohr)
Au      -2.309886434   1.394053479  -0.357278868
Au      -0.543492742   2.806393270   4.158200565
Au       2.823241134   1.014914831   0.096268638
Au       4.259827129   4.167539534   5.378278529
Au       7.614722913   1.481100887   2.595523136



     Writing output data file pwscf.save
     Check: negative starting charge=   -0.006324
     NEW-OLD atomic charge density approx. for the potential
     Check: negative starting charge=   -0.006318

     negative rho (up, down):  2.137E-04 0.000E+00

     total cpu time spent up to now is        7.5 secs

     per-process dynamical memory:    42.9 Mb

     Self-consistent Calculation

     iteration #  1     ecut=    30.00 Ry     beta=0.70
     Davidson diagonalization with overlap
     ethr =  1.00E-06,  avg # of iterations =  4.0

     negative rho (up, down):  4.106E-06 0.000E+00

     total cpu time spent up to now is        8.4 secs

     total energy              =    -329.47340163 Ry
     Harris-Foulkes estimate   =    -329.47338668 Ry
     estimated scf accuracy    <       0.00017141 Ry

     iteration #  2     ecut=    30.00 Ry     beta=0.70
     Davidson diagonalization with overlap
     ethr =  3.12E-07,  avg # of iterations =  3.0

     negative rho (up, down):  1.092E-06 0.000E+00

     total cpu time spent up to now is        9.0 secs

     total energy              =    -329.47336970 Ry
     Harris-Foulkes estimate   =    -329.47356622 Ry
     estimated scf accuracy    <       0.00052649 Ry

     iteration #  3     ecut=    30.00 Ry     beta=0.70
     Davidson diagonalization with overlap
     ethr =  3.12E-07,  avg # of iterations =  2.0

     negative rho (up, down):  1.183E-08 0.000E+00

     total cpu time spent up to now is        9.4 secs

     total energy              =    -329.47346865 Ry
     Harris-Foulkes estimate   =    -329.47348052 Ry
     estimated scf accuracy    <       0.00004230 Ry

     iteration #  4     ecut=    30.00 Ry     beta=0.70
     Davidson diagonalization with overlap
     ethr =  7.69E-08,  avg # of iterations =  2.0

     total cpu time spent up to now is        9.8 secs

     total energy              =    -329.47347596 Ry
     Harris-Foulkes estimate   =    -329.47348236 Ry
     estimated scf accuracy    <       0.00001912 Ry

     iteration #  5     ecut=    30.00 Ry     beta=0.70
     Davidson diagonalization with overlap
     ethr =  3.48E-08,  avg # of iterations =  2.0

     total cpu time spent up to now is       10.2 secs

     total energy              =    -329.47347932 Ry
     Harris-Foulkes estimate   =    -329.47348060 Ry
     estimated scf accuracy    <       0.00000312 Ry

     iteration #  6     ecut=    30.00 Ry     beta=0.70
     Davidson diagonalization with overlap
     ethr =  5.68E-09,  avg # of iterations =  2.0

     total cpu time spent up to now is       10.7 secs

     total energy              =    -329.47348012 Ry
     Harris-Foulkes estimate   =    -329.47348001 Ry
     estimated scf accuracy    <       0.00000022 Ry

     iteration #  7     ecut=    30.00 Ry     beta=0.70
     Davidson diagonalization with overlap
     ethr =  4.02E-10,  avg # of iterations =  2.0

     total cpu time spent up to now is       11.2 secs

     total energy              =    -329.47348014 Ry
     Harris-Foulkes estimate   =    -329.47348020 Ry
     estimated scf accuracy    <       0.00000004 Ry

     iteration #  8     ecut=    30.00 Ry     beta=0.70
     Davidson diagonalization with overlap
     ethr =  6.66E-11,  avg # of iterations =  2.0

     total cpu time spent up to now is       11.6 secs

     End of self-consistent calculation

          k = 0.0000 0.0000 0.0000 ( 22119 PWs)   bands (ev):

    -8.0170  -7.4577  -7.4085  -7.0630  -6.8931  -6.6763  -6.5198  -6.2943
    -6.1574  -6.0533  -5.8258  -5.7028  -5.6248  -5.5803  -5.4555  -5.3720
    -5.2961  -5.2264  -5.1963  -5.1539  -5.1423  -5.1188  -5.0699  -4.9735
    -4.8659  -4.6274  -4.4375  -3.8055  -2.7395  -2.2000  -0.4639  -0.2326
     0.4247   0.7172

     the Fermi energy is    -3.7870 ev

!    total energy              =    -329.47348018 Ry
     Harris-Foulkes estimate   =    -329.47348015 Ry
     estimated scf accuracy    <          3.8E-09 Ry

     The total energy is the sum of the following terms:

     one-electron contribution =    -592.20351265 Ry
     hartree contribution      =     317.66887642 Ry
     xc contribution           =     -51.35979503 Ry
     ewald contribution        =      -3.57788415 Ry
     smearing contrib. (-TS)   =      -0.00116477 Ry

     convergence has been achieved in   8 iterations

     Forces acting on atoms (Ry/au):

     atom    1 type  1   force =     0.00998807   -0.00527516   -0.00673683
     atom    2 type  1   force =     0.01257100    0.00089594   -0.00394420
     atom    3 type  1   force =     0.00532584    0.01176560    0.02734817
     atom    4 type  1   force =     0.00157415   -0.00676073   -0.00551549
     atom    5 type  1   force =    -0.02945906   -0.00062565   -0.01115166

     Total force =     0.048304     Total SCF correction =     0.000276

     number of scf cycles    =   2
     number of bfgs steps    =   1

     energy   old            =    -329.4708599198 Ry
     energy   new            =    -329.4734801794 Ry

     CASE: energy  _new < energy  _old


     WARNING: bfgs curvature condition failed, Theta= 0.867
     new trust radius        =       0.0377477220 bohr
     new conv_thr            =       0.0000000026 Ry


ATOMIC_POSITIONS (bohr)
Au      -2.298185542   1.387817799  -0.365304039
Au      -0.528136987   2.807512621   4.153599321
Au       2.829670317   1.028819388   0.128700136
Au       4.261860784   4.158998937   5.371248237
Au       7.579203427   1.480853255   2.582748345



     Writing output data file pwscf.save
     Check: negative starting charge=   -0.006318
     NEW-OLD atomic charge density approx. for the potential
     Check: negative starting charge=   -0.006312

     negative rho (up, down):  2.713E-04 0.000E+00

     total cpu time spent up to now is       12.0 secs

     per-process dynamical memory:    50.7 Mb

     Self-consistent Calculation

     iteration #  1     ecut=    30.00 Ry     beta=0.70
     Davidson diagonalization with overlap
     ethr =  1.00E-06,  avg # of iterations =  4.0

     negative rho (up, down):  6.592E-06 0.000E+00

     total cpu time spent up to now is       12.8 secs

     total energy              =    -329.47604560 Ry
     Harris-Foulkes estimate   =    -329.47600876 Ry
     estimated scf accuracy    <       0.00020421 Ry

     iteration #  2     ecut=    30.00 Ry     beta=0.70
     Davidson diagonalization with overlap
     ethr =  3.71E-07,  avg # of iterations =  3.0

     negative rho (up, down):  1.830E-06 0.000E+00

     total cpu time spent up to now is       13.3 secs

     total energy              =    -329.47601267 Ry
     Harris-Foulkes estimate   =    -329.47623220 Ry
     estimated scf accuracy    <       0.00057648 Ry

     iteration #  3     ecut=    30.00 Ry     beta=0.70
     Davidson diagonalization with overlap
     ethr =  3.71E-07,  avg # of iterations =  2.0

     negative rho (up, down):  2.114E-08 0.000E+00

     total cpu time spent up to now is       13.8 secs

     total energy              =    -329.47612294 Ry
     Harris-Foulkes estimate   =    -329.47613876 Ry
     estimated scf accuracy    <       0.00005350 Ry

     iteration #  4     ecut=    30.00 Ry     beta=0.70
     Davidson diagonalization with overlap
     ethr =  9.73E-08,  avg # of iterations =  2.0

     total cpu time spent up to now is       14.2 secs

     total energy              =    -329.47613176 Ry
     Harris-Foulkes estimate   =    -329.47613982 Ry
     estimated scf accuracy    <       0.00002311 Ry

     iteration #  5     ecut=    30.00 Ry     beta=0.70
     Davidson diagonalization with overlap
     ethr =  4.20E-08,  avg # of iterations =  2.0

     total cpu time spent up to now is       14.6 secs

     total energy              =    -329.47613646 Ry
     Harris-Foulkes estimate   =    -329.47613749 Ry
     estimated scf accuracy    <       0.00000407 Ry

     iteration #  6     ecut=    30.00 Ry     beta=0.70
     Davidson diagonalization with overlap
     ethr =  7.40E-09,  avg # of iterations =  2.0

     total cpu time spent up to now is       15.0 secs

     total energy              =    -329.47613734 Ry
     Harris-Foulkes estimate   =    -329.47613732 Ry
     estimated scf accuracy    <       0.00000024 Ry

     iteration #  7     ecut=    30.00 Ry     beta=0.70
     Davidson diagonalization with overlap
     ethr =  4.42E-10,  avg # of iterations =  2.0

     total cpu time spent up to now is       15.5 secs

     total energy              =    -329.47613752 Ry
     Harris-Foulkes estimate   =    -329.47613743 Ry
     estimated scf accuracy    <       0.00000005 Ry

     iteration #  8     ecut=    30.00 Ry     beta=0.70
     Davidson diagonalization with overlap
     ethr =  8.93E-11,  avg # of iterations =  2.0

     total cpu time spent up to now is       15.9 secs

     total energy              =    -329.47613756 Ry
     Harris-Foulkes estimate   =    -329.47613753 Ry
     estimated scf accuracy    <          4.7E-09 Ry

     iteration #  9     ecut=    30.00 Ry     beta=0.70
     Davidson diagonalization with overlap
     ethr =  8.47E-12,  avg # of iterations =  3.0

     total cpu time spent up to now is       16.3 secs

     End of self-consistent calculation

          k = 0.0000 0.0000 0.0000 ( 22119 PWs)   bands (ev):

    -8.0524  -7.4842  -7.4586  -7.1025  -6.9349  -6.6947  -6.5368  -6.3288
    -6.1768  -6.0683  -5.8456  -5.7038  -5.6354  -5.5943  -5.4614  -5.3758
    -5.2929  -5.2292  -5.1960  -5.1535  -5.1476  -5.1240  -5.0615  -4.9693
    -4.8649  -4.6116  -4.4379  -3.7980  -2.7135  -2.1888  -0.4712  -0.2311
     0.4273   0.7279

     the Fermi energy is    -3.7788 ev

!    total energy              =    -329.47613754 Ry
     Harris-Foulkes estimate   =    -329.47613757 Ry
     estimated scf accuracy    <          1.4E-09 Ry

     The total energy is the sum of the following terms:

     one-electron contribution =    -594.92864900 Ry
     hartree contribution      =     319.01302778 Ry
     xc contribution           =     -51.36749821 Ry
     ewald contribution        =      -2.19172647 Ry
     smearing contrib. (-TS)   =      -0.00129164 Ry

     convergence has been achieved in   9 iterations

     Forces acting on atoms (Ry/au):

     atom    1 type  1   force =     0.00975417   -0.00503175   -0.00648964
     atom    2 type  1   force =     0.01025302    0.00073158   -0.00393567
     atom    3 type  1   force =     0.00435619    0.01113596    0.02612686
     atom    4 type  1   force =     0.00097653   -0.00459322   -0.00357952
     atom    5 type  1   force =    -0.02533991   -0.00224257   -0.01212203

     Total force =     0.044026     Total SCF correction =     0.000174

     number of scf cycles    =   3
     number of bfgs steps    =   2

     energy   old            =    -329.4734801794 Ry
     energy   new            =    -329.4761375396 Ry

     CASE: energy  _new < energy  _old

     new trust radius        =       0.0566215830 bohr
     new conv_thr            =       0.0000000026 Ry


ATOMIC_POSITIONS (bohr)
Au      -2.279353850   1.377964093  -0.378093407
Au      -0.506529948   2.809096571   4.146064570
Au       2.838712943   1.050655184   0.180026104
Au       4.264274417   4.148338661   5.362706805
Au       7.527308438   1.477947491   2.560287928



     Writing output data file pwscf.save
     Check: negative starting charge=   -0.006312
     NEW-OLD atomic charge density approx. for the potential
     Check: negative starting charge=   -0.006314

     negative rho (up, down):  6.416E-04 0.000E+00

     total cpu time spent up to now is       16.9 secs

     per-process dynamical memory:    50.7 Mb

     Self-consistent Calculation

     iteration #  1     ecut=    30.00 Ry     beta=0.70
     Davidson diagonalization with overlap
     ethr =  1.00E-06,  avg # of iterations =  6.0

     negative rho (up, down):  3.161E-05 0.000E+00

     total cpu time spent up to now is       17.7 secs

     total energy              =    -329.47946324 Ry
     Harris-Foulkes estimate   =    -329.47917827 Ry
     estimated scf accuracy    <       0.00045401 Ry

     iteration #  2     ecut=    30.00 Ry     beta=0.70
     Davidson diagonalization with overlap
     ethr =  8.25E-07,  avg # of iterations =  5.0

     negative rho (up, down):  1.112E-05 0.000E+00

     total cpu time spent up to now is       18.3 secs

     total energy              =    -329.47940304 Ry
     Harris-Foulkes estimate   =    -329.47984511 Ry
     estimated scf accuracy    <       0.00111791 Ry

     iteration #  3     ecut=    30.00 Ry     beta=0.70
     Davidson diagonalization with overlap
     ethr =  8.25E-07,  avg # of iterations =  2.0

     negative rho (up, down):  2.436E-07 0.000E+00

     total cpu time spent up to now is       18.8 secs

     total energy              =    -329.47962480 Ry
     Harris-Foulkes estimate   =    -329.47966348 Ry
     estimated scf accuracy    <       0.00012866 Ry

     iteration #  4     ecut=    30.00 Ry     beta=0.70
     Davidson diagonalization with overlap
     ethr =  2.34E-07,  avg # of iterations =  2.0

     total cpu time spent up to now is       19.2 secs

     total energy              =    -329.47964686 Ry
     Harris-Foulkes estimate   =    -329.47966369 Ry
     estimated scf accuracy    <       0.00005064 Ry

     iteration #  5     ecut=    30.00 Ry     beta=0.70
     Davidson diagonalization with overlap
     ethr =  9.21E-08,  avg # of iterations =  2.0

     total cpu time spent up to now is       19.6 secs

     total energy              =    -329.47965628 Ry
     Harris-Foulkes estimate   =    -329.47966002 Ry
     estimated scf accuracy    <       0.00001069 Ry

     iteration #  6     ecut=    30.00 Ry     beta=0.70
     Davidson diagonalization with overlap
     ethr =  1.94E-08,  avg # of iterations =  2.0

     total cpu time spent up to now is       20.1 secs

     total energy              =    -329.47965820 Ry
     Harris-Foulkes estimate   =    -329.47965839 Ry
     estimated scf accuracy    <       0.00000053 Ry

     iteration #  7     ecut=    30.00 Ry     beta=0.70
     Davidson diagonalization with overlap
     ethr =  9.68E-10,  avg # of iterations =  2.0

     total cpu time spent up to now is       20.5 secs

     total energy              =    -329.47965820 Ry
     Harris-Foulkes estimate   =    -329.47965840 Ry
     estimated scf accuracy    <       0.00000010 Ry

     iteration #  8     ecut=    30.00 Ry     beta=0.70
     Davidson diagonalization with overlap
     ethr =  1.91E-10,  avg # of iterations =  2.0

     total cpu time spent up to now is       21.0 secs

     total energy              =    -329.47965815 Ry
     Harris-Foulkes estimate   =    -329.47965823 Ry
     estimated scf accuracy    <          9.7E-09 Ry

     iteration #  9     ecut=    30.00 Ry     beta=0.70
     Davidson diagonalization with overlap
     ethr =  1.77E-11,  avg # of iterations =  3.0

     total cpu time spent up to now is       21.5 secs

     total energy              =    -329.47965815 Ry
     Harris-Foulkes estimate   =    -329.47965815 Ry
     estimated scf accuracy    <          3.6E-09 Ry

     iteration # 10     ecut=    30.00 Ry     beta=0.70
     Davidson diagonalization with overlap
     ethr =  6.60E-12,  avg # of iterations =  2.0

     total cpu time spent up to now is       21.9 secs

     End of self-consistent calculation

          k = 0.0000 0.0000 0.0000 ( 22119 PWs)   bands (ev):

    -8.1144  -7.5325  -7.5271  -7.1571  -7.0002  -6.7179  -6.5700  -6.3777
    -6.2063  -6.0891  -5.8757  -5.7025  -5.6481  -5.6166  -5.4703  -5.3819
    -5.2873  -5.2343  -5.1952  -5.1605  -5.1487  -5.1299  -5.0466  -4.9634
    -4.8638  -4.5872  -4.4392  -3.7875  -2.6735  -2.1723  -0.4820  -0.2287
     0.4326   0.7446

     the Fermi energy is    -3.7674 ev

!    total energy              =    -329.47965814 Ry
     Harris-Foulkes estimate   =    -329.47965815 Ry
     estimated scf accuracy    <          1.1E-10 Ry

     The total energy is the sum of the following terms:

     one-electron contribution =    -599.01515099 Ry
     hartree contribution      =     321.02877599 Ry
     xc contribution           =     -51.37982521 Ry
     ewald contribution        =      -0.11201821 Ry
     smearing contrib. (-TS)   =      -0.00143971 Ry

     convergence has been achieved in  10 iterations

     Forces acting on atoms (Ry/au):

     atom    1 type  1   force =     0.00897500   -0.00464915   -0.00640082
     atom    2 type  1   force =     0.00618586    0.00042012   -0.00363147
     atom    3 type  1   force =     0.00202343    0.00982366    0.02360778
     atom    4 type  1   force =     0.00022251   -0.00156302   -0.00083061
     atom    5 type  1   force =    -0.01740680   -0.00403160   -0.01274488

     Total force =     0.036573     Total SCF correction =     0.000039

     number of scf cycles    =   4
     number of bfgs steps    =   3

     energy   old            =    -329.4761375396 Ry
     energy   new            =    -329.4796581355 Ry

     CASE: energy  _new < energy  _old

     new trust radius        =       0.0849323745 bohr
     new conv_thr            =       0.0000000024 Ry


ATOMIC_POSITIONS (bohr)
Au      -2.250636019   1.362882743  -0.398340053
Au      -0.478637808   2.811119202   4.134570389
Au       2.849336547   1.083312564   0.257705849
Au       4.266927852   4.136171571   5.353470286
Au       7.457421429   1.470515920   2.523585529



     Writing output data file pwscf.save
     Check: negative starting charge=   -0.006314
     NEW-OLD atomic charge density approx. for the potential
     Check: negative starting charge=   -0.006347

     negative rho (up, down):  1.234E-03 0.000E+00

     total cpu time spent up to now is       22.3 secs

     per-process dynamical memory:    50.7 Mb

     Self-consistent Calculation

     iteration #  1     ecut=    30.00 Ry     beta=0.70
     Davidson diagonalization with overlap
     ethr =  1.00E-06,  avg # of iterations = 10.0

     negative rho (up, down):  9.165E-05 0.000E+00

     total cpu time spent up to now is       23.4 secs

     total energy              =    -329.48284231 Ry
     Harris-Foulkes estimate   =    -329.48200773 Ry
     estimated scf accuracy    <       0.00089221 Ry

     iteration #  2     ecut=    30.00 Ry     beta=0.70
     Davidson diagonalization with overlap
     ethr =  1.62E-06,  avg # of iterations =  7.0

     negative rho (up, down):  3.579E-05 0.000E+00

     total cpu time spent up to now is       24.0 secs

     total energy              =    -329.48277184 Ry
     Harris-Foulkes estimate   =    -329.48349730 Ry
     estimated scf accuracy    <       0.00174838 Ry

     iteration #  3     ecut=    30.00 Ry     beta=0.70
     Davidson diagonalization with overlap
     ethr =  1.62E-06,  avg # of iterations =  3.0

     negative rho (up, down):  1.383E-06 0.000E+00

     total cpu time spent up to now is       24.4 secs

     total energy              =    -329.48314139 Ry
     Harris-Foulkes estimate   =    -329.48322212 Ry
     estimated scf accuracy    <       0.00026328 Ry

     iteration #  4     ecut=    30.00 Ry     beta=0.70
     Davidson diagonalization with overlap
     ethr =  4.79E-07,  avg # of iterations =  2.0

     total cpu time spent up to now is       24.8 secs

     total energy              =    -329.48318492 Ry
     Harris-Foulkes estimate   =    -329.48321737 Ry
     estimated scf accuracy    <       0.00009375 Ry

     iteration #  5     ecut=    30.00 Ry     beta=0.70
     Davidson diagonalization with overlap
     ethr =  1.70E-07,  avg # of iterations =  2.0

     total cpu time spent up to now is       25.3 secs

     total energy              =    -329.48320285 Ry
     Harris-Foulkes estimate   =    -329.48321115 Ry
     estimated scf accuracy    <       0.00002582 Ry

     iteration #  6     ecut=    30.00 Ry     beta=0.70
     Davidson diagonalization with overlap
     ethr =  4.70E-08,  avg # of iterations =  2.0

     total cpu time spent up to now is       25.7 secs

     total energy              =    -329.48320685 Ry
     Harris-Foulkes estimate   =    -329.48320749 Ry
     estimated scf accuracy    <       0.00000088 Ry

     iteration #  7     ecut=    30.00 Ry     beta=0.70
     Davidson diagonalization with overlap
     ethr =  1.59E-09,  avg # of iterations =  3.0

     total cpu time spent up to now is       26.1 secs

     total energy              =    -329.48320705 Ry
     Harris-Foulkes estimate   =    -329.48320725 Ry
     estimated scf accuracy    <       0.00000021 Ry

     iteration #  8     ecut=    30.00 Ry     beta=0.70
     Davidson diagonalization with overlap
     ethr =  3.74E-10,  avg # of iterations =  2.0

     total cpu time spent up to now is       26.6 secs

     total energy              =    -329.48320706 Ry
     Harris-Foulkes estimate   =    -329.48320710 Ry
     estimated scf accuracy    <       0.00000002 Ry

     iteration #  9     ecut=    30.00 Ry     beta=0.70
     Davidson diagonalization with overlap
     ethr =  4.18E-11,  avg # of iterations =  3.0

     total cpu time spent up to now is       27.1 secs

     total energy              =    -329.48320702 Ry
     Harris-Foulkes estimate   =    -329.48320707 Ry
     estimated scf accuracy    <          6.2E-09 Ry

     iteration # 10     ecut=    30.00 Ry     beta=0.70
     Davidson diagonalization with overlap
     ethr =  1.13E-11,  avg # of iterations =  2.0

     total cpu time spent up to now is       27.5 secs

     End of self-consistent calculation

          k = 0.0000 0.0000 0.0000 ( 22119 PWs)   bands (ev):

    -8.2214  -7.6362  -7.5926  -7.2270  -7.0946  -6.7443  -6.6351  -6.4409
    -6.2485  -6.1162  -5.9170  -5.6969  -5.6616  -5.6486  -5.4828  -5.3908
    -5.2780  -5.2453  -5.1936  -5.1742  -5.1466  -5.1350  -5.0213  -4.9559
    -4.8636  -4.5531  -4.4423  -3.7731  -2.6163  -2.1493  -0.4974  -0.2249
     0.4417   0.7694

     the Fermi energy is    -3.7518 ev

!    total energy              =    -329.48320700 Ry
     Harris-Foulkes estimate   =    -329.48320702 Ry
     estimated scf accuracy    <          3.2E-10 Ry

     The total energy is the sum of the following terms:

     one-electron contribution =    -604.79607247 Ry
     hartree contribution      =     323.88060415 Ry
     xc contribution           =     -51.39856883 Ry
     ewald contribution        =       2.83246192 Ry
     smearing contrib. (-TS)   =      -0.00163177 Ry

     convergence has been achieved in  10 iterations

     Forces acting on atoms (Ry/au):

     atom    1 type  1   force =     0.00691495   -0.00381857   -0.00606915
     atom    2 type  1   force =    -0.00099881    0.00019582   -0.00188002
     atom    3 type  1   force =    -0.00188806    0.00668111    0.01557413
     atom    4 type  1   force =    -0.00050809    0.00252199    0.00329844
     atom    5 type  1   force =    -0.00351999   -0.00558035   -0.01092340

     Total force =     0.023977     Total SCF correction =     0.000076

     number of scf cycles    =   5
     number of bfgs steps    =   4

     energy   old            =    -329.4796581355 Ry
     energy   new            =    -329.4832069972 Ry

     CASE: energy  _new < energy  _old

     new trust radius        =       0.1074357406 bohr
     new conv_thr            =       0.0000000016 Ry


ATOMIC_POSITIONS (bohr)
Au      -2.212176159   1.342155381  -0.427913953
Au      -0.453161828   2.813577924   4.121125323
Au       2.856361445   1.125236766   0.356374235
Au       4.269138581   4.127429454   5.349130943
Au       7.384249960   1.455602475   2.472275452



     Writing output data file pwscf.save
     Check: negative starting charge=   -0.006347
     NEW-OLD atomic charge density approx. for the potential
     Check: negative starting charge=   -0.006428

     negative rho (up, down):  1.681E-03 0.000E+00

     total cpu time spent up to now is       28.0 secs

     per-process dynamical memory:    50.7 Mb

     Self-consistent Calculation

     iteration #  1     ecut=    30.00 Ry     beta=0.70
     Davidson diagonalization with overlap
     ethr =  1.00E-06,  avg # of iterations = 10.0

     negative rho (up, down):  1.450E-04 0.000E+00

     total cpu time spent up to now is       29.0 secs

     total energy              =    -329.48423039 Ry
     Harris-Foulkes estimate   =    -329.48323281 Ry
     estimated scf accuracy    <       0.00125984 Ry

     iteration #  2     ecut=    30.00 Ry     beta=0.70
     Davidson diagonalization with overlap
     ethr =  2.29E-06,  avg # of iterations =  7.0

     negative rho (up, down):  5.250E-05 0.000E+00

     total cpu time spent up to now is       29.7 secs

     total energy              =    -329.48423524 Ry
     Harris-Foulkes estimate   =    -329.48500991 Ry
     estimated scf accuracy    <       0.00175071 Ry

     iteration #  3     ecut=    30.00 Ry     beta=0.70
     Davidson diagonalization with overlap
     ethr =  2.29E-06,  avg # of iterations =  3.0

     negative rho (up, down):  2.013E-06 0.000E+00

     total cpu time spent up to now is       30.2 secs

     total energy              =    -329.48464354 Ry
     Harris-Foulkes estimate   =    -329.48475094 Ry
     estimated scf accuracy    <       0.00034336 Ry

     iteration #  4     ecut=    30.00 Ry     beta=0.70
     Davidson diagonalization with overlap
     ethr =  6.24E-07,  avg # of iterations =  2.0

     total cpu time spent up to now is       30.6 secs

     total energy              =    -329.48471171 Ry
     Harris-Foulkes estimate   =    -329.48472882 Ry
     estimated scf accuracy    <       0.00005361 Ry

     iteration #  5     ecut=    30.00 Ry     beta=0.70
     Davidson diagonalization with overlap
     ethr =  9.75E-08,  avg # of iterations =  2.0

     total cpu time spent up to now is       31.1 secs

     total energy              =    -329.48471970 Ry
     Harris-Foulkes estimate   =    -329.48473110 Ry
     estimated scf accuracy    <       0.00003256 Ry

     iteration #  6     ecut=    30.00 Ry     beta=0.70
     Davidson diagonalization with overlap
     ethr =  5.92E-08,  avg # of iterations =  2.0

     total cpu time spent up to now is       31.4 secs

     total energy              =    -329.48472460 Ry
     Harris-Foulkes estimate   =    -329.48472546 Ry
     estimated scf accuracy    <       0.00000128 Ry

     iteration #  7     ecut=    30.00 Ry     beta=0.70
     Davidson diagonalization with overlap
     ethr =  2.33E-09,  avg # of iterations =  3.0

     total cpu time spent up to now is       32.0 secs

     total energy              =    -329.48472483 Ry
     Harris-Foulkes estimate   =    -329.48472510 Ry
     estimated scf accuracy    <       0.00000025 Ry

     iteration #  8     ecut=    30.00 Ry     beta=0.70
     Davidson diagonalization with overlap
     ethr =  4.63E-10,  avg # of iterations =  2.0

     total cpu time spent up to now is       32.4 secs

     total energy              =    -329.48472494 Ry
     Harris-Foulkes estimate   =    -329.48472489 Ry
     estimated scf accuracy    <       0.00000004 Ry

     iteration #  9     ecut=    30.00 Ry     beta=0.70
     Davidson diagonalization with overlap
     ethr =  6.64E-11,  avg # of iterations =  3.0

     total cpu time spent up to now is       32.9 secs

     total energy              =    -329.48472493 Ry
     Harris-Foulkes estimate   =    -329.48472495 Ry
     estimated scf accuracy    <          7.6E-09 Ry

     iteration # 10     ecut=    30.00 Ry     beta=0.70
     Davidson diagonalization with overlap
     ethr =  1.37E-11,  avg # of iterations =  3.0

     total cpu time spent up to now is       33.3 secs

     End of self-consistent calculation

          k = 0.0000 0.0000 0.0000 ( 22119 PWs)   bands (ev):

    -8.3728  -7.7546  -7.6702  -7.2928  -7.1919  -6.7695  -6.7294  -6.5062
    -6.2911  -6.1409  -5.9617  -5.7000  -5.6853  -5.6622  -5.4941  -5.3967
    -5.2686  -5.2595  -5.1933  -5.1846  -5.1471  -5.1362  -4.9857  -4.9482
    -4.8664  -4.5177  -4.4488  -3.7588  -2.5486  -2.1259  -0.5145  -0.2196
     0.4547   0.7997

     the Fermi energy is    -3.7364 ev

!    total energy              =    -329.48472490 Ry
     Harris-Foulkes estimate   =    -329.48472493 Ry
     estimated scf accuracy    <          6.7E-10 Ry

     The total energy is the sum of the following terms:

     one-electron contribution =    -611.22155747 Ry
     hartree contribution      =     327.05061670 Ry
     xc contribution           =     -51.42118228 Ry
     ewald contribution        =       6.10922363 Ry
     smearing contrib. (-TS)   =      -0.00182548 Ry

     convergence has been achieved in  10 iterations

     Forces acting on atoms (Ry/au):

     atom    1 type  1   force =     0.00400975   -0.00270914   -0.00577609
     atom    2 type  1   force =    -0.00813051    0.00111690    0.00111502
     atom    3 type  1   force =    -0.01142722    0.00270810    0.00287732
     atom    4 type  1   force =     0.00050232    0.00604081    0.00729666
     atom    5 type  1   force =     0.01504566   -0.00715667   -0.00551291

     Total force =     0.025875     Total SCF correction =     0.000100

     number of scf cycles    =   6
     number of bfgs steps    =   5

     energy   old            =    -329.4832069972 Ry
     energy   new            =    -329.4847249019 Ry

     CASE: energy  _new < energy  _old

     new trust radius        =       0.0141010276 bohr
     new conv_thr            =       0.0000000015 Ry


ATOMIC_POSITIONS (bohr)
Au      -2.208251310   1.339483703  -0.433459799
Au      -0.459584869   2.814690754   4.122108635
Au       2.846333021   1.128136448   0.359923404
Au       4.269853109   4.132049665   5.355020732
Au       7.396062049   1.449641431   2.467399028



     Writing output data file pwscf.save
     Check: negative starting charge=   -0.006428
     NEW-OLD atomic charge density approx. for the potential
     Check: negative starting charge=   -0.006426

     negative rho (up, down):  1.982E-05 0.000E+00

     total cpu time spent up to now is       33.9 secs

     per-process dynamical memory:    50.7 Mb

     Self-consistent Calculation

     iteration #  1     ecut=    30.00 Ry     beta=0.70
     Davidson diagonalization with overlap
     ethr =  1.00E-06,  avg # of iterations =  4.0

     Threshold (ethr) on eigenvalues was too large:
     Diagonalizing with lowered threshold

     Davidson diagonalization with overlap
     ethr =  8.10E-08,  avg # of iterations =  1.0

     negative rho (up, down):  4.326E-08 0.000E+00

     total cpu time spent up to now is       34.9 secs

     total energy              =    -329.48520720 Ry
     Harris-Foulkes estimate   =    -329.48522197 Ry
     estimated scf accuracy    <       0.00004544 Ry

     iteration #  2     ecut=    30.00 Ry     beta=0.70
     Davidson diagonalization with overlap
     ethr =  8.26E-08,  avg # of iterations =  3.0

     total cpu time spent up to now is       35.4 secs

     total energy              =    -329.48519250 Ry
     Harris-Foulkes estimate   =    -329.48526462 Ry
     estimated scf accuracy    <       0.00021332 Ry

     iteration #  3     ecut=    30.00 Ry     beta=0.70
     Davidson diagonalization with overlap
     ethr =  8.26E-08,  avg # of iterations =  3.0

     total cpu time spent up to now is       35.8 secs

     total energy              =    -329.48522803 Ry
     Harris-Foulkes estimate   =    -329.48523078 Ry
     estimated scf accuracy    <       0.00000862 Ry

     iteration #  4     ecut=    30.00 Ry     beta=0.70
     Davidson diagonalization with overlap
     ethr =  1.57E-08,  avg # of iterations =  2.0

     total cpu time spent up to now is       36.3 secs

     total energy              =    -329.48522882 Ry
     Harris-Foulkes estimate   =    -329.48523035 Ry
     estimated scf accuracy    <       0.00000237 Ry

     iteration #  5     ecut=    30.00 Ry     beta=0.70
     Davidson diagonalization with overlap
     ethr =  4.30E-09,  avg # of iterations =  2.0

     total cpu time spent up to now is       36.7 secs

     total energy              =    -329.48522920 Ry
     Harris-Foulkes estimate   =    -329.48522954 Ry
     estimated scf accuracy    <       0.00000057 Ry

     iteration #  6     ecut=    30.00 Ry     beta=0.70
     Davidson diagonalization with overlap
     ethr =  1.04E-09,  avg # of iterations =  2.0

     total cpu time spent up to now is       37.1 secs

     total energy              =    -329.48522933 Ry
     Harris-Foulkes estimate   =    -329.48522933 Ry
     estimated scf accuracy    <       0.00000004 Ry

     iteration #  7     ecut=    30.00 Ry     beta=0.70
     Davidson diagonalization with overlap
     ethr =  6.57E-11,  avg # of iterations =  3.0

     total cpu time spent up to now is       37.6 secs

     total energy              =    -329.48522924 Ry
     Harris-Foulkes estimate   =    -329.48522934 Ry
     estimated scf accuracy    <          4.0E-09 Ry

     iteration #  8     ecut=    30.00 Ry     beta=0.70
     Davidson diagonalization with overlap
     ethr =  7.26E-12,  avg # of iterations =  3.0

     total cpu time spent up to now is       38.0 secs

     End of self-consistent calculation

          k = 0.0000 0.0000 0.0000 ( 22119 PWs)   bands (ev):

    -8.3706  -7.7406  -7.6576  -7.2727  -7.1844  -6.7550  -6.7241  -6.4956
    -6.2820  -6.1286  -5.9609  -5.7015  -5.6877  -5.6660  -5.4924  -5.3923
    -5.2677  -5.2619  -5.1942  -5.1850  -5.1506  -5.1358  -4.9862  -4.9521
    -4.8714  -4.5207  -4.4543  -3.7607  -2.5480  -2.1364  -0.5127  -0.2188
     0.4547   0.7978

     the Fermi energy is    -3.7377 ev

!    total energy              =    -329.48522931 Ry
     Harris-Foulkes estimate   =    -329.48522925 Ry
     estimated scf accuracy    <          1.0E-09 Ry

     The total energy is the sum of the following terms:

     one-electron contribution =    -610.49969310 Ry
     hartree contribution      =     326.69358471 Ry
     xc contribution           =     -51.41774567 Ry
     ewald contribution        =       5.74058463 Ry
     smearing contrib. (-TS)   =      -0.00195988 Ry

     convergence has been achieved in   8 iterations

     Forces acting on atoms (Ry/au):

     atom    1 type  1   force =     0.00284077   -0.00255001   -0.00584138
     atom    2 type  1   force =    -0.00713422    0.00149099    0.00132468
     atom    3 type  1   force =    -0.00800581    0.00271924    0.00402482
     atom    4 type  1   force =     0.00085735    0.00414889    0.00535597
     atom    5 type  1   force =     0.01144191   -0.00580912   -0.00486409

     Total force =     0.020645     Total SCF correction =     0.000139

     number of scf cycles    =   7
     number of bfgs steps    =   6

     energy   old            =    -329.4847249019 Ry
     energy   new            =    -329.4852293084 Ry

     CASE: energy  _new < energy  _old

     new trust radius        =       0.0155111304 bohr
     new conv_thr            =       0.0000000005 Ry


ATOMIC_POSITIONS (bohr)
Au      -2.202190665   1.335148868  -0.441956718
Au      -0.464708682   2.816518032   4.122610125
Au       2.837796930   1.134240433   0.371345824
Au       4.271175351   4.135334737   5.360045823
Au       7.402339067   1.442759931   2.458946947



     Writing output data file pwscf.save
     Check: negative starting charge=   -0.006426
     NEW-OLD atomic charge density approx. for the potential
     Check: negative starting charge=   -0.006431

     negative rho (up, down):  3.206E-05 0.000E+00

     total cpu time spent up to now is       38.5 secs

     per-process dynamical memory:    50.7 Mb

     Self-consistent Calculation

     iteration #  1     ecut=    30.00 Ry     beta=0.70
     Davidson diagonalization with overlap
     ethr =  1.00E-06,  avg # of iterations =  4.0

     Threshold (ethr) on eigenvalues was too large:
     Diagonalizing with lowered threshold

     Davidson diagonalization with overlap
     ethr =  8.83E-08,  avg # of iterations =  1.0

     negative rho (up, down):  8.209E-08 0.000E+00

     total cpu time spent up to now is       39.5 secs

     total energy              =    -329.48561850 Ry
     Harris-Foulkes estimate   =    -329.48563035 Ry
     estimated scf accuracy    <       0.00004877 Ry

     iteration #  2     ecut=    30.00 Ry     beta=0.70
     Davidson diagonalization with overlap
     ethr =  8.87E-08,  avg # of iterations =  3.0

     negative rho (up, down):  1.134E-08 0.000E+00

     total cpu time spent up to now is       40.0 secs

     total energy              =    -329.48560632 Ry
     Harris-Foulkes estimate   =    -329.48566456 Ry
     estimated scf accuracy    <       0.00015544 Ry

     iteration #  3     ecut=    30.00 Ry     beta=0.70
     Davidson diagonalization with overlap
     ethr =  8.87E-08,  avg # of iterations =  3.0

     total cpu time spent up to now is       40.5 secs

     total energy              =    -329.48563566 Ry
     Harris-Foulkes estimate   =    -329.48564135 Ry
     estimated scf accuracy    <       0.00001888 Ry

     iteration #  4     ecut=    30.00 Ry     beta=0.70
     Davidson diagonalization with overlap
     ethr =  3.43E-08,  avg # of iterations =  2.0

     total cpu time spent up to now is       40.9 secs

     total energy              =    -329.48563794 Ry
     Harris-Foulkes estimate   =    -329.48563891 Ry
     estimated scf accuracy    <       0.00000091 Ry

     iteration #  5     ecut=    30.00 Ry     beta=0.70
     Davidson diagonalization with overlap
     ethr =  1.65E-09,  avg # of iterations =  3.0

     total cpu time spent up to now is       41.4 secs

     total energy              =    -329.48563822 Ry
     Harris-Foulkes estimate   =    -329.48563841 Ry
     estimated scf accuracy    <       0.00000061 Ry

     iteration #  6     ecut=    30.00 Ry     beta=0.70
     Davidson diagonalization with overlap
     ethr =  1.11E-09,  avg # of iterations =  2.0

     total cpu time spent up to now is       41.8 secs

     total energy              =    -329.48563833 Ry
     Harris-Foulkes estimate   =    -329.48563835 Ry
     estimated scf accuracy    <       0.00000004 Ry

     iteration #  7     ecut=    30.00 Ry     beta=0.70
     Davidson diagonalization with overlap
     ethr =  6.39E-11,  avg # of iterations =  3.0

     total cpu time spent up to now is       42.3 secs

     total energy              =    -329.48563839 Ry
     Harris-Foulkes estimate   =    -329.48563834 Ry
     estimated scf accuracy    <          6.7E-09 Ry

     iteration #  8     ecut=    30.00 Ry     beta=0.70
     Davidson diagonalization with overlap
     ethr =  1.22E-11,  avg # of iterations =  2.0

     total cpu time spent up to now is       42.7 secs

     total energy              =    -329.48563837 Ry
     Harris-Foulkes estimate   =    -329.48563839 Ry
     estimated scf accuracy    <          1.1E-09 Ry

     iteration #  9     ecut=    30.00 Ry     beta=0.70
     Davidson diagonalization with overlap
     ethr =  2.08E-12,  avg # of iterations =  2.0

     total cpu time spent up to now is       43.2 secs

     End of self-consistent calculation

          k = 0.0000 0.0000 0.0000 ( 22119 PWs)   bands (ev):

    -8.3800  -7.7365  -7.6514  -7.2592  -7.1810  -6.7490  -6.7204  -6.4908
    -6.2758  -6.1181  -5.9634  -5.7063  -5.6885  -5.6697  -5.4909  -5.3883
    -5.2714  -5.2603  -5.1955  -5.1854  -5.1541  -5.1352  -4.9841  -4.9551
    -4.8766  -4.5220  -4.4602  -3.7616  -2.5431  -2.1450  -0.5123  -0.2176
     0.4552   0.7983

     the Fermi energy is    -3.7379 ev

!    total energy              =    -329.48563840 Ry
     Harris-Foulkes estimate   =    -329.48563837 Ry
     estimated scf accuracy    <          3.9E-10 Ry

     The total energy is the sum of the following terms:

     one-electron contribution =    -610.23127579 Ry
     hartree contribution      =     326.55971857 Ry
     xc contribution           =     -51.41598486 Ry
     ewald contribution        =       5.60401884 Ry
     smearing contrib. (-TS)   =      -0.00211515 Ry

     convergence has been achieved in   9 iterations

     Forces acting on atoms (Ry/au):

     atom    1 type  1   force =     0.00173808   -0.00231131   -0.00572711
     atom    2 type  1   force =    -0.00667161    0.00190877    0.00160363
     atom    3 type  1   force =    -0.00579848    0.00235529    0.00406565
     atom    4 type  1   force =     0.00114462    0.00267564    0.00391012
     atom    5 type  1   force =     0.00958739   -0.00462838   -0.00385228

     Total force =     0.017307     Total SCF correction =     0.000081

     number of scf cycles    =   8
     number of bfgs steps    =   7

     energy   old            =    -329.4852293084 Ry
     energy   new            =    -329.4856383957 Ry

     CASE: energy  _new < energy  _old

     new trust radius        =       0.0232666956 bohr
     new conv_thr            =       0.0000000004 Ry


ATOMIC_POSITIONS (bohr)
Au      -2.194030180   1.328473861  -0.455631275
Au      -0.472814529   2.820132597   4.123904888
Au       2.826875371   1.143511029   0.389679256
Au       4.273710291   4.138804514   5.366386125
Au       7.410671048   1.433079999   2.446653006



     Writing output data file pwscf.save
     Check: negative starting charge=   -0.006431
     NEW-OLD atomic charge density approx. for the potential
     Check: negative starting charge=   -0.006441

     negative rho (up, down):  1.018E-04 0.000E+00

     total cpu time spent up to now is       43.6 secs

     per-process dynamical memory:    50.7 Mb

     Self-consistent Calculation

     iteration #  1     ecut=    30.00 Ry     beta=0.70
     Davidson diagonalization with overlap
     ethr =  1.00E-06,  avg # of iterations =  4.0

     negative rho (up, down):  9.347E-07 0.000E+00

     total cpu time spent up to now is       44.4 secs

     total energy              =    -329.48607727 Ry
     Harris-Foulkes estimate   =    -329.48609015 Ry
     estimated scf accuracy    <       0.00009984 Ry

     iteration #  2     ecut=    30.00 Ry     beta=0.70
     Davidson diagonalization with overlap
     ethr =  1.82E-07,  avg # of iterations =  3.0

     negative rho (up, down):  1.529E-07 0.000E+00

     total cpu time spent up to now is       44.9 secs

     total energy              =    -329.48605857 Ry
     Harris-Foulkes estimate   =    -329.48616143 Ry
     estimated scf accuracy    <       0.00026090 Ry

     iteration #  3     ecut=    30.00 Ry     beta=0.70
     Davidson diagonalization with overlap
     ethr =  1.82E-07,  avg # of iterations =  2.0

     total cpu time spent up to now is       45.3 secs

     total energy              =    -329.48611018 Ry
     Harris-Foulkes estimate   =    -329.48612414 Ry
     estimated scf accuracy    <       0.00004673 Ry

     iteration #  4     ecut=    30.00 Ry     beta=0.70
     Davidson diagonalization with overlap
     ethr =  8.50E-08,  avg # of iterations =  2.0

     total cpu time spent up to now is       45.7 secs

     total energy              =    -329.48611705 Ry
     Harris-Foulkes estimate   =    -329.48611787 Ry
     estimated scf accuracy    <       0.00000148 Ry

     iteration #  5     ecut=    30.00 Ry     beta=0.70
     Davidson diagonalization with overlap
     ethr =  2.68E-09,  avg # of iterations =  3.0

     total cpu time spent up to now is       46.2 secs

     total energy              =    -329.48611731 Ry
     Harris-Foulkes estimate   =    -329.48611780 Ry
     estimated scf accuracy    <       0.00000078 Ry

     iteration #  6     ecut=    30.00 Ry     beta=0.70
     Davidson diagonalization with overlap
     ethr =  1.42E-09,  avg # of iterations =  2.0

     total cpu time spent up to now is       46.7 secs

     total energy              =    -329.48611747 Ry
     Harris-Foulkes estimate   =    -329.48611748 Ry
     estimated scf accuracy    <       0.00000009 Ry

     iteration #  7     ecut=    30.00 Ry     beta=0.70
     Davidson diagonalization with overlap
     ethr =  1.58E-10,  avg # of iterations =  2.0

     total cpu time spent up to now is       47.1 secs

     total energy              =    -329.48611751 Ry
     Harris-Foulkes estimate   =    -329.48611748 Ry
     estimated scf accuracy    <       0.00000001 Ry

     iteration #  8     ecut=    30.00 Ry     beta=0.70
     Davidson diagonalization with overlap
     ethr =  2.29E-11,  avg # of iterations =  2.0

     total cpu time spent up to now is       47.5 secs

     total energy              =    -329.48611748 Ry
     Harris-Foulkes estimate   =    -329.48611752 Ry
     estimated scf accuracy    <          2.9E-09 Ry

     iteration #  9     ecut=    30.00 Ry     beta=0.70
     Davidson diagonalization with overlap
     ethr =  5.19E-12,  avg # of iterations =  2.0

     total cpu time spent up to now is       48.0 secs

     total energy              =    -329.48611752 Ry
     Harris-Foulkes estimate   =    -329.48611748 Ry
     estimated scf accuracy    <          7.5E-10 Ry

     iteration # 10     ecut=    30.00 Ry     beta=0.70
     Davidson diagonalization with overlap
     ethr =  1.37E-12,  avg # of iterations =  2.0

     total cpu time spent up to now is       48.4 secs

     End of self-consistent calculation

          k = 0.0000 0.0000 0.0000 ( 22119 PWs)   bands (ev):

    -8.3941  -7.7327  -7.6439  -7.2444  -7.1723  -6.7509  -6.7058  -6.4860
    -6.2671  -6.1032  -5.9676  -5.7129  -5.6893  -5.6743  -5.4881  -5.3829
    -5.2787  -5.2565  -5.1976  -5.1860  -5.1592  -5.1345  -4.9813  -4.9589
    -4.8843  -4.5248  -4.4688  -3.7628  -2.5363  -2.1572  -0.5120  -0.2156
     0.4554   0.7996

     the Fermi energy is    -3.7380 ev

!    total energy              =    -329.48611754 Ry
     Harris-Foulkes estimate   =    -329.48611752 Ry
     estimated scf accuracy    <          2.0E-10 Ry

     The total energy is the sum of the following terms:

     one-electron contribution =    -609.86787866 Ry
     hartree contribution      =     326.37823719 Ry
     xc contribution           =     -51.41354688 Ry
     ewald contribution        =       5.41942992 Ry
     smearing contrib. (-TS)   =      -0.00235910 Ry

     convergence has been achieved in  10 iterations

     Forces acting on atoms (Ry/au):

     atom    1 type  1   force =     0.00049127   -0.00195839   -0.00531076
     atom    2 type  1   force =    -0.00612180    0.00245231    0.00176280
     atom    3 type  1   force =    -0.00307935    0.00178021    0.00404320
     atom    4 type  1   force =     0.00130121    0.00081717    0.00206871
     atom    5 type  1   force =     0.00740868   -0.00309130   -0.00256394

     Total force =     0.013621     Total SCF correction =     0.000060

     number of scf cycles    =   9
     number of bfgs steps    =   8

     energy   old            =    -329.4856383957 Ry
     energy   new            =    -329.4861175360 Ry

     CASE: energy  _new < energy  _old

     new trust radius        =       0.0349000433 bohr
     new conv_thr            =       0.0000000005 Ry


ATOMIC_POSITIONS (bohr)
Au      -2.183066675   1.318281255  -0.477216810
Au      -0.486153975   2.826986539   4.126494095
Au       2.812889738   1.157284153   0.418536077
Au       4.278038359   4.141987162   5.374278741
Au       7.422704552   1.419462890   2.428899896



     Writing output data file pwscf.save
     Check: negative starting charge=   -0.006441
     NEW-OLD atomic charge density approx. for the potential
     Check: negative starting charge=   -0.006458

     negative rho (up, down):  2.680E-04 0.000E+00

     total cpu time spent up to now is       48.9 secs

     per-process dynamical memory:    50.7 Mb

     Self-consistent Calculation

     iteration #  1     ecut=    30.00 Ry     beta=0.70
     Davidson diagonalization with overlap
     ethr =  1.00E-06,  avg # of iterations =  4.0

     negative rho (up, down):  6.298E-06 0.000E+00

     total cpu time spent up to now is       49.7 secs

     total energy              =    -329.48655391 Ry
     Harris-Foulkes estimate   =    -329.48654456 Ry
     estimated scf accuracy    <       0.00021347 Ry

     iteration #  2     ecut=    30.00 Ry     beta=0.70
     Davidson diagonalization with overlap
     ethr =  3.88E-07,  avg # of iterations =  3.0

     negative rho (up, down):  1.419E-06 0.000E+00

     total cpu time spent up to now is       50.2 secs

     total energy              =    -329.48652502 Ry
     Harris-Foulkes estimate   =    -329.48671871 Ry
     estimated scf accuracy    <       0.00047217 Ry

     iteration #  3     ecut=    30.00 Ry     beta=0.70
     Davidson diagonalization with overlap
     ethr =  3.88E-07,  avg # of iterations =  2.0

     negative rho (up, down):  2.364E-08 0.000E+00

     total cpu time spent up to now is       50.6 secs

     total energy              =    -329.48662125 Ry
     Harris-Foulkes estimate   =    -329.48665490 Ry
     estimated scf accuracy    <       0.00011304 Ry

     iteration #  4     ecut=    30.00 Ry     beta=0.70
     Davidson diagonalization with overlap
     ethr =  2.06E-07,  avg # of iterations =  2.0

     total cpu time spent up to now is       51.0 secs

     total energy              =    -329.48663861 Ry
     Harris-Foulkes estimate   =    -329.48663969 Ry
     estimated scf accuracy    <       0.00000309 Ry

     iteration #  5     ecut=    30.00 Ry     beta=0.70
     Davidson diagonalization with overlap
     ethr =  5.62E-09,  avg # of iterations =  3.0

     total cpu time spent up to now is       51.5 secs

     total energy              =    -329.48663941 Ry
     Harris-Foulkes estimate   =    -329.48664014 Ry
     estimated scf accuracy    <       0.00000144 Ry

     iteration #  6     ecut=    30.00 Ry     beta=0.70
     Davidson diagonalization with overlap
     ethr =  2.62E-09,  avg # of iterations =  2.0

     total cpu time spent up to now is       51.9 secs

     total energy              =    -329.48663960 Ry
     Harris-Foulkes estimate   =    -329.48663971 Ry
     estimated scf accuracy    <       0.00000017 Ry

     iteration #  7     ecut=    30.00 Ry     beta=0.70
     Davidson diagonalization with overlap
     ethr =  3.03E-10,  avg # of iterations =  2.0

     total cpu time spent up to now is       52.3 secs

     total energy              =    -329.48663972 Ry
     Harris-Foulkes estimate   =    -329.48663963 Ry
     estimated scf accuracy    <       0.00000002 Ry

     iteration #  8     ecut=    30.00 Ry     beta=0.70
     Davidson diagonalization with overlap
     ethr =  4.35E-11,  avg # of iterations =  3.0

     total cpu time spent up to now is       52.8 secs

     total energy              =    -329.48663967 Ry
     Harris-Foulkes estimate   =    -329.48663973 Ry
     estimated scf accuracy    <          6.1E-09 Ry

     iteration #  9     ecut=    30.00 Ry     beta=0.70
     Davidson diagonalization with overlap
     ethr =  1.11E-11,  avg # of iterations =  3.0

     total cpu time spent up to now is       53.3 secs

     total energy              =    -329.48663966 Ry
     Harris-Foulkes estimate   =    -329.48663967 Ry
     estimated scf accuracy    <          1.4E-09 Ry

     iteration # 10     ecut=    30.00 Ry     beta=0.70
     Davidson diagonalization with overlap
     ethr =  2.60E-12,  avg # of iterations =  2.0

     total cpu time spent up to now is       53.7 secs

     End of self-consistent calculation

          k = 0.0000 0.0000 0.0000 ( 22119 PWs)   bands (ev):

    -8.4137  -7.7293  -7.6350  -7.2299  -7.1511  -6.7602  -6.6783  -6.4816
    -6.2544  -6.0813  -5.9748  -5.7211  -5.6903  -5.6801  -5.4827  -5.3757
    -5.2898  -5.2508  -5.2007  -5.1864  -5.1663  -5.1335  -4.9776  -4.9634
    -4.8952  -4.5302  -4.4812  -3.7646  -2.5271  -2.1749  -0.5119  -0.2125
     0.4550   0.8021

     the Fermi energy is    -3.7382 ev

!    total energy              =    -329.48663965 Ry
     Harris-Foulkes estimate   =    -329.48663966 Ry
     estimated scf accuracy    <          2.3E-10 Ry

     The total energy is the sum of the following terms:

     one-electron contribution =    -609.32157204 Ry
     hartree contribution      =     326.10496865 Ry
     xc contribution           =     -51.40998845 Ry
     ewald contribution        =       5.14268035 Ry
     smearing contrib. (-TS)   =      -0.00272815 Ry

     convergence has been achieved in  10 iterations

     Forces acting on atoms (Ry/au):

     atom    1 type  1   force =    -0.00087705   -0.00148752   -0.00437710
     atom    2 type  1   force =    -0.00544722    0.00318399    0.00162930
     atom    3 type  1   force =     0.00039424    0.00097437    0.00415975
     atom    4 type  1   force =     0.00118123   -0.00154924   -0.00034837
     atom    5 type  1   force =     0.00474881   -0.00112161   -0.00106357

     Total force =     0.010577     Total SCF correction =     0.000050

     number of scf cycles    =  10
     number of bfgs steps    =   9

     energy   old            =    -329.4861175360 Ry
     energy   new            =    -329.4866396460 Ry

     CASE: energy  _new < energy  _old

     new trust radius        =       0.0523500650 bohr
     new conv_thr            =       0.0000000005 Ry


ATOMIC_POSITIONS (bohr)
Au      -2.168480585   1.302931998  -0.510122145
Au      -0.507694926   2.839565815   4.130680125
Au       2.796355400   1.177364894   0.463966341
Au       4.284683019   4.143231877   5.383013162
Au       7.439549093   1.400907417   2.403454517



     Writing output data file pwscf.save
     Check: negative starting charge=   -0.006458
     NEW-OLD atomic charge density approx. for the potential
     Check: negative starting charge=   -0.006477

     negative rho (up, down):  5.890E-04 0.000E+00

     total cpu time spent up to now is       54.2 secs

     per-process dynamical memory:    50.7 Mb

     Self-consistent Calculation

     iteration #  1     ecut=    30.00 Ry     beta=0.70
     Davidson diagonalization with overlap
     ethr =  1.00E-06,  avg # of iterations =  5.0

     negative rho (up, down):  2.691E-05 0.000E+00

     total cpu time spent up to now is       55.0 secs

     total energy              =    -329.48693135 Ry
     Harris-Foulkes estimate   =    -329.48674492 Ry
     estimated scf accuracy    <       0.00045151 Ry

     iteration #  2     ecut=    30.00 Ry     beta=0.70
     Davidson diagonalization with overlap
     ethr =  8.21E-07,  avg # of iterations =  4.0

     negative rho (up, down):  7.451E-06 0.000E+00

     total cpu time spent up to now is       55.5 secs

     total energy              =    -329.48689951 Ry
     Harris-Foulkes estimate   =    -329.48724531 Ry
     estimated scf accuracy    <       0.00080596 Ry

     iteration #  3     ecut=    30.00 Ry     beta=0.70
     Davidson diagonalization with overlap
     ethr =  8.21E-07,  avg # of iterations =  2.0

     negative rho (up, down):  3.825E-07 0.000E+00

     total cpu time spent up to now is       55.9 secs

     total energy              =    -329.48706561 Ry
     Harris-Foulkes estimate   =    -329.48714618 Ry
     estimated scf accuracy    <       0.00026357 Ry

     iteration #  4     ecut=    30.00 Ry     beta=0.70
     Davidson diagonalization with overlap
     ethr =  4.79E-07,  avg # of iterations =  2.0

     total cpu time spent up to now is       56.3 secs

     total energy              =    -329.48710859 Ry
     Harris-Foulkes estimate   =    -329.48710915 Ry
     estimated scf accuracy    <       0.00000702 Ry

     iteration #  5     ecut=    30.00 Ry     beta=0.70
     Davidson diagonalization with overlap
     ethr =  1.28E-08,  avg # of iterations =  3.0

     total cpu time spent up to now is       56.8 secs

     total energy              =    -329.48711066 Ry
     Harris-Foulkes estimate   =    -329.48711211 Ry
     estimated scf accuracy    <       0.00000360 Ry

     iteration #  6     ecut=    30.00 Ry     beta=0.70
     Davidson diagonalization with overlap
     ethr =  6.55E-09,  avg # of iterations =  2.0

     total cpu time spent up to now is       57.3 secs

     total energy              =    -329.48711133 Ry
     Harris-Foulkes estimate   =    -329.48711137 Ry
     estimated scf accuracy    <       0.00000044 Ry

     iteration #  7     ecut=    30.00 Ry     beta=0.70
     Davidson diagonalization with overlap
     ethr =  7.96E-10,  avg # of iterations =  2.0

     total cpu time spent up to now is       57.7 secs

     total energy              =    -329.48711135 Ry
     Harris-Foulkes estimate   =    -329.48711141 Ry
     estimated scf accuracy    <       0.00000005 Ry

     iteration #  8     ecut=    30.00 Ry     beta=0.70
     Davidson diagonalization with overlap
     ethr =  9.94E-11,  avg # of iterations =  2.0

     total cpu time spent up to now is       58.2 secs

     total energy              =    -329.48711135 Ry
     Harris-Foulkes estimate   =    -329.48711136 Ry
     estimated scf accuracy    <       0.00000001 Ry

     iteration #  9     ecut=    30.00 Ry     beta=0.70
     Davidson diagonalization with overlap
     ethr =  2.46E-11,  avg # of iterations =  3.0

     total cpu time spent up to now is       58.7 secs

     total energy              =    -329.48711133 Ry
     Harris-Foulkes estimate   =    -329.48711136 Ry
     estimated scf accuracy    <          5.0E-09 Ry

     iteration # 10     ecut=    30.00 Ry     beta=0.70
     Davidson diagonalization with overlap
     ethr =  9.13E-12,  avg # of iterations =  2.0

     total cpu time spent up to now is       59.1 secs

     total energy              =    -329.48711127 Ry
     Harris-Foulkes estimate   =    -329.48711133 Ry
     estimated scf accuracy    <          6.7E-10 Ry

     iteration # 11     ecut=    30.00 Ry     beta=0.70
     Davidson diagonalization with overlap
     ethr =  1.22E-12,  avg # of iterations =  3.0

     total cpu time spent up to now is       59.6 secs

     End of self-consistent calculation

          k = 0.0000 0.0000 0.0000 ( 22119 PWs)   bands (ev):

    -8.4407  -7.7281  -7.6282  -7.2157  -7.1123  -6.7751  -6.6378  -6.4807
    -6.2366  -6.0507  -5.9880  -5.7301  -5.6918  -5.6873  -5.4726  -5.3682
    -5.3052  -5.2430  -5.2048  -5.1864  -5.1755  -5.1323  -4.9737  -4.9675
    -4.9092  -4.5397  -4.4989  -3.7672  -2.5151  -2.1992  -0.5124  -0.2075
     0.4537   0.8072

     the Fermi energy is    -3.7385 ev

!    total energy              =    -329.48711126 Ry
     Harris-Foulkes estimate   =    -329.48711127 Ry
     estimated scf accuracy    <          1.3E-10 Ry

     The total energy is the sum of the following terms:

     one-electron contribution =    -608.58267628 Ry
     hartree contribution      =     325.73499714 Ry
     xc contribution           =     -51.40528048 Ry
     ewald contribution        =       4.76909902 Ry
     smearing contrib. (-TS)   =      -0.00325066 Ry

     convergence has been achieved in  11 iterations

     Forces acting on atoms (Ry/au):

     atom    1 type  1   force =    -0.00212293   -0.00088488   -0.00235939
     atom    2 type  1   force =    -0.00482519    0.00408363    0.00125054
     atom    3 type  1   force =     0.00428356    0.00000940    0.00364208
     atom    4 type  1   force =     0.00068589   -0.00438698   -0.00322138
     atom    5 type  1   force =     0.00197867    0.00117884    0.00068815

     Total force =     0.010948     Total SCF correction =     0.000055

     number of scf cycles    =  11
     number of bfgs steps    =  10

     energy   old            =    -329.4866396460 Ry
     energy   new            =    -329.4871112597 Ry

     CASE: energy  _new < energy  _old

     new trust radius        =       0.0464923997 bohr
     new conv_thr            =       0.0000000005 Ry


ATOMIC_POSITIONS (bohr)
Au      -2.158135390   1.288932041  -0.539941185
Au      -0.531909464   2.855055401   4.135327350
Au       2.786830360   1.194273536   0.506214591
Au       4.290649009   4.139319760   5.386806427
Au       7.456977485   1.386421261   2.382584816



     Writing output data file pwscf.save
     Check: negative starting charge=   -0.006477
     NEW-OLD atomic charge density approx. for the potential
     Check: negative starting charge=   -0.006492

     negative rho (up, down):  4.865E-04 0.000E+00

     total cpu time spent up to now is       60.1 secs

     per-process dynamical memory:    50.7 Mb

     Self-consistent Calculation

     iteration #  1     ecut=    30.00 Ry     beta=0.70
     Davidson diagonalization with overlap
     ethr =  1.00E-06,  avg # of iterations =  5.0

     negative rho (up, down):  1.900E-05 0.000E+00

     total cpu time spent up to now is       60.9 secs

     total energy              =    -329.48722050 Ry
     Harris-Foulkes estimate   =    -329.48707999 Ry
     estimated scf accuracy    <       0.00035467 Ry

     iteration #  2     ecut=    30.00 Ry     beta=0.70
     Davidson diagonalization with overlap
     ethr =  6.45E-07,  avg # of iterations =  4.0

     negative rho (up, down):  3.915E-06 0.000E+00

     total cpu time spent up to now is       61.4 secs

     total energy              =    -329.48722381 Ry
     Harris-Foulkes estimate   =    -329.48743472 Ry
     estimated scf accuracy    <       0.00045901 Ry

     iteration #  3     ecut=    30.00 Ry     beta=0.70
     Davidson diagonalization with overlap
     ethr =  6.45E-07,  avg # of iterations =  2.0

     negative rho (up, down):  2.243E-07 0.000E+00

     total cpu time spent up to now is       62.1 secs

     total energy              =    -329.48731724 Ry
     Harris-Foulkes estimate   =    -329.48738385 Ry
     estimated scf accuracy    <       0.00021080 Ry

     iteration #  4     ecut=    30.00 Ry     beta=0.70
     Davidson diagonalization with overlap
     ethr =  3.83E-07,  avg # of iterations =  2.0

     total cpu time spent up to now is       62.4 secs

     total energy              =    -329.48735359 Ry
     Harris-Foulkes estimate   =    -329.48735381 Ry
     estimated scf accuracy    <       0.00000702 Ry

     iteration #  5     ecut=    30.00 Ry     beta=0.70
     Davidson diagonalization with overlap
     ethr =  1.28E-08,  avg # of iterations =  3.0

     total cpu time spent up to now is       62.9 secs

     total energy              =    -329.48735524 Ry
     Harris-Foulkes estimate   =    -329.48735694 Ry
     estimated scf accuracy    <       0.00000391 Ry

     iteration #  6     ecut=    30.00 Ry     beta=0.70
     Davidson diagonalization with overlap
     ethr =  7.10E-09,  avg # of iterations =  2.0

     total cpu time spent up to now is       63.3 secs

     total energy              =    -329.48735587 Ry
     Harris-Foulkes estimate   =    -329.48735599 Ry
     estimated scf accuracy    <       0.00000037 Ry

     iteration #  7     ecut=    30.00 Ry     beta=0.70
     Davidson diagonalization with overlap
     ethr =  6.65E-10,  avg # of iterations =  2.0

     total cpu time spent up to now is       63.7 secs

     total energy              =    -329.48735588 Ry
     Harris-Foulkes estimate   =    -329.48735595 Ry
     estimated scf accuracy    <       0.00000004 Ry

     iteration #  8     ecut=    30.00 Ry     beta=0.70
     Davidson diagonalization with overlap
     ethr =  8.15E-11,  avg # of iterations =  2.0

     total cpu time spent up to now is       64.2 secs

     total energy              =    -329.48735590 Ry
     Harris-Foulkes estimate   =    -329.48735589 Ry
     estimated scf accuracy    <       0.00000001 Ry

     iteration #  9     ecut=    30.00 Ry     beta=0.70
     Davidson diagonalization with overlap
     ethr =  2.09E-11,  avg # of iterations =  3.0

     total cpu time spent up to now is       64.7 secs

     total energy              =    -329.48735593 Ry
     Harris-Foulkes estimate   =    -329.48735591 Ry
     estimated scf accuracy    <          5.0E-09 Ry

     iteration # 10     ecut=    30.00 Ry     beta=0.70
     Davidson diagonalization with overlap
     ethr =  9.06E-12,  avg # of iterations =  2.0

     total cpu time spent up to now is       65.1 secs

     End of self-consistent calculation

          k = 0.0000 0.0000 0.0000 ( 22119 PWs)   bands (ev):

    -8.4567  -7.7264  -7.6249  -7.2008  -7.0746  -6.7832  -6.6040  -6.4815
    -6.2221  -6.0262  -5.9996  -5.7344  -5.6922  -5.6913  -5.4610  -5.3660
    -5.3163  -5.2373  -5.2085  -5.1881  -5.1803  -5.1316  -4.9745  -4.9679
    -4.9184  -4.5514  -4.5141  -3.7700  -2.5079  -2.2203  -0.5132  -0.2027
     0.4520   0.8122

     the Fermi energy is    -3.7393 ev

!    total energy              =    -329.48735593 Ry
     Harris-Foulkes estimate   =    -329.48735593 Ry
     estimated scf accuracy    <          3.8E-10 Ry

     The total energy is the sum of the following terms:

     one-electron contribution =    -607.79105839 Ry
     hartree contribution      =     325.33949890 Ry
     xc contribution           =     -51.40062796 Ry
     ewald contribution        =       4.36854106 Ry
     smearing contrib. (-TS)   =      -0.00370955 Ry

     convergence has been achieved in  10 iterations

     Forces acting on atoms (Ry/au):

     atom    1 type  1   force =    -0.00205308   -0.00041219    0.00035223
     atom    2 type  1   force =    -0.00419429    0.00438182    0.00081522
     atom    3 type  1   force =     0.00609937   -0.00025497    0.00216649
     atom    4 type  1   force =     0.00003113   -0.00636548   -0.00511241
     atom    5 type  1   force =     0.00011686    0.00265082    0.00177848

     Total force =     0.012680     Total SCF correction =     0.000076

     number of scf cycles    =  12
     number of bfgs steps    =  11

     energy   old            =    -329.4871112597 Ry
     energy   new            =    -329.4873559349 Ry

     CASE: energy  _new < energy  _old

     new trust radius        =       0.0245608846 bohr
     new conv_thr            =       0.0000000002 Ry


ATOMIC_POSITIONS (bohr)
Au      -2.155600096   1.281323625  -0.554707141
Au      -0.551969670   2.868685508   4.139206185
Au       2.787445438   1.201998702   0.528357383
Au       4.293604462   4.130612149   5.383745378
Au       7.470931866   1.381382015   2.374390195



     Writing output data file pwscf.save
     Check: negative starting charge=   -0.006492
     NEW-OLD atomic charge density approx. for the potential
     Check: negative starting charge=   -0.006497

     negative rho (up, down):  1.501E-04 0.000E+00

     total cpu time spent up to now is       65.5 secs

     per-process dynamical memory:    50.7 Mb

     Self-consistent Calculation

     iteration #  1     ecut=    30.00 Ry     beta=0.70
     Davidson diagonalization with overlap
     ethr =  1.00E-06,  avg # of iterations =  4.0

     negative rho (up, down):  2.061E-06 0.000E+00

     total cpu time spent up to now is       66.3 secs

     total energy              =    -329.48751378 Ry
     Harris-Foulkes estimate   =    -329.48750781 Ry
     estimated scf accuracy    <       0.00010952 Ry

     iteration #  2     ecut=    30.00 Ry     beta=0.70
     Davidson diagonalization with overlap
     ethr =  1.99E-07,  avg # of iterations =  3.0

     negative rho (up, down):  9.863E-08 0.000E+00

     total cpu time spent up to now is       66.8 secs

     total energy              =    -329.48753055 Ry
     Harris-Foulkes estimate   =    -329.48756528 Ry
     estimated scf accuracy    <       0.00007102 Ry

     iteration #  3     ecut=    30.00 Ry     beta=0.70
     Davidson diagonalization with overlap
     ethr =  1.29E-07,  avg # of iterations =  2.0

     total cpu time spent up to now is       67.3 secs

     total energy              =    -329.48754371 Ry
     Harris-Foulkes estimate   =    -329.48755684 Ry
     estimated scf accuracy    <       0.00003756 Ry

     iteration #  4     ecut=    30.00 Ry     beta=0.70
     Davidson diagonalization with overlap
     ethr =  6.83E-08,  avg # of iterations =  2.0

     total cpu time spent up to now is       67.6 secs

     total energy              =    -329.48755244 Ry
     Harris-Foulkes estimate   =    -329.48755311 Ry
     estimated scf accuracy    <       0.00000598 Ry

     iteration #  5     ecut=    30.00 Ry     beta=0.70
     Davidson diagonalization with overlap
     ethr =  1.09E-08,  avg # of iterations =  2.0

     total cpu time spent up to now is       68.1 secs

     total energy              =    -329.48755335 Ry
     Harris-Foulkes estimate   =    -329.48755380 Ry
     estimated scf accuracy    <       0.00000106 Ry

     iteration #  6     ecut=    30.00 Ry     beta=0.70
     Davidson diagonalization with overlap
     ethr =  1.93E-09,  avg # of iterations =  2.0

[...]
     estimated scf accuracy    <       0.00005841 Ry

     iteration #  4     ecut=    30.00 Ry     beta=0.70
     Davidson diagonalization with overlap
     ethr =  1.06E-07,  avg # of iterations =  2.0

     total cpu time spent up to now is      270.2 secs

     total energy              =    -329.49129838 Ry
     Harris-Foulkes estimate   =    -329.49130740 Ry
     estimated scf accuracy    <       0.00002982 Ry

     iteration #  5     ecut=    30.00 Ry     beta=0.70
     Davidson diagonalization with overlap
     ethr =  5.42E-08,  avg # of iterations =  2.0

     total cpu time spent up to now is      270.7 secs

     total energy              =    -329.49130329 Ry
     Harris-Foulkes estimate   =    -329.49130369 Ry
     estimated scf accuracy    <       0.00000108 Ry

     iteration #  6     ecut=    30.00 Ry     beta=0.70
     Davidson diagonalization with overlap
     ethr =  1.97E-09,  avg # of iterations =  3.0

     total cpu time spent up to now is      271.2 secs

     total energy              =    -329.49130357 Ry
     Harris-Foulkes estimate   =    -329.49130373 Ry
     estimated scf accuracy    <       0.00000018 Ry

     iteration #  7     ecut=    30.00 Ry     beta=0.70
     Davidson diagonalization with overlap
     ethr =  3.34E-10,  avg # of iterations =  2.0

     total cpu time spent up to now is      271.7 secs

     total energy              =    -329.49130350 Ry
     Harris-Foulkes estimate   =    -329.49130364 Ry
     estimated scf accuracy    <       0.00000007 Ry

     iteration #  8     ecut=    30.00 Ry     beta=0.70
     Davidson diagonalization with overlap
     ethr =  1.33E-10,  avg # of iterations =  2.0

     total cpu time spent up to now is      272.2 secs

     total energy              =    -329.49130350 Ry
     Harris-Foulkes estimate   =    -329.49130352 Ry
     estimated scf accuracy    <       0.00000001 Ry

     iteration #  9     ecut=    30.00 Ry     beta=0.70
     Davidson diagonalization with overlap
     ethr =  2.21E-11,  avg # of iterations =  2.0

     total cpu time spent up to now is      272.6 secs

     total energy              =    -329.49130349 Ry
     Harris-Foulkes estimate   =    -329.49130350 Ry
     estimated scf accuracy    <          2.0E-09 Ry

     iteration # 10     ecut=    30.00 Ry     beta=0.70
     Davidson diagonalization with overlap
     ethr =  3.72E-12,  avg # of iterations =  2.0

     total cpu time spent up to now is      273.1 secs

     total energy              =    -329.49130349 Ry
     Harris-Foulkes estimate   =    -329.49130349 Ry
     estimated scf accuracy    <          2.5E-10 Ry

     iteration # 11     ecut=    30.00 Ry     beta=0.70
     Davidson diagonalization with overlap
     ethr =  4.48E-13,  avg # of iterations =  2.0

     total cpu time spent up to now is      273.6 secs

     End of self-consistent calculation

          k = 0.0000 0.0000 0.0000 ( 22119 PWs)   bands (ev):

    -8.5180  -7.7846  -7.6686  -7.2310  -6.8596  -6.8240  -6.5848  -6.4871
    -6.3114  -6.0810  -5.9453  -5.7720  -5.7302  -5.6869  -5.4591  -5.3651
    -5.3154  -5.2476  -5.2022  -5.1883  -5.1663  -5.1243  -4.9961  -4.9213
    -4.8412  -4.7260  -4.4806  -3.7916  -2.5002  -2.1946  -0.5612  -0.1812
     0.5234   0.8920

     the Fermi energy is    -3.7608 ev

!    total energy              =    -329.49130350 Ry
     Harris-Foulkes estimate   =    -329.49130349 Ry
     estimated scf accuracy    <          2.6E-11 Ry

     The total energy is the sum of the following terms:

     one-electron contribution =    -609.09657484 Ry
     hartree contribution      =     325.97954629 Ry
     xc contribution           =     -51.40251622 Ry
     ewald contribution        =       5.03217872 Ry
     smearing contrib. (-TS)   =      -0.00393746 Ry

     convergence has been achieved in  11 iterations

     Forces acting on atoms (Ry/au):

     atom    1 type  1   force =     0.00098071    0.00100379    0.00082682
     atom    2 type  1   force =    -0.00202856   -0.00005016   -0.00194007
     atom    3 type  1   force =    -0.00000291    0.00024700   -0.00028768
     atom    4 type  1   force =     0.00218850   -0.00062343    0.00000956
     atom    5 type  1   force =    -0.00113774   -0.00057721    0.00139138

     Total force =     0.004407     Total SCF correction =     0.000024

     number of scf cycles    =  48
     number of bfgs steps    =  46

     energy   old            =    -329.4912458482 Ry
     energy   new            =    -329.4913035020 Ry

     CASE: energy  _new < energy  _old

     new trust radius        =       0.0670596886 bohr
     new conv_thr            =            1.0E-10 Ry


ATOMIC_POSITIONS (bohr)
Au      -2.030746128   1.122867320  -0.571652481
Au      -0.729718087   3.622188296   3.814570867
Au       2.843879413   1.106494381   0.754089448
Au       4.155195161   3.640180037   5.481439149
Au       7.605801641   1.372271967   2.392545017



     Writing output data file pwscf.save
     Check: negative starting charge=   -0.006457
     NEW-OLD atomic charge density approx. for the potential
     Check: negative starting charge=   -0.006463

     negative rho (up, down):  8.009E-04 0.000E+00

     total cpu time spent up to now is      274.1 secs

     per-process dynamical memory:    50.7 Mb

     Self-consistent Calculation

     iteration #  1     ecut=    30.00 Ry     beta=0.70
     Davidson diagonalization with overlap
     ethr =  1.00E-06,  avg # of iterations = 10.0

     negative rho (up, down):  4.308E-05 0.000E+00

     total cpu time spent up to now is      275.1 secs

     total energy              =    -329.49101828 Ry
     Harris-Foulkes estimate   =    -329.49082545 Ry
     estimated scf accuracy    <       0.00077010 Ry

     iteration #  2     ecut=    30.00 Ry     beta=0.70
     Davidson diagonalization with overlap
     ethr =  1.40E-06,  avg # of iterations =  5.0

     negative rho (up, down):  1.007E-05 0.000E+00

     total cpu time spent up to now is      275.7 secs

     total energy              =    -329.49111436 Ry
     Harris-Foulkes estimate   =    -329.49152710 Ry
     estimated scf accuracy    <       0.00090269 Ry

     iteration #  3     ecut=    30.00 Ry     beta=0.70
     Davidson diagonalization with overlap
     ethr =  1.40E-06,  avg # of iterations =  2.0

     negative rho (up, down):  2.788E-07 0.000E+00

     total cpu time spent up to now is      276.2 secs

     total energy              =    -329.49128943 Ry
     Harris-Foulkes estimate   =    -329.49132915 Ry
     estimated scf accuracy    <       0.00008480 Ry

     iteration #  4     ecut=    30.00 Ry     beta=0.70
     Davidson diagonalization with overlap
     ethr =  1.54E-07,  avg # of iterations =  2.0

     total cpu time spent up to now is      276.6 secs

     total energy              =    -329.49130724 Ry
     Harris-Foulkes estimate   =    -329.49133352 Ry
     estimated scf accuracy    <       0.00007634 Ry

     iteration #  5     ecut=    30.00 Ry     beta=0.70
     Davidson diagonalization with overlap
     ethr =  1.39E-07,  avg # of iterations =  2.0

     total cpu time spent up to now is      277.1 secs

     total energy              =    -329.49131908 Ry
     Harris-Foulkes estimate   =    -329.49132028 Ry
     estimated scf accuracy    <       0.00000222 Ry

     iteration #  6     ecut=    30.00 Ry     beta=0.70
     Davidson diagonalization with overlap
     ethr =  4.04E-09,  avg # of iterations =  3.0

     total cpu time spent up to now is      277.5 secs

     total energy              =    -329.49131958 Ry
     Harris-Foulkes estimate   =    -329.49132003 Ry
     estimated scf accuracy    <       0.00000035 Ry

     iteration #  7     ecut=    30.00 Ry     beta=0.70
     Davidson diagonalization with overlap
     ethr =  6.28E-10,  avg # of iterations =  2.0

     total cpu time spent up to now is      278.1 secs

     total energy              =    -329.49131977 Ry
     Harris-Foulkes estimate   =    -329.49131970 Ry
     estimated scf accuracy    <       0.00000015 Ry

     iteration #  8     ecut=    30.00 Ry     beta=0.70
     Davidson diagonalization with overlap
     ethr =  2.71E-10,  avg # of iterations =  2.0

     total cpu time spent up to now is      278.6 secs

     total energy              =    -329.49131981 Ry
     Harris-Foulkes estimate   =    -329.49131981 Ry
     estimated scf accuracy    <       0.00000003 Ry

     iteration #  9     ecut=    30.00 Ry     beta=0.70
     Davidson diagonalization with overlap
     ethr =  4.61E-11,  avg # of iterations =  2.0

     total cpu time spent up to now is      279.1 secs

     total energy              =    -329.49131982 Ry
     Harris-Foulkes estimate   =    -329.49131982 Ry
     estimated scf accuracy    <          3.6E-09 Ry

     iteration # 10     ecut=    30.00 Ry     beta=0.70
     Davidson diagonalization with overlap
     ethr =  6.57E-12,  avg # of iterations =  2.0

     total cpu time spent up to now is      279.5 secs

     total energy              =    -329.49131983 Ry
     Harris-Foulkes estimate   =    -329.49131982 Ry
     estimated scf accuracy    <          4.7E-10 Ry

     iteration # 11     ecut=    30.00 Ry     beta=0.70
     Davidson diagonalization with overlap
     ethr =  8.61E-13,  avg # of iterations =  2.0

     total cpu time spent up to now is      280.0 secs

     End of self-consistent calculation

          k = 0.0000 0.0000 0.0000 ( 22119 PWs)   bands (ev):

    -8.5116  -7.7768  -7.6691  -7.2281  -6.8750  -6.8208  -6.5732  -6.4851
    -6.3129  -6.0770  -5.9435  -5.7691  -5.7275  -5.6876  -5.4517  -5.3688
    -5.3185  -5.2429  -5.2049  -5.1916  -5.1631  -5.1266  -4.9949  -4.9216
    -4.8520  -4.7155  -4.4821  -3.7948  -2.4960  -2.1964  -0.5585  -0.1844
     0.5147   0.8886

     the Fermi energy is    -3.7644 ev

!    total energy              =    -329.49131983 Ry
     Harris-Foulkes estimate   =    -329.49131983 Ry
     estimated scf accuracy    <          6.0E-11 Ry

     The total energy is the sum of the following terms:

     one-electron contribution =    -608.70599101 Ry
     hartree contribution      =     325.78537316 Ry
     xc contribution           =     -51.40162665 Ry
     ewald contribution        =       4.83474416 Ry
     smearing contrib. (-TS)   =      -0.00381950 Ry

     convergence has been achieved in  11 iterations

     Forces acting on atoms (Ry/au):

     atom    1 type  1   force =     0.00182764    0.00138101    0.00142440
     atom    2 type  1   force =    -0.00301926   -0.00139663   -0.00221660
     atom    3 type  1   force =     0.00000606    0.00015694    0.00001759
     atom    4 type  1   force =     0.00266075   -0.00040527   -0.00134262
     atom    5 type  1   force =    -0.00147519    0.00026396    0.00211722

     Total force =     0.006249     Total SCF correction =     0.000037

     number of scf cycles    =  49
     number of bfgs steps    =  47

     energy   old            =    -329.4913035020 Ry
     energy   new            =    -329.4913198340 Ry

     CASE: energy  _new < energy  _old

     new trust radius        =       0.0252575612 bohr
     new conv_thr            =            1.0E-10 Ry


ATOMIC_POSITIONS (bohr)
Au      -2.026187596   1.127201511  -0.563124021
Au      -0.744969552   3.608445271   3.829283667
Au       2.848563276   1.111081729   0.752684710
Au       4.153362449   3.639860065   5.462605064
Au       7.613643423   1.377413423   2.389542580



     Writing output data file pwscf.save
     Check: negative starting charge=   -0.006463
     NEW-OLD atomic charge density approx. for the potential
     Check: negative starting charge=   -0.006463

     negative rho (up, down):  9.307E-05 0.000E+00

     total cpu time spent up to now is      280.5 secs

     per-process dynamical memory:    50.7 Mb

     Self-consistent Calculation

     iteration #  1     ecut=    30.00 Ry     beta=0.70
     Davidson diagonalization with overlap
     ethr =  1.00E-06,  avg # of iterations =  4.0

     negative rho (up, down):  8.079E-07 0.000E+00

     total cpu time spent up to now is      281.3 secs

     total energy              =    -329.49132572 Ry
     Harris-Foulkes estimate   =    -329.49135144 Ry
     estimated scf accuracy    <       0.00009635 Ry

     iteration #  2     ecut=    30.00 Ry     beta=0.70
     Davidson diagonalization with overlap
     ethr =  1.75E-07,  avg # of iterations =  2.0

     negative rho (up, down):  8.332E-08 0.000E+00

     total cpu time spent up to now is      281.8 secs

     total energy              =    -329.49133281 Ry
     Harris-Foulkes estimate   =    -329.49138779 Ry
     estimated scf accuracy    <       0.00011884 Ry

     iteration #  3     ecut=    30.00 Ry     beta=0.70
     Davidson diagonalization with overlap
     ethr =  1.75E-07,  avg # of iterations =  2.0

     total cpu time spent up to now is      282.3 secs

     total energy              =    -329.49135653 Ry
     Harris-Foulkes estimate   =    -329.49136609 Ry
     estimated scf accuracy    <       0.00002396 Ry

     iteration #  4     ecut=    30.00 Ry     beta=0.70
     Davidson diagonalization with overlap
     ethr =  4.36E-08,  avg # of iterations =  2.0

     total cpu time spent up to now is      282.7 secs

     total energy              =    -329.49136200 Ry
     Harris-Foulkes estimate   =    -329.49136361 Ry
     estimated scf accuracy    <       0.00000526 Ry

     iteration #  5     ecut=    30.00 Ry     beta=0.70
     Davidson diagonalization with overlap
     ethr =  9.57E-09,  avg # of iterations =  2.0

     total cpu time spent up to now is      283.1 secs

     total energy              =    -329.49136273 Ry
     Harris-Foulkes estimate   =    -329.49136311 Ry
     estimated scf accuracy    <       0.00000043 Ry

     iteration #  6     ecut=    30.00 Ry     beta=0.70
     Davidson diagonalization with overlap
     ethr =  7.88E-10,  avg # of iterations =  2.0

     total cpu time spent up to now is      283.6 secs

     total energy              =    -329.49136282 Ry
     Harris-Foulkes estimate   =    -329.49136286 Ry
     estimated scf accuracy    <       0.00000007 Ry

     iteration #  7     ecut=    30.00 Ry     beta=0.70
     Davidson diagonalization with overlap
     ethr =  1.19E-10,  avg # of iterations =  2.0

     total cpu time spent up to now is      284.1 secs

     total energy              =    -329.49136288 Ry
     Harris-Foulkes estimate   =    -329.49136285 Ry
     estimated scf accuracy    <       0.00000002 Ry

     iteration #  8     ecut=    30.00 Ry     beta=0.70
     Davidson diagonalization with overlap
     ethr =  4.26E-11,  avg # of iterations =  2.0

     total cpu time spent up to now is      284.6 secs

     total energy              =    -329.49136286 Ry
     Harris-Foulkes estimate   =    -329.49136289 Ry
     estimated scf accuracy    <          2.9E-09 Ry

     iteration #  9     ecut=    30.00 Ry     beta=0.70
     Davidson diagonalization with overlap
     ethr =  5.27E-12,  avg # of iterations =  2.0

     total cpu time spent up to now is      285.1 secs

     total energy              =    -329.49136283 Ry
     Harris-Foulkes estimate   =    -329.49136286 Ry
     estimated scf accuracy    <          6.4E-10 Ry

     iteration # 10     ecut=    30.00 Ry     beta=0.70
     Davidson diagonalization with overlap
     ethr =  1.17E-12,  avg # of iterations =  2.0

     total cpu time spent up to now is      285.6 secs

     End of self-consistent calculation

          k = 0.0000 0.0000 0.0000 ( 22119 PWs)   bands (ev):

    -8.5145  -7.7825  -7.6690  -7.2332  -6.8689  -6.8224  -6.5843  -6.4859
    -6.3147  -6.0776  -5.9471  -5.7710  -5.7291  -5.6881  -5.4552  -5.3675
    -5.3170  -5.2443  -5.2028  -5.1900  -5.1650  -5.1257  -4.9963  -4.9197
    -4.8451  -4.7224  -4.4789  -3.7924  -2.4987  -2.1924  -0.5598  -0.1827
     0.5193   0.8904

     the Fermi energy is    -3.7620 ev

!    total energy              =    -329.49136284 Ry
     Harris-Foulkes estimate   =    -329.49136283 Ry
     estimated scf accuracy    <          4.0E-11 Ry

     The total energy is the sum of the following terms:

     one-electron contribution =    -609.02276878 Ry
     hartree contribution      =     325.94269829 Ry
     xc contribution           =     -51.40270060 Ry
     ewald contribution        =       4.99525570 Ry
     smearing contrib. (-TS)   =      -0.00384744 Ry

     convergence has been achieved in  10 iterations

     Forces acting on atoms (Ry/au):

     atom    1 type  1   force =     0.00122243    0.00109564    0.00066787
     atom    2 type  1   force =    -0.00268250   -0.00076596   -0.00211059
     atom    3 type  1   force =     0.00011487    0.00007932    0.00012035
     atom    4 type  1   force =     0.00246741   -0.00034009   -0.00023888
     atom    5 type  1   force =    -0.00112221   -0.00006891    0.00156125

     Total force =     0.005037     Total SCF correction =     0.000031

     number of scf cycles    =  50
     number of bfgs steps    =  48

     energy   old            =    -329.4913198340 Ry
     energy   new            =    -329.4913628413 Ry

     CASE: energy  _new < energy  _old

     new trust radius        =       0.0121924015 bohr
     new conv_thr            =            1.0E-10 Ry


ATOMIC_POSITIONS (bohr)
Au      -2.023090721   1.132858529  -0.558320757
Au      -0.755946295   3.608937857   3.829959933
Au       2.852896789   1.116444044   0.750632002
Au       4.152581741   3.636521684   5.451233151
Au       7.617970486   1.369239887   2.397487672



     Writing output data file pwscf.save
     Check: negative starting charge=   -0.006463
     NEW-OLD atomic charge density approx. for the potential
     Check: negative starting charge=   -0.006466

     negative rho (up, down):  2.745E-05 0.000E+00

     Writing output data file pwscf.save
 
     init_run     :      0.42s CPU      0.48s WALL (       1 calls)
     electrons    :    251.66s CPU    266.47s WALL (      50 calls)
     update_pot   :      7.51s CPU      8.61s WALL (      50 calls)
     forces       :      3.94s CPU      4.04s WALL (      50 calls)

     Called by init_run:
     wfcinit      :      0.18s CPU      0.21s WALL (       1 calls)
     potinit      :      0.09s CPU      0.10s WALL (       1 calls)

     Called by electrons:
     c_bands      :    191.35s CPU    196.68s WALL (     513 calls)
     sum_band     :     26.90s CPU     27.76s WALL (     513 calls)
     v_of_rho     :     19.81s CPU     20.31s WALL (     551 calls)
     mix_rho      :      8.31s CPU     12.38s WALL (     513 calls)

     Called by c_bands:
     init_us_2    :      1.54s CPU      1.60s WALL (    1027 calls)
     cegterg      :    179.59s CPU    184.58s WALL (     513 calls)

     Called by sum_band:

     Called by *egterg:
     h_psi        :    140.93s CPU    144.87s WALL (    1867 calls)
     g_psi        :      0.60s CPU      0.60s WALL (    1353 calls)
     cdiaghg      :      8.71s CPU      8.92s WALL (    1804 calls)

     Called by h_psi:
     h_psi:pot    :    140.06s CPU    143.99s WALL (    1867 calls)
     h_psi:calbec :     10.49s CPU     10.90s WALL (    1867 calls)
     vloc_psi     :    125.81s CPU    129.29s WALL (    1867 calls)
     add_vuspsi   :      3.76s CPU      3.79s WALL (    1867 calls)

     General routines
     calbec       :     11.71s CPU     12.16s WALL (    2067 calls)
     fft          :     13.38s CPU     13.78s WALL (    6187 calls)
     fftw         :    142.22s CPU    146.74s WALL (  115900 calls)
     davcio       :      0.67s CPU      3.61s WALL (    5358 calls)
 
     Parallel routines
     fft_scatter  :    108.67s CPU    112.63s WALL (  122087 calls)
 
     PWSCF        :  4m27.79s CPU     4m46.19s WALL

 
   This run was terminated on:   0:49:33  29Jul2017            

=------------------------------------------------------------------------------=
   JOB DONE.
=------------------------------------------------------------------------------=
