
     Program PWSCF v.6.0 (svn rev. 13079) starts on 29Jul2017 at  1:26: 1 

     This program is part of the open-source Quantum ESPRESSO suite
     for quantum simulation of materials; please cite
         "P. Giannozzi et al., J. Phys.:Condens. Matter 21 395502 (2009);
          URL http://www.quantum-espresso.org", 
     in publications or presentations arising from this work. More details at
     http://www.quantum-espresso.org/quote

     Parallel version (MPI), running on    10 processors
     R & G space division:  proc/nbgrp/npool/nimage =      10
     Reading input from input/dftmin-Gold5-multi-19.in

     Current dimensions of program PWSCF are:
     Max number of different atomic species (ntypx) = 10
     Max number of k-points (npk) =  40000
     Max angular momentum in pseudopotentials (lmaxx) =  3
     Message from routine iosys:
     pot_extrapolation='second-order' not available, using 'atomic'
     Message from routine iosys:
     wfc_extrapolation='second-order' not available, using 'atomic'

     Subspace diagonalization in iterative solution of the eigenvalue problem:
     a serial algorithm will be used

 
     Parallelization info
     --------------------
     sticks:   dense  smooth     PW     G-vecs:    dense   smooth      PW
     Min         380     380     94                17748    17748    2208
     Max         381     381     95                17753    17753    2213
     Sum        3809    3809    949               177509   177509   22119
 


     bravais-lattice index     =            1
     lattice parameter (alat)  =      20.0000  a.u.
     unit-cell volume          =    8000.0000 (a.u.)^3
     number of atoms/cell      =            5
     number of atomic types    =            1
     number of electrons       =        55.00
     number of Kohn-Sham states=           34
     kinetic-energy cutoff     =      30.0000  Ry
     charge density cutoff     =     120.0000  Ry
     convergence threshold     =      1.0E-08
     mixing beta               =       0.7000
     number of iterations used =            8  plain     mixing
     Exchange-correlation      = BLYP ( 1  3  1  3 0 0)
     nstep                     =           50


     celldm(1)=  20.000000  celldm(2)=   0.000000  celldm(3)=   0.000000
     celldm(4)=   0.000000  celldm(5)=   0.000000  celldm(6)=   0.000000

     crystal axes: (cart. coord. in units of alat)
               a(1) = (   1.000000   0.000000   0.000000 )  
               a(2) = (   0.000000   1.000000   0.000000 )  
               a(3) = (   0.000000   0.000000   1.000000 )  

     reciprocal axes: (cart. coord. in units 2 pi/alat)
               b(1) = (  1.000000  0.000000  0.000000 )  
               b(2) = (  0.000000  1.000000  0.000000 )  
               b(3) = (  0.000000  0.000000  1.000000 )  


     PseudoPot. # 1 for Au read from file:
     ./Au.blyp-d-hgh.UPF
     MD5 check sum: c10d8bae01f806c36a1643a1c69a8479
     Pseudo is Norm-conserving, Zval = 11.0
     Generated in analytical, separable form
     Using radial grid of 1279 points,  6 beta functions with: 
                l(1) =   0
                l(2) =   0
                l(3) =   1
                l(4) =   1
                l(5) =   2
                l(6) =   2

     atomic species   valence    mass     pseudopotential
        Au            11.00    28.08600     Au( 1.00)

     No symmetry found



   Cartesian axes

     site n.     atom                  positions (alat units)
         1           Au  tau(   1) = (  -0.0747160   0.1302337  -0.0627411  )
         2           Au  tau(   2) = (  -0.0364578   0.1927197   0.1815889  )
         3           Au  tau(   3) = (   0.1592966   0.0784137   0.0238910  )
         4           Au  tau(   4) = (   0.1884260   0.1551728   0.2966922  )
         5           Au  tau(   5) = (   0.3742584   0.0536292   0.1554801  )

     number of k points=     1  Marzari-Vanderbilt smearing, width (Ry)=  0.0250
                       cart. coord. in units 2pi/alat
        k(    1) = (   0.0000000   0.0000000   0.0000000), wk =   2.0000000

     Dense  grid:   177509 G-vectors     FFT dimensions: (  72,  72,  72)

     Estimated max dynamical RAM per process >      15.04Mb

     Estimated total allocated dynamical RAM >     150.39Mb

     Initial potential from superposition of free atoms
     Check: negative starting charge=   -0.006360

     starting charge   54.99940, renormalised to   55.00000

     negative rho (up, down):  6.360E-03 0.000E+00
     Starting wfc are   45 randomized atomic wfcs

     total cpu time spent up to now is        0.5 secs

     per-process dynamical memory:    41.0 Mb

     Self-consistent Calculation

     iteration #  1     ecut=    30.00 Ry     beta=0.70
     Davidson diagonalization with overlap
     ethr =  1.00E-02,  avg # of iterations =  3.0

     Threshold (ethr) on eigenvalues was too large:
     Diagonalizing with lowered threshold

     Davidson diagonalization with overlap
     ethr =  4.00E-04,  avg # of iterations =  5.0

     negative rho (up, down):  8.734E-04 0.000E+00

     total cpu time spent up to now is        1.0 secs

     total energy              =    -329.38234981 Ry
     Harris-Foulkes estimate   =    -329.54739291 Ry
     estimated scf accuracy    <       0.27538555 Ry

     iteration #  2     ecut=    30.00 Ry     beta=0.70
     Davidson diagonalization with overlap
     ethr =  5.01E-04,  avg # of iterations =  2.0

     negative rho (up, down):  3.763E-04 0.000E+00

     total cpu time spent up to now is        1.3 secs

     total energy              =    -329.42292412 Ry
     Harris-Foulkes estimate   =    -329.55680660 Ry
     estimated scf accuracy    <       0.27051953 Ry

     iteration #  3     ecut=    30.00 Ry     beta=0.70
     Davidson diagonalization with overlap
     ethr =  4.92E-04,  avg # of iterations =  2.0

     negative rho (up, down):  1.436E-04 0.000E+00

     total cpu time spent up to now is        1.6 secs

     total energy              =    -329.47813514 Ry
     Harris-Foulkes estimate   =    -329.50201978 Ry
     estimated scf accuracy    <       0.06196918 Ry

     iteration #  4     ecut=    30.00 Ry     beta=0.70
     Davidson diagonalization with overlap
     ethr =  1.13E-04,  avg # of iterations =  6.0

     negative rho (up, down):  4.962E-06 0.000E+00

     total cpu time spent up to now is        1.9 secs

     total energy              =    -329.48936401 Ry
     Harris-Foulkes estimate   =    -329.49067898 Ry
     estimated scf accuracy    <       0.00326652 Ry

     iteration #  5     ecut=    30.00 Ry     beta=0.70
     Davidson diagonalization with overlap
     ethr =  5.94E-06,  avg # of iterations =  8.0

     total cpu time spent up to now is        2.3 secs

     total energy              =    -329.49003157 Ry
     Harris-Foulkes estimate   =    -329.49106130 Ry
     estimated scf accuracy    <       0.00284244 Ry

     iteration #  6     ecut=    30.00 Ry     beta=0.70
     Davidson diagonalization with overlap
     ethr =  5.17E-06,  avg # of iterations =  2.0

     total cpu time spent up to now is        2.6 secs

     total energy              =    -329.49047116 Ry
     Harris-Foulkes estimate   =    -329.49060719 Ry
     estimated scf accuracy    <       0.00033263 Ry

     iteration #  7     ecut=    30.00 Ry     beta=0.70
     Davidson diagonalization with overlap
     ethr =  6.05E-07,  avg # of iterations =  2.0

     total cpu time spent up to now is        2.8 secs

     total energy              =    -329.49053785 Ry
     Harris-Foulkes estimate   =    -329.49055225 Ry
     estimated scf accuracy    <       0.00003441 Ry

     iteration #  8     ecut=    30.00 Ry     beta=0.70
     Davidson diagonalization with overlap
     ethr =  6.26E-08,  avg # of iterations =  2.0

     total cpu time spent up to now is        3.2 secs

     total energy              =    -329.49054561 Ry
     Harris-Foulkes estimate   =    -329.49055106 Ry
     estimated scf accuracy    <       0.00001273 Ry

     iteration #  9     ecut=    30.00 Ry     beta=0.70
     Davidson diagonalization with overlap
     ethr =  2.32E-08,  avg # of iterations =  2.0

     total cpu time spent up to now is        3.4 secs

     total energy              =    -329.49054785 Ry
     Harris-Foulkes estimate   =    -329.49054873 Ry
     estimated scf accuracy    <       0.00000131 Ry

     iteration # 10     ecut=    30.00 Ry     beta=0.70
     Davidson diagonalization with overlap
     ethr =  2.38E-09,  avg # of iterations =  2.0

     total cpu time spent up to now is        3.7 secs

     total energy              =    -329.49054797 Ry
     Harris-Foulkes estimate   =    -329.49054826 Ry
     estimated scf accuracy    <       0.00000031 Ry

     iteration # 11     ecut=    30.00 Ry     beta=0.70
     Davidson diagonalization with overlap
     ethr =  5.56E-10,  avg # of iterations =  2.0

     total cpu time spent up to now is        4.0 secs

     total energy              =    -329.49054794 Ry
     Harris-Foulkes estimate   =    -329.49054805 Ry
     estimated scf accuracy    <       0.00000004 Ry

     iteration # 12     ecut=    30.00 Ry     beta=0.70
     Davidson diagonalization with overlap
     ethr =  8.08E-11,  avg # of iterations =  2.0

     total cpu time spent up to now is        4.3 secs

     total energy              =    -329.49054787 Ry
     Harris-Foulkes estimate   =    -329.49054795 Ry
     estimated scf accuracy    <       0.00000001 Ry

     iteration # 13     ecut=    30.00 Ry     beta=0.70
     Davidson diagonalization with overlap
     ethr =  2.28E-11,  avg # of iterations =  2.0

     total cpu time spent up to now is        4.6 secs

     End of self-consistent calculation

          k = 0.0000 0.0000 0.0000 ( 22119 PWs)   bands (ev):

    -8.3659  -7.7052  -7.6288  -7.1947  -6.9476  -6.7353  -6.6894  -6.4501
    -6.3013  -6.0239  -5.9827  -5.7467  -5.7029  -5.6579  -5.3955  -5.3734
    -5.3330  -5.2110  -5.1886  -5.1821  -5.1655  -5.1400  -5.0162  -4.8722
    -4.8613  -4.7237  -4.4134  -3.7925  -2.4871  -2.1575  -0.5314  -0.2298
     0.4331   0.8042

     the Fermi energy is    -3.7714 ev

!    total energy              =    -329.49054790 Ry
     Harris-Foulkes estimate   =    -329.49054788 Ry
     estimated scf accuracy    <          3.5E-09 Ry

     The total energy is the sum of the following terms:

     one-electron contribution =    -605.08427673 Ry
     hartree contribution      =     324.00831199 Ry
     xc contribution           =     -51.40120063 Ry
     ewald contribution        =       2.98854259 Ry
     smearing contrib. (-TS)   =      -0.00192512 Ry

     convergence has been achieved in  13 iterations

     Forces acting on atoms (Ry/au):

     atom    1 type  1   force =     0.00400096   -0.00321360   -0.00439917
     atom    2 type  1   force =    -0.00106826    0.00086131   -0.00260795
     atom    3 type  1   force =    -0.00719645    0.00707576    0.01175228
     atom    4 type  1   force =     0.00299850   -0.00173086   -0.00152148
     atom    5 type  1   force =     0.00126525   -0.00299260   -0.00322368

     Total force =     0.018155     Total SCF correction =     0.000284

     BFGS Geometry Optimization

     number of scf cycles    =   1
     number of bfgs steps    =   0

     energy   new            =    -329.4905478986 Ry

     new trust radius        =       0.0154910050 bohr
     new conv_thr            =       0.0000000100 Ry


ATOMIC_POSITIONS (bohr)
Au      -1.490319040   2.601460401  -1.259222165
Au      -0.730225259   3.855255306   3.629171052
Au       3.178735549   1.575348759   0.489571275
Au       3.771517503   3.101725139   5.932322516
Au       7.486433247   1.069591395   3.106377323



     Writing output data file pwscf.save
     Check: negative starting charge=   -0.006360
     NEW-OLD atomic charge density approx. for the potential
     Check: negative starting charge=   -0.006362

     negative rho (up, down):  1.024E-05 0.000E+00

     total cpu time spent up to now is        4.9 secs

     per-process dynamical memory:    42.9 Mb

     Self-consistent Calculation

     iteration #  1     ecut=    30.00 Ry     beta=0.70
     Davidson diagonalization with overlap
     ethr =  1.00E-06,  avg # of iterations =  4.0

     Threshold (ethr) on eigenvalues was too large:
     Diagonalizing with lowered threshold

     Davidson diagonalization with overlap
     ethr =  3.76E-08,  avg # of iterations =  1.0

     total cpu time spent up to now is        5.5 secs

     total energy              =    -329.49085846 Ry
     Harris-Foulkes estimate   =    -329.49085796 Ry
     estimated scf accuracy    <       0.00002095 Ry

     iteration #  2     ecut=    30.00 Ry     beta=0.70
     Davidson diagonalization with overlap
     ethr =  3.81E-08,  avg # of iterations =  3.0

     total cpu time spent up to now is        5.8 secs

     total energy              =    -329.49086061 Ry
     Harris-Foulkes estimate   =    -329.49086860 Ry
     estimated scf accuracy    <       0.00001680 Ry

     iteration #  3     ecut=    30.00 Ry     beta=0.70
     Davidson diagonalization with overlap
     ethr =  3.05E-08,  avg # of iterations =  2.0

     total cpu time spent up to now is        6.1 secs

     total energy              =    -329.49086464 Ry
     Harris-Foulkes estimate   =    -329.49086678 Ry
     estimated scf accuracy    <       0.00000761 Ry

     iteration #  4     ecut=    30.00 Ry     beta=0.70
     Davidson diagonalization with overlap
     ethr =  1.38E-08,  avg # of iterations =  2.0

     total cpu time spent up to now is        6.3 secs

     total energy              =    -329.49086641 Ry
     Harris-Foulkes estimate   =    -329.49086647 Ry
     estimated scf accuracy    <       0.00000097 Ry

     iteration #  5     ecut=    30.00 Ry     beta=0.70
     Davidson diagonalization with overlap
     ethr =  1.76E-09,  avg # of iterations =  2.0

     total cpu time spent up to now is        6.6 secs

     total energy              =    -329.49086641 Ry
     Harris-Foulkes estimate   =    -329.49086668 Ry
     estimated scf accuracy    <       0.00000025 Ry

     iteration #  6     ecut=    30.00 Ry     beta=0.70
     Davidson diagonalization with overlap
     ethr =  4.51E-10,  avg # of iterations =  2.0

     total cpu time spent up to now is        6.9 secs

     total energy              =    -329.49086638 Ry
     Harris-Foulkes estimate   =    -329.49086647 Ry
     estimated scf accuracy    <       0.00000002 Ry

     iteration #  7     ecut=    30.00 Ry     beta=0.70
     Davidson diagonalization with overlap
     ethr =  4.20E-11,  avg # of iterations =  2.0

     total cpu time spent up to now is        7.1 secs

     End of self-consistent calculation

          k = 0.0000 0.0000 0.0000 ( 22119 PWs)   bands (ev):

    -8.3797  -7.7150  -7.6309  -7.2037  -6.9459  -6.7431  -6.6876  -6.4531
    -6.3057  -6.0224  -5.9885  -5.7492  -5.7061  -5.6611  -5.3938  -5.3802
    -5.3321  -5.2098  -5.1927  -5.1831  -5.1665  -5.1401  -5.0157  -4.8729
    -4.8656  -4.7223  -4.4183  -3.7888  -2.4833  -2.1597  -0.5330  -0.2269
     0.4331   0.8041

     the Fermi energy is    -3.7663 ev

!    total energy              =    -329.49086636 Ry
     Harris-Foulkes estimate   =    -329.49086639 Ry
     estimated scf accuracy    <          4.3E-09 Ry

     The total energy is the sum of the following terms:

     one-electron contribution =    -605.45971737 Ry
     hartree contribution      =     324.19127583 Ry
     xc contribution           =     -51.40159796 Ry
     ewald contribution        =       3.18138933 Ry
     smearing contrib. (-TS)   =      -0.00221620 Ry

     convergence has been achieved in   7 iterations

     Forces acting on atoms (Ry/au):

     atom    1 type  1   force =     0.00341908   -0.00310926   -0.00465322
     atom    2 type  1   force =    -0.00099016    0.00100181   -0.00192133
     atom    3 type  1   force =    -0.00628507    0.00664477    0.01117836
     atom    4 type  1   force =     0.00257260   -0.00148301   -0.00134897
     atom    5 type  1   force =     0.00128355   -0.00305431   -0.00325484

     Total force =     0.017015     Total SCF correction =     0.000233

     number of scf cycles    =   2
     number of bfgs steps    =   1

     energy   old            =    -329.4905478986 Ry
     energy   new            =    -329.4908663636 Ry

     CASE: energy  _new < energy  _old


     WARNING: bfgs curvature condition failed, Theta= 0.855
     new trust radius        =       0.0170401055 bohr
     new conv_thr            =       0.0000000003 Ry


ATOMIC_POSITIONS (bohr)
Au      -1.486156656   2.597838164  -1.264485715
Au      -0.731395990   3.856355593   3.626694052
Au       3.171144815   1.583169607   0.502670141
Au       3.774644817   3.099921464   5.930702173
Au       7.487905014   1.066096172   3.102639349



     Writing output data file pwscf.save
     Check: negative starting charge=   -0.006362
     NEW-OLD atomic charge density approx. for the potential
     Check: negative starting charge=   -0.006365

     negative rho (up, down):  1.513E-05 0.000E+00

     total cpu time spent up to now is        7.5 secs

     per-process dynamical memory:    50.7 Mb

     Self-consistent Calculation

     iteration #  1     ecut=    30.00 Ry     beta=0.70
     Davidson diagonalization with overlap
     ethr =  1.00E-06,  avg # of iterations =  4.0

     Threshold (ethr) on eigenvalues was too large:
     Diagonalizing with lowered threshold

     Davidson diagonalization with overlap
     ethr =  4.85E-08,  avg # of iterations =  1.0

     negative rho (up, down):  1.662E-08 0.000E+00

     total cpu time spent up to now is        8.1 secs

     total energy              =    -329.49118438 Ry
     Harris-Foulkes estimate   =    -329.49118556 Ry
     estimated scf accuracy    <       0.00002684 Ry

     iteration #  2     ecut=    30.00 Ry     beta=0.70
     Davidson diagonalization with overlap
     ethr =  4.88E-08,  avg # of iterations =  3.0

     total cpu time spent up to now is        8.5 secs

     total energy              =    -329.49118628 Ry
     Harris-Foulkes estimate   =    -329.49119866 Ry
     estimated scf accuracy    <       0.00002637 Ry

     iteration #  3     ecut=    30.00 Ry     beta=0.70
     Davidson diagonalization with overlap
     ethr =  4.79E-08,  avg # of iterations =  2.0

     total cpu time spent up to now is        8.7 secs

     total energy              =    -329.49119211 Ry
     Harris-Foulkes estimate   =    -329.49119552 Ry
     estimated scf accuracy    <       0.00001022 Ry

     iteration #  4     ecut=    30.00 Ry     beta=0.70
     Davidson diagonalization with overlap
     ethr =  1.86E-08,  avg # of iterations =  2.0

     total cpu time spent up to now is        9.0 secs

     total energy              =    -329.49119462 Ry
     Harris-Foulkes estimate   =    -329.49119437 Ry
     estimated scf accuracy    <       0.00000091 Ry

     iteration #  5     ecut=    30.00 Ry     beta=0.70
     Davidson diagonalization with overlap
     ethr =  1.66E-09,  avg # of iterations =  3.0

     total cpu time spent up to now is        9.2 secs

     total energy              =    -329.49119481 Ry
     Harris-Foulkes estimate   =    -329.49119493 Ry
     estimated scf accuracy    <       0.00000038 Ry

     iteration #  6     ecut=    30.00 Ry     beta=0.70
     Davidson diagonalization with overlap
     ethr =  6.99E-10,  avg # of iterations =  2.0

     total cpu time spent up to now is        9.5 secs

     total energy              =    -329.49119492 Ry
     Harris-Foulkes estimate   =    -329.49119489 Ry
     estimated scf accuracy    <       0.00000003 Ry

     iteration #  7     ecut=    30.00 Ry     beta=0.70
     Davidson diagonalization with overlap
     ethr =  5.23E-11,  avg # of iterations =  3.0

     total cpu time spent up to now is        9.8 secs

     total energy              =    -329.49119489 Ry
     Harris-Foulkes estimate   =    -329.49119493 Ry
     estimated scf accuracy    <          5.9E-09 Ry

     iteration #  8     ecut=    30.00 Ry     beta=0.70
     Davidson diagonalization with overlap
     ethr =  1.08E-11,  avg # of iterations =  2.0

     total cpu time spent up to now is       10.1 secs

     total energy              =    -329.49119491 Ry
     Harris-Foulkes estimate   =    -329.49119489 Ry
     estimated scf accuracy    <          4.7E-10 Ry

     iteration #  9     ecut=    30.00 Ry     beta=0.70
     Davidson diagonalization with overlap
     ethr =  8.63E-13,  avg # of iterations =  3.0

     total cpu time spent up to now is       10.4 secs

     End of self-consistent calculation

          k = 0.0000 0.0000 0.0000 ( 22119 PWs)   bands (ev):

    -8.3942  -7.7251  -7.6332  -7.2132  -6.9435  -6.7513  -6.6848  -6.4563
    -6.3104  -6.0203  -5.9948  -5.7517  -5.7093  -5.6644  -5.3919  -5.3878
    -5.3310  -5.2083  -5.1974  -5.1841  -5.1676  -5.1398  -5.0150  -4.8734
    -4.8702  -4.7209  -4.4237  -3.7851  -2.4792  -2.1623  -0.5346  -0.2237
     0.4330   0.8040

     the Fermi energy is    -3.7611 ev

!    total energy              =    -329.49119492 Ry
     Harris-Foulkes estimate   =    -329.49119491 Ry
     estimated scf accuracy    <          2.0E-10 Ry

     The total energy is the sum of the following terms:

     one-electron contribution =    -605.84142355 Ry
     hartree contribution      =     324.37699474 Ry
     xc contribution           =     -51.40198846 Ry
     ewald contribution        =       3.37774090 Ry
     smearing contrib. (-TS)   =      -0.00251854 Ry

     convergence has been achieved in   9 iterations

     Forces acting on atoms (Ry/au):

     atom    1 type  1   force =     0.00284928   -0.00298188   -0.00482741
     atom    2 type  1   force =    -0.00095061    0.00114728   -0.00126846
     atom    3 type  1   force =    -0.00538279    0.00617018    0.01047615
     atom    4 type  1   force =     0.00216786   -0.00122264   -0.00113516
     atom    5 type  1   force =     0.00131626   -0.00311294   -0.00324512

     Total force =     0.015823     Total SCF correction =     0.000055

     number of scf cycles    =   3
     number of bfgs steps    =   2

     energy   old            =    -329.4908663636 Ry
     energy   new            =    -329.4911949197 Ry

     CASE: energy  _new < energy  _old

     new trust radius        =       0.0255601583 bohr
     new conv_thr            =       0.0000000003 Ry


ATOMIC_POSITIONS (bohr)
Au      -1.480358582   2.592222264  -1.273202222
Au      -0.733213971   3.858346718   3.623729287
Au       3.160359402   1.594986099   0.522604209
Au       3.779037339   3.097429980   5.928433063
Au       7.490317812   1.060395938   3.096655662



     Writing output data file pwscf.save
     Check: negative starting charge=   -0.006365
     NEW-OLD atomic charge density approx. for the potential
     Check: negative starting charge=   -0.006370

     negative rho (up, down):  5.969E-05 0.000E+00

     total cpu time spent up to now is       10.8 secs

     per-process dynamical memory:    50.7 Mb

     Self-consistent Calculation

     iteration #  1     ecut=    30.00 Ry     beta=0.70
     Davidson diagonalization with overlap
     ethr =  1.00E-06,  avg # of iterations =  4.0

     negative rho (up, down):  2.871E-07 0.000E+00

     total cpu time spent up to now is       11.3 secs

     total energy              =    -329.49162068 Ry
     Harris-Foulkes estimate   =    -329.49162344 Ry
     estimated scf accuracy    <       0.00006122 Ry

     iteration #  2     ecut=    30.00 Ry     beta=0.70
     Davidson diagonalization with overlap
     ethr =  1.11E-07,  avg # of iterations =  3.0

     negative rho (up, down):  1.325E-08 0.000E+00

     total cpu time spent up to now is       11.6 secs

     total energy              =    -329.49162591 Ry
     Harris-Foulkes estimate   =    -329.49165296 Ry
     estimated scf accuracy    <       0.00005580 Ry

     iteration #  3     ecut=    30.00 Ry     beta=0.70
     Davidson diagonalization with overlap
     ethr =  1.01E-07,  avg # of iterations =  2.0

     total cpu time spent up to now is       11.9 secs

     total energy              =    -329.49163794 Ry
     Harris-Foulkes estimate   =    -329.49164559 Ry
     estimated scf accuracy    <       0.00002205 Ry

     iteration #  4     ecut=    30.00 Ry     beta=0.70
     Davidson diagonalization with overlap
     ethr =  4.01E-08,  avg # of iterations =  2.0

     total cpu time spent up to now is       12.1 secs

     total energy              =    -329.49164323 Ry
     Harris-Foulkes estimate   =    -329.49164298 Ry
     estimated scf accuracy    <       0.00000218 Ry

     iteration #  5     ecut=    30.00 Ry     beta=0.70
     Davidson diagonalization with overlap
     ethr =  3.96E-09,  avg # of iterations =  3.0

     total cpu time spent up to now is       12.4 secs

     total energy              =    -329.49164341 Ry
     Harris-Foulkes estimate   =    -329.49164391 Ry
     estimated scf accuracy    <       0.00000073 Ry

     iteration #  6     ecut=    30.00 Ry     beta=0.70
     Davidson diagonalization with overlap
     ethr =  1.33E-09,  avg # of iterations =  2.0

     total cpu time spent up to now is       12.7 secs

     total energy              =    -329.49164364 Ry
     Harris-Foulkes estimate   =    -329.49164357 Ry
     estimated scf accuracy    <       0.00000006 Ry

     iteration #  7     ecut=    30.00 Ry     beta=0.70
     Davidson diagonalization with overlap
     ethr =  1.03E-10,  avg # of iterations =  3.0

     total cpu time spent up to now is       13.0 secs

     total energy              =    -329.49164361 Ry
     Harris-Foulkes estimate   =    -329.49164366 Ry
     estimated scf accuracy    <       0.00000001 Ry

     iteration #  8     ecut=    30.00 Ry     beta=0.70
     Davidson diagonalization with overlap
     ethr =  2.58E-11,  avg # of iterations =  2.0

     total cpu time spent up to now is       13.2 secs

     total energy              =    -329.49164362 Ry
     Harris-Foulkes estimate   =    -329.49164361 Ry
     estimated scf accuracy    <          1.1E-09 Ry

     iteration #  9     ecut=    30.00 Ry     beta=0.70
     Davidson diagonalization with overlap
     ethr =  2.04E-12,  avg # of iterations =  2.0

     total cpu time spent up to now is       13.5 secs

     total energy              =    -329.49164363 Ry
     Harris-Foulkes estimate   =    -329.49164363 Ry
     estimated scf accuracy    <          4.2E-10 Ry

     iteration # 10     ecut=    30.00 Ry     beta=0.70
     Davidson diagonalization with overlap
     ethr =  7.63E-13,  avg # of iterations =  2.0

     total cpu time spent up to now is       13.8 secs

     End of self-consistent calculation

          k = 0.0000 0.0000 0.0000 ( 22119 PWs)   bands (ev):

    -8.4148  -7.7387  -7.6366  -7.2263  -6.9386  -6.7629  -6.6788  -6.4607
    -6.3168  -6.0171  -6.0032  -5.7550  -5.7134  -5.6690  -5.3994  -5.3885
    -5.3292  -5.2065  -5.2036  -5.1855  -5.1689  -5.1388  -5.0139  -4.8772
    -4.8730  -4.7194  -4.4315  -3.7803  -2.4731  -2.1665  -0.5369  -0.2190
     0.4329   0.8042

     the Fermi energy is    -3.7543 ev

!    total energy              =    -329.49164363 Ry
     Harris-Foulkes estimate   =    -329.49164363 Ry
     estimated scf accuracy    <          3.2E-11 Ry

     The total energy is the sum of the following terms:

     one-electron contribution =    -606.34664004 Ry
     hartree contribution      =     324.62265647 Ry
     xc contribution           =     -51.40243090 Ry
     ewald contribution        =       3.63770489 Ry
     smearing contrib. (-TS)   =      -0.00293405 Ry

     convergence has been achieved in  10 iterations

     Forces acting on atoms (Ry/au):

     atom    1 type  1   force =     0.00213030   -0.00275425   -0.00482571
     atom    2 type  1   force =    -0.00099763    0.00134261   -0.00047283
     atom    3 type  1   force =    -0.00413009    0.00538252    0.00918603
     atom    4 type  1   force =     0.00167702   -0.00085382   -0.00076230
     atom    5 type  1   force =     0.00132040   -0.00311706   -0.00312519

     Total force =     0.013935     Total SCF correction =     0.000030

     number of scf cycles    =   4
     number of bfgs steps    =   3

     energy   old            =    -329.4911949197 Ry
     energy   new            =    -329.4916436269 Ry

     CASE: energy  _new < energy  _old

     new trust radius        =       0.0383402375 bohr
     new conv_thr            =       0.0000000004 Ry


ATOMIC_POSITIONS (bohr)
Au      -1.472137418   2.583486135  -1.287339987
Au      -0.736244341   3.861901189   3.620232428
Au       3.144929700   1.612856249   0.552812748
Au       3.785354955   3.093997155   5.925369213
Au       7.494239104   1.051140272   3.087145598



     Writing output data file pwscf.save
     Check: negative starting charge=   -0.006370
     NEW-OLD atomic charge density approx. for the potential
     Check: negative starting charge=   -0.006378

     negative rho (up, down):  1.787E-04 0.000E+00

     total cpu time spent up to now is       14.1 secs

     per-process dynamical memory:    50.7 Mb

     Self-consistent Calculation

     iteration #  1     ecut=    30.00 Ry     beta=0.70
     Davidson diagonalization with overlap
     ethr =  1.00E-06,  avg # of iterations =  4.0

     negative rho (up, down):  2.956E-06 0.000E+00

     total cpu time spent up to now is       14.6 secs

     total energy              =    -329.49214838 Ry
     Harris-Foulkes estimate   =    -329.49214721 Ry
     estimated scf accuracy    <       0.00014218 Ry

     iteration #  2     ecut=    30.00 Ry     beta=0.70
     Davidson diagonalization with overlap
     ethr =  2.59E-07,  avg # of iterations =  3.0

     negative rho (up, down):  2.358E-07 0.000E+00

     total cpu time spent up to now is       14.9 secs

     total energy              =    -329.49216147 Ry
     Harris-Foulkes estimate   =    -329.49222527 Ry
     estimated scf accuracy    <       0.00013325 Ry

     iteration #  3     ecut=    30.00 Ry     beta=0.70
     Davidson diagonalization with overlap
     ethr =  2.42E-07,  avg # of iterations =  2.0

     total cpu time spent up to now is       15.2 secs

     total energy              =    -329.49219058 Ry
     Harris-Foulkes estimate   =    -329.49220776 Ry
     estimated scf accuracy    <       0.00004994 Ry

     iteration #  4     ecut=    30.00 Ry     beta=0.70
     Davidson diagonalization with overlap
     ethr =  9.08E-08,  avg # of iterations =  2.0

     total cpu time spent up to now is       15.4 secs

     total energy              =    -329.49220162 Ry
     Harris-Foulkes estimate   =    -329.49220189 Ry
     estimated scf accuracy    <       0.00000457 Ry

     iteration #  5     ecut=    30.00 Ry     beta=0.70
     Davidson diagonalization with overlap
     ethr =  8.30E-09,  avg # of iterations =  3.0

     total cpu time spent up to now is       15.7 secs

     total energy              =    -329.49220244 Ry
     Harris-Foulkes estimate   =    -329.49220301 Ry
     estimated scf accuracy    <       0.00000148 Ry

     iteration #  6     ecut=    30.00 Ry     beta=0.70
     Davidson diagonalization with overlap
     ethr =  2.69E-09,  avg # of iterations =  2.0

     total cpu time spent up to now is       16.0 secs

     total energy              =    -329.49220281 Ry
     Harris-Foulkes estimate   =    -329.49220275 Ry
     estimated scf accuracy    <       0.00000011 Ry

     iteration #  7     ecut=    30.00 Ry     beta=0.70
     Davidson diagonalization with overlap
     ethr =  1.95E-10,  avg # of iterations =  3.0

     total cpu time spent up to now is       16.3 secs

     total energy              =    -329.49220293 Ry
     Harris-Foulkes estimate   =    -329.49220285 Ry
     estimated scf accuracy    <       0.00000003 Ry

     iteration #  8     ecut=    30.00 Ry     beta=0.70
     Davidson diagonalization with overlap
     ethr =  5.82E-11,  avg # of iterations =  2.0

     total cpu time spent up to now is       16.6 secs

     total energy              =    -329.49220298 Ry
     Harris-Foulkes estimate   =    -329.49220294 Ry
     estimated scf accuracy    <          2.8E-09 Ry

     iteration #  9     ecut=    30.00 Ry     beta=0.70
     Davidson diagonalization with overlap
     ethr =  5.06E-12,  avg # of iterations =  3.0

     total cpu time spent up to now is       16.9 secs

     total energy              =    -329.49220303 Ry
     Harris-Foulkes estimate   =    -329.49220298 Ry
     estimated scf accuracy    <          7.9E-10 Ry

     iteration # 10     ecut=    30.00 Ry     beta=0.70
     Davidson diagonalization with overlap
     ethr =  1.43E-12,  avg # of iterations =  2.0

     total cpu time spent up to now is       17.1 secs

     End of self-consistent calculation

          k = 0.0000 0.0000 0.0000 ( 22119 PWs)   bands (ev):

    -8.4438  -7.7573  -7.6428  -7.2431  -6.9290  -6.7792  -6.6678  -6.4678
    -6.3246  -6.0238  -6.0030  -5.7592  -5.7187  -5.6754  -5.4164  -5.3832
    -5.3264  -5.2156  -5.2009  -5.1873  -5.1704  -5.1364  -5.0122  -4.8870
    -4.8711  -4.7177  -4.4431  -3.7740  -2.4639  -2.1735  -0.5400  -0.2122
     0.4327   0.8046

     the Fermi energy is    -3.7454 ev

!    total energy              =    -329.49220303 Ry
     Harris-Foulkes estimate   =    -329.49220303 Ry
     estimated scf accuracy    <          7.2E-11 Ry

     The total energy is the sum of the following terms:

     one-electron contribution =    -607.00087963 Ry
     hartree contribution      =     324.94078277 Ry
     xc contribution           =     -51.40297770 Ry
     ewald contribution        =       3.97436407 Ry
     smearing contrib. (-TS)   =      -0.00349253 Ry

     convergence has been achieved in  10 iterations

     Forces acting on atoms (Ry/au):

     atom    1 type  1   force =     0.00113879   -0.00230916   -0.00448152
     atom    2 type  1   force =    -0.00125634    0.00165844    0.00050681
     atom    3 type  1   force =    -0.00206472    0.00385271    0.00692758
     atom    4 type  1   force =     0.00101447   -0.00028022   -0.00013356
     atom    5 type  1   force =     0.00116780   -0.00292178   -0.00281930

     Total force =     0.010834     Total SCF correction =     0.000044

     number of scf cycles    =   5
     number of bfgs steps    =   4

     energy   old            =    -329.4916436269 Ry
     energy   new            =    -329.4922030295 Ry

     CASE: energy  _new < energy  _old

     new trust radius        =       0.0575103562 bohr
     new conv_thr            =       0.0000000006 Ry


ATOMIC_POSITIONS (bohr)
Au      -1.460411991   2.569741396  -1.310384509
Au      -0.741842026   3.868516214   3.616422210
Au       3.123309646   1.639701421   0.598849159
Au       3.794569974   3.089424835   5.921522958
Au       7.500516397   1.035997134   3.071810182



     Writing output data file pwscf.save
     Check: negative starting charge=   -0.006378
     NEW-OLD atomic charge density approx. for the potential
     Check: negative starting charge=   -0.006396

     negative rho (up, down):  4.480E-04 0.000E+00

     total cpu time spent up to now is       17.4 secs

     per-process dynamical memory:    50.7 Mb

     Self-consistent Calculation

     iteration #  1     ecut=    30.00 Ry     beta=0.70
     Davidson diagonalization with overlap
     ethr =  1.00E-06,  avg # of iterations =  5.0

     negative rho (up, down):  1.637E-05 0.000E+00

     total cpu time spent up to now is       18.0 secs

     total energy              =    -329.49262875 Ry
     Harris-Foulkes estimate   =    -329.49252986 Ry
     estimated scf accuracy    <       0.00033489 Ry

     iteration #  2     ecut=    30.00 Ry     beta=0.70
     Davidson diagonalization with overlap
     ethr =  6.09E-07,  avg # of iterations =  3.0

     negative rho (up, down):  2.567E-06 0.000E+00

     total cpu time spent up to now is       18.3 secs

     total energy              =    -329.49265764 Ry
     Harris-Foulkes estimate   =    -329.49281565 Ry
     estimated scf accuracy    <       0.00032870 Ry

     iteration #  3     ecut=    30.00 Ry     beta=0.70
     Davidson diagonalization with overlap
     ethr =  5.98E-07,  avg # of iterations =  2.0

     negative rho (up, down):  6.753E-08 0.000E+00

     total cpu time spent up to now is       18.6 secs

     total energy              =    -329.49272981 Ry
     Harris-Foulkes estimate   =    -329.49276956 Ry
     estimated scf accuracy    <       0.00011592 Ry

     iteration #  4     ecut=    30.00 Ry     beta=0.70
     Davidson diagonalization with overlap
     ethr =  2.11E-07,  avg # of iterations =  2.0

     total cpu time spent up to now is       18.8 secs

     total energy              =    -329.49275534 Ry
     Harris-Foulkes estimate   =    -329.49275570 Ry
     estimated scf accuracy    <       0.00000950 Ry

     iteration #  5     ecut=    30.00 Ry     beta=0.70
     Davidson diagonalization with overlap
     ethr =  1.73E-08,  avg # of iterations =  3.0

     total cpu time spent up to now is       19.1 secs

     total energy              =    -329.49275711 Ry
     Harris-Foulkes estimate   =    -329.49275827 Ry
     estimated scf accuracy    <       0.00000291 Ry

     iteration #  6     ecut=    30.00 Ry     beta=0.70
     Davidson diagonalization with overlap
     ethr =  5.28E-09,  avg # of iterations =  2.0

     total cpu time spent up to now is       19.4 secs

     total energy              =    -329.49275765 Ry
     Harris-Foulkes estimate   =    -329.49275772 Ry
     estimated scf accuracy    <       0.00000019 Ry

     iteration #  7     ecut=    30.00 Ry     beta=0.70
     Davidson diagonalization with overlap
     ethr =  3.54E-10,  avg # of iterations =  2.0

     total cpu time spent up to now is       19.6 secs

     total energy              =    -329.49275777 Ry
     Harris-Foulkes estimate   =    -329.49275772 Ry
     estimated scf accuracy    <       0.00000007 Ry

     iteration #  8     ecut=    30.00 Ry     beta=0.70
     Davidson diagonalization with overlap
     ethr =  1.25E-10,  avg # of iterations =  2.0

     total cpu time spent up to now is       19.9 secs

     total energy              =    -329.49275790 Ry
     Harris-Foulkes estimate   =    -329.49275779 Ry
     estimated scf accuracy    <          9.3E-09 Ry

     iteration #  9     ecut=    30.00 Ry     beta=0.70
     Davidson diagonalization with overlap
     ethr =  1.70E-11,  avg # of iterations =  2.0

     total cpu time spent up to now is       20.2 secs

     total energy              =    -329.49275790 Ry
     Harris-Foulkes estimate   =    -329.49275790 Ry
     estimated scf accuracy    <          1.9E-09 Ry

     iteration # 10     ecut=    30.00 Ry     beta=0.70
     Davidson diagonalization with overlap
     ethr =  3.46E-12,  avg # of iterations =  2.0

     total cpu time spent up to now is       20.4 secs

     End of self-consistent calculation

          k = 0.0000 0.0000 0.0000 ( 22119 PWs)   bands (ev):

    -8.4832  -7.7819  -7.6557  -7.2603  -6.9100  -6.8014  -6.6480  -6.4809
    -6.3308  -6.0473  -5.9876  -5.7640  -5.7249  -5.6834  -5.4404  -5.3741
    -5.3218  -5.2311  -5.1958  -5.1892  -5.1712  -5.1313  -5.0092  -4.9013
    -4.8643  -4.7161  -4.4600  -3.7664  -2.4500  -2.1854  -0.5439  -0.2019
     0.4331   0.8057

     the Fermi energy is    -3.7346 ev

!    total energy              =    -329.49275791 Ry
     Harris-Foulkes estimate   =    -329.49275790 Ry
     estimated scf accuracy    <          2.0E-10 Ry

     The total energy is the sum of the following terms:

     one-electron contribution =    -607.78346034 Ry
     hartree contribution      =     325.32134716 Ry
     xc contribution           =     -51.40359256 Ry
     ewald contribution        =       4.37714722 Ry
     smearing contrib. (-TS)   =      -0.00419939 Ry

     convergence has been achieved in  10 iterations

     Forces acting on atoms (Ry/au):

     atom    1 type  1   force =    -0.00011409   -0.00154866   -0.00347406
     atom    2 type  1   force =    -0.00174724    0.00199198    0.00139308
     atom    3 type  1   force =     0.00083106    0.00138618    0.00374382
     atom    4 type  1   force =     0.00023677    0.00044228    0.00065090
     atom    5 type  1   force =     0.00079349   -0.00227178   -0.00231374

     Total force =     0.007203     Total SCF correction =     0.000075

     number of scf cycles    =   6
     number of bfgs steps    =   5

     energy   old            =    -329.4922030295 Ry
     energy   new            =    -329.4927579135 Ry

     CASE: energy  _new < energy  _old

     new trust radius        =       0.0626514378 bohr
     new conv_thr            =       0.0000000004 Ry


ATOMIC_POSITIONS (bohr)
Au      -1.448562061   2.553718324  -1.338200961
Au      -0.750309756   3.878091319   3.614168928
Au       3.102763342   1.668459023   0.650579734
Au       3.804403352   3.085422536   5.918617613
Au       7.507847122   1.017689799   3.053054686



     Writing output data file pwscf.save
     Check: negative starting charge=   -0.006396
     NEW-OLD atomic charge density approx. for the potential
     Check: negative starting charge=   -0.006422

     negative rho (up, down):  5.630E-04 0.000E+00

     total cpu time spent up to now is       20.7 secs

     per-process dynamical memory:    50.7 Mb

     Self-consistent Calculation

     iteration #  1     ecut=    30.00 Ry     beta=0.70
     Davidson diagonalization with overlap
     ethr =  1.00E-06,  avg # of iterations =  5.0

     negative rho (up, down):  2.431E-05 0.000E+00

     total cpu time spent up to now is       21.3 secs

     total energy              =    -329.49284110 Ry
     Harris-Foulkes estimate   =    -329.49266889 Ry
     estimated scf accuracy    <       0.00041947 Ry

     iteration #  2     ecut=    30.00 Ry     beta=0.70
     Davidson diagonalization with overlap
     ethr =  7.63E-07,  avg # of iterations =  4.0

     negative rho (up, down):  4.352E-06 0.000E+00

     total cpu time spent up to now is       21.6 secs

     total energy              =    -329.49287895 Ry
     Harris-Foulkes estimate   =    -329.49307559 Ry
     estimated scf accuracy    <       0.00040847 Ry

     iteration #  3     ecut=    30.00 Ry     beta=0.70
     Davidson diagonalization with overlap
     ethr =  7.43E-07,  avg # of iterations =  2.0

     negative rho (up, down):  1.496E-07 0.000E+00

     total cpu time spent up to now is       21.9 secs

     total energy              =    -329.49296928 Ry
     Harris-Foulkes estimate   =    -329.49301760 Ry
     estimated scf accuracy    <       0.00014079 Ry

     iteration #  4     ecut=    30.00 Ry     beta=0.70
     Davidson diagonalization with overlap
     ethr =  2.56E-07,  avg # of iterations =  2.0

     total cpu time spent up to now is       22.1 secs

     total energy              =    -329.49299980 Ry
     Harris-Foulkes estimate   =    -329.49300079 Ry
     estimated scf accuracy    <       0.00001116 Ry

     iteration #  5     ecut=    30.00 Ry     beta=0.70
     Davidson diagonalization with overlap
     ethr =  2.03E-08,  avg # of iterations =  3.0

     total cpu time spent up to now is       22.4 secs

     total energy              =    -329.49300187 Ry
     Harris-Foulkes estimate   =    -329.49300307 Ry
     estimated scf accuracy    <       0.00000304 Ry

     iteration #  6     ecut=    30.00 Ry     beta=0.70
     Davidson diagonalization with overlap
     ethr =  5.52E-09,  avg # of iterations =  2.0

     total cpu time spent up to now is       22.7 secs

     total energy              =    -329.49300241 Ry
     Harris-Foulkes estimate   =    -329.49300251 Ry
     estimated scf accuracy    <       0.00000015 Ry

     iteration #  7     ecut=    30.00 Ry     beta=0.70
     Davidson diagonalization with overlap
     ethr =  2.79E-10,  avg # of iterations =  3.0

     total cpu time spent up to now is       23.0 secs

     total energy              =    -329.49300245 Ry
     Harris-Foulkes estimate   =    -329.49300247 Ry
     estimated scf accuracy    <       0.00000005 Ry

     iteration #  8     ecut=    30.00 Ry     beta=0.70
     Davidson diagonalization with overlap
     ethr =  8.72E-11,  avg # of iterations =  2.0

     total cpu time spent up to now is       23.3 secs

     total energy              =    -329.49300239 Ry
     Harris-Foulkes estimate   =    -329.49300247 Ry
     estimated scf accuracy    <       0.00000002 Ry

     iteration #  9     ecut=    30.00 Ry     beta=0.70
     Davidson diagonalization with overlap
     ethr =  2.84E-11,  avg # of iterations =  2.0

     total cpu time spent up to now is       23.5 secs

     total energy              =    -329.49300237 Ry
     Harris-Foulkes estimate   =    -329.49300240 Ry
     estimated scf accuracy    <          2.3E-09 Ry

     iteration # 10     ecut=    30.00 Ry     beta=0.70
     Davidson diagonalization with overlap
     ethr =  4.15E-12,  avg # of iterations =  2.0

     total cpu time spent up to now is       23.8 secs

     End of self-consistent calculation

          k = 0.0000 0.0000 0.0000 ( 22119 PWs)   bands (ev):

    -8.5200  -7.8032  -7.6751  -7.2646  -6.8826  -6.8216  -6.6223  -6.4986
    -6.3292  -6.0752  -5.9657  -5.7674  -5.7291  -5.6890  -5.4633  -5.3627
    -5.3165  -5.2476  -5.1940  -5.1882  -5.1699  -5.1251  -5.0051  -4.9165
    -4.8513  -4.7165  -4.4780  -3.7609  -2.4348  -2.2013  -0.5471  -0.1907
     0.4341   0.8073

     the Fermi energy is    -3.7263 ev

!    total energy              =    -329.49300237 Ry
     Harris-Foulkes estimate   =    -329.49300237 Ry
     estimated scf accuracy    <          2.8E-10 Ry

     The total energy is the sum of the following terms:

     one-electron contribution =    -608.30647059 Ry
     hartree contribution      =     325.57523060 Ry
     xc contribution           =     -51.40373490 Ry
     ewald contribution        =       4.64677823 Ry
     smearing contrib. (-TS)   =      -0.00480571 Ry

     convergence has been achieved in  10 iterations

     Forces acting on atoms (Ry/au):

     atom    1 type  1   force =    -0.00095593   -0.00043589   -0.00115712
     atom    2 type  1   force =    -0.00181966    0.00191779    0.00157011
     atom    3 type  1   force =     0.00214650   -0.00096446   -0.00026494
     atom    4 type  1   force =    -0.00000786    0.00080652    0.00119090
     atom    5 type  1   force =     0.00063695   -0.00132395   -0.00133894

     Total force =     0.004850     Total SCF correction =     0.000077

     number of scf cycles    =   7
     number of bfgs steps    =   6

     energy   old            =    -329.4927579135 Ry
     energy   new            =    -329.4930023739 Ry

     CASE: energy  _new < energy  _old

     new trust radius        =       0.0035129018 bohr
     new conv_thr            =       0.0000000002 Ry


ATOMIC_POSITIONS (bohr)
Au      -1.448801396   2.552489567  -1.340607870
Au      -0.752574958   3.880450983   3.615450070
Au       3.103686390   1.668966627   0.652940926
Au       3.804993305   3.085972509   5.919628082
Au       7.508838659   1.015501314   3.050808792



     Writing output data file pwscf.save
     Check: negative starting charge=   -0.006422
     NEW-OLD atomic charge density approx. for the potential
     Check: negative starting charge=   -0.006422

     negative rho (up, down):  2.563E-08 0.000E+00

     total cpu time spent up to now is       24.0 secs

     per-process dynamical memory:    50.7 Mb

     Self-consistent Calculation

     iteration #  1     ecut=    30.00 Ry     beta=0.70
     Davidson diagonalization with overlap
     ethr =  1.00E-06,  avg # of iterations =  3.0

     Threshold (ethr) on eigenvalues was too large:
     Diagonalizing with lowered threshold

     Davidson diagonalization with overlap
     ethr =  3.57E-09,  avg # of iterations =  2.0

     total cpu time spent up to now is       24.6 secs

     total energy              =    -329.49302263 Ry
     Harris-Foulkes estimate   =    -329.49302206 Ry
     estimated scf accuracy    <       0.00000214 Ry

     iteration #  2     ecut=    30.00 Ry     beta=0.70
     Davidson diagonalization with overlap
     ethr =  3.89E-09,  avg # of iterations =  3.0

     total cpu time spent up to now is       24.9 secs

     total energy              =    -329.49302261 Ry
     Harris-Foulkes estimate   =    -329.49302376 Ry
     estimated scf accuracy    <       0.00000189 Ry

     iteration #  3     ecut=    30.00 Ry     beta=0.70
     Davidson diagonalization with overlap
     ethr =  3.43E-09,  avg # of iterations =  2.0

     total cpu time spent up to now is       25.2 secs

     total energy              =    -329.49302317 Ry
     Harris-Foulkes estimate   =    -329.49302322 Ry
     estimated scf accuracy    <       0.00000055 Ry

     iteration #  4     ecut=    30.00 Ry     beta=0.70
     Davidson diagonalization with overlap
     ethr =  1.00E-09,  avg # of iterations =  2.0

     total cpu time spent up to now is       25.4 secs

     total energy              =    -329.49302316 Ry
     Harris-Foulkes estimate   =    -329.49302334 Ry
     estimated scf accuracy    <       0.00000013 Ry

     iteration #  5     ecut=    30.00 Ry     beta=0.70
     Davidson diagonalization with overlap
     ethr =  2.42E-10,  avg # of iterations =  2.0

     total cpu time spent up to now is       25.8 secs

     total energy              =    -329.49302316 Ry
     Harris-Foulkes estimate   =    -329.49302319 Ry
     estimated scf accuracy    <       0.00000002 Ry

     iteration #  6     ecut=    30.00 Ry     beta=0.70
     Davidson diagonalization with overlap
     ethr =  3.63E-11,  avg # of iterations =  2.0

     total cpu time spent up to now is       26.0 secs

     total energy              =    -329.49302324 Ry
     Harris-Foulkes estimate   =    -329.49302317 Ry
     estimated scf accuracy    <          2.4E-09 Ry

     iteration #  7     ecut=    30.00 Ry     beta=0.70
     Davidson diagonalization with overlap
     ethr =  4.31E-12,  avg # of iterations =  2.0

     total cpu time spent up to now is       26.4 secs

     total energy              =    -329.49302325 Ry
     Harris-Foulkes estimate   =    -329.49302324 Ry
     estimated scf accuracy    <          3.0E-10 Ry

     iteration #  8     ecut=    30.00 Ry     beta=0.70
     Davidson diagonalization with overlap
     ethr =  5.47E-13,  avg # of iterations =  3.0

     total cpu time spent up to now is       26.8 secs

     End of self-consistent calculation

          k = 0.0000 0.0000 0.0000 ( 22119 PWs)   bands (ev):

    -8.5177  -7.7995  -7.6719  -7.2598  -6.8784  -6.8201  -6.6184  -6.4964
    -6.3263  -6.0757  -5.9630  -5.7666  -5.7284  -5.6882  -5.4631  -5.3619
    -5.3163  -5.2483  -5.1944  -5.1880  -5.1693  -5.1253  -5.0047  -4.9181
    -4.8510  -4.7178  -4.4795  -3.7620  -2.4344  -2.2045  -0.5464  -0.1908
     0.4342   0.8073

     the Fermi energy is    -3.7274 ev

!    total energy              =    -329.49302327 Ry
     Harris-Foulkes estimate   =    -329.49302325 Ry
     estimated scf accuracy    <          1.0E-10 Ry

     The total energy is the sum of the following terms:

     one-electron contribution =    -608.07118233 Ry
     hartree contribution      =     325.45911971 Ry
     xc contribution           =     -51.40277953 Ry
     ewald contribution        =       4.52663341 Ry
     smearing contrib. (-TS)   =      -0.00481453 Ry

     convergence has been achieved in   8 iterations

     Forces acting on atoms (Ry/au):

     atom    1 type  1   force =    -0.00062830   -0.00034504   -0.00056967
     atom    2 type  1   force =    -0.00145367    0.00166838    0.00120236
     atom    3 type  1   force =     0.00153164   -0.00085740   -0.00045219
     atom    4 type  1   force =    -0.00000549    0.00069832    0.00086808
     atom    5 type  1   force =     0.00055582   -0.00116427   -0.00104858

     Total force =     0.003804     Total SCF correction =     0.000039

     number of scf cycles    =   8
     number of bfgs steps    =   7

     energy   old            =    -329.4930023739 Ry
     energy   new            =    -329.4930232676 Ry

     CASE: energy  _new < energy  _old

     new trust radius        =       0.0038641920 bohr
     new conv_thr            =            1.0E-10 Ry


ATOMIC_POSITIONS (bohr)
Au      -1.449449877   2.551705606  -1.341870192
Au      -0.754929607   3.883059524   3.617057279
Au       3.105502867   1.668208540   0.653224027
Au       3.805249017   3.086892528   5.920866736
Au       7.509769601   1.013514802   3.048942151



     Writing output data file pwscf.save
     Check: negative starting charge=   -0.006422
     NEW-OLD atomic charge density approx. for the potential
     Check: negative starting charge=   -0.006420

     negative rho (up, down):  1.264E-08 0.000E+00

     total cpu time spent up to now is       27.2 secs

     per-process dynamical memory:    50.7 Mb

     Self-consistent Calculation

     iteration #  1     ecut=    30.00 Ry     beta=0.70
     Davidson diagonalization with overlap
     ethr =  1.00E-06,  avg # of iterations =  3.0

     Threshold (ethr) on eigenvalues was too large:
     Diagonalizing with lowered threshold

     Davidson diagonalization with overlap
     ethr =  2.46E-09,  avg # of iterations =  2.0

     total cpu time spent up to now is       28.0 secs

     total energy              =    -329.49304139 Ry
     Harris-Foulkes estimate   =    -329.49304114 Ry
     estimated scf accuracy    <       0.00000146 Ry

     iteration #  2     ecut=    30.00 Ry     beta=0.70
     Davidson diagonalization with overlap
     ethr =  2.66E-09,  avg # of iterations =  3.0

     total cpu time spent up to now is       28.4 secs

     total energy              =    -329.49304142 Ry
     Harris-Foulkes estimate   =    -329.49304213 Ry
     estimated scf accuracy    <       0.00000137 Ry

     iteration #  3     ecut=    30.00 Ry     beta=0.70
     Davidson diagonalization with overlap
     ethr =  2.49E-09,  avg # of iterations =  2.0

     total cpu time spent up to now is       28.8 secs

     total energy              =    -329.49304130 Ry
     Harris-Foulkes estimate   =    -329.49304185 Ry
     estimated scf accuracy    <       0.00000035 Ry

     iteration #  4     ecut=    30.00 Ry     beta=0.70
     Davidson diagonalization with overlap
     ethr =  6.32E-10,  avg # of iterations =  2.0

     total cpu time spent up to now is       29.0 secs

     total energy              =    -329.49304119 Ry
     Harris-Foulkes estimate   =    -329.49304143 Ry
     estimated scf accuracy    <       0.00000015 Ry

     iteration #  5     ecut=    30.00 Ry     beta=0.70
     Davidson diagonalization with overlap
     ethr =  2.75E-10,  avg # of iterations =  2.0

     total cpu time spent up to now is       29.3 secs

     total energy              =    -329.49304123 Ry
     Harris-Foulkes estimate   =    -329.49304122 Ry
     estimated scf accuracy    <          9.7E-09 Ry

     iteration #  6     ecut=    30.00 Ry     beta=0.70
     Davidson diagonalization with overlap
     ethr =  1.76E-11,  avg # of iterations =  2.0

     total cpu time spent up to now is       29.7 secs

     total energy              =    -329.49304127 Ry
     Harris-Foulkes estimate   =    -329.49304123 Ry
     estimated scf accuracy    <          1.6E-09 Ry

     iteration #  7     ecut=    30.00 Ry     beta=0.70
     Davidson diagonalization with overlap
     ethr =  2.90E-12,  avg # of iterations =  2.0

     total cpu time spent up to now is       30.0 secs

     total energy              =    -329.49304129 Ry
     Harris-Foulkes estimate   =    -329.49304127 Ry
     estimated scf accuracy    <          3.1E-10 Ry

     iteration #  8     ecut=    30.00 Ry     beta=0.70
     Davidson diagonalization with overlap
     ethr =  5.60E-13,  avg # of iterations =  2.0

     total cpu time spent up to now is       30.3 secs

     End of self-consistent calculation

          k = 0.0000 0.0000 0.0000 ( 22119 PWs)   bands (ev):

    -8.5134  -7.7942  -7.6670  -7.2540  -6.8747  -6.8176  -6.6150  -6.4927
    -6.3229  -6.0749  -5.9610  -5.7657  -5.7274  -5.6869  -5.4618  -5.3616
    -5.3163  -5.2483  -5.1948  -5.1878  -5.1688  -5.1258  -5.0044  -4.9193
    -4.8515  -4.7194  -4.4804  -3.7635  -2.4346  -2.2076  -0.5455  -0.1915
     0.4343   0.8071

     the Fermi energy is    -3.7290 ev

!    total energy              =    -329.49304131 Ry
     Harris-Foulkes estimate   =    -329.49304129 Ry
     estimated scf accuracy    <          2.4E-11 Ry

     The total energy is the sum of the following terms:

     one-electron contribution =    -607.77172727 Ry
     hartree contribution      =     325.31153045 Ry
     xc contribution           =     -51.40164570 Ry
     ewald contribution        =       4.37360056 Ry
     smearing contrib. (-TS)   =      -0.00479935 Ry

     convergence has been achieved in   8 iterations

     Forces acting on atoms (Ry/au):

     atom    1 type  1   force =    -0.00025388   -0.00030225   -0.00005012
     atom    2 type  1   force =    -0.00100951    0.00138295    0.00079753
     atom    3 type  1   force =     0.00083288   -0.00062150   -0.00043388
     atom    4 type  1   force =     0.00001108    0.00054264    0.00044122
     atom    5 type  1   force =     0.00041942   -0.00100183   -0.00075475

     Total force =     0.002689     Total SCF correction =     0.000022

     number of scf cycles    =   9
     number of bfgs steps    =   8

     energy   old            =    -329.4930232676 Ry
     energy   new            =    -329.4930413142 Ry

     CASE: energy  _new < energy  _old

     new trust radius        =       0.0057962879 bohr
     new conv_thr            =            1.0E-10 Ry


ATOMIC_POSITIONS (bohr)
Au      -1.450076620   2.550487814  -1.343015171
Au      -0.758288342   3.887206872   3.619318995
Au       3.107739071   1.667024684   0.653326382
Au       3.805615156   3.088331084   5.922348084
Au       7.511152735   1.010330546   3.046241710



     Writing output data file pwscf.save
     Check: negative starting charge=   -0.006420
     NEW-OLD atomic charge density approx. for the potential
     Check: negative starting charge=   -0.006418

     negative rho (up, down):  1.622E-07 0.000E+00

     total cpu time spent up to now is       30.6 secs

     per-process dynamical memory:    50.7 Mb

     Self-consistent Calculation

     iteration #  1     ecut=    30.00 Ry     beta=0.70
     Davidson diagonalization with overlap
     ethr =  1.00E-06,  avg # of iterations =  3.0

     Threshold (ethr) on eigenvalues was too large:
     Diagonalizing with lowered threshold

     Davidson diagonalization with overlap
     ethr =  5.30E-09,  avg # of iterations =  2.0

     total cpu time spent up to now is       31.2 secs

     total energy              =    -329.49305726 Ry
     Harris-Foulkes estimate   =    -329.49305750 Ry
     estimated scf accuracy    <       0.00000319 Ry

     iteration #  2     ecut=    30.00 Ry     beta=0.70
     Davidson diagonalization with overlap
     ethr =  5.81E-09,  avg # of iterations =  3.0

     total cpu time spent up to now is       31.5 secs

     total energy              =    -329.49305759 Ry
     Harris-Foulkes estimate   =    -329.49305879 Ry
     estimated scf accuracy    <       0.00000251 Ry

     iteration #  3     ecut=    30.00 Ry     beta=0.70
     Davidson diagonalization with overlap
     ethr =  4.56E-09,  avg # of iterations =  2.0

     total cpu time spent up to now is       31.7 secs

     total energy              =    -329.49305758 Ry
     Harris-Foulkes estimate   =    -329.49305833 Ry
     estimated scf accuracy    <       0.00000042 Ry

     iteration #  4     ecut=    30.00 Ry     beta=0.70
     Davidson diagonalization with overlap
     ethr =  7.68E-10,  avg # of iterations =  2.0

     total cpu time spent up to now is       32.1 secs

     total energy              =    -329.49305750 Ry
     Harris-Foulkes estimate   =    -329.49305777 Ry
     estimated scf accuracy    <       0.00000030 Ry

     iteration #  5     ecut=    30.00 Ry     beta=0.70
     Davidson diagonalization with overlap
     ethr =  5.38E-10,  avg # of iterations =  2.0

     total cpu time spent up to now is       32.3 secs

     total energy              =    -329.49305768 Ry
     Harris-Foulkes estimate   =    -329.49305757 Ry
     estimated scf accuracy    <       0.00000002 Ry

     iteration #  6     ecut=    30.00 Ry     beta=0.70
     Davidson diagonalization with overlap
     ethr =  3.74E-11,  avg # of iterations =  3.0

     total cpu time spent up to now is       32.6 secs

     total energy              =    -329.49305766 Ry
     Harris-Foulkes estimate   =    -329.49305768 Ry
     estimated scf accuracy    <          3.8E-09 Ry

     iteration #  7     ecut=    30.00 Ry     beta=0.70
     Davidson diagonalization with overlap
     ethr =  6.82E-12,  avg # of iterations =  2.0

     total cpu time spent up to now is       32.9 secs

     total energy              =    -329.49305764 Ry
     Harris-Foulkes estimate   =    -329.49305766 Ry
     estimated scf accuracy    <          6.6E-10 Ry

     iteration #  8     ecut=    30.00 Ry     beta=0.70
     Davidson diagonalization with overlap
     ethr =  1.19E-12,  avg # of iterations =  2.0

     total cpu time spent up to now is       33.2 secs

     End of self-consistent calculation

          k = 0.0000 0.0000 0.0000 ( 22119 PWs)   bands (ev):

    -8.5076  -7.7868  -7.6600  -7.2459  -6.8696  -6.8143  -6.6106  -6.4875
    -6.3182  -6.0737  -5.9582  -5.7645  -5.7263  -5.6852  -5.4599  -5.3611
    -5.3162  -5.2483  -5.1954  -5.1873  -5.1682  -5.1264  -5.0038  -4.9210
    -4.8522  -4.7214  -4.4817  -3.7657  -2.4347  -2.2118  -0.5442  -0.1924
     0.4347   0.8069

     the Fermi energy is    -3.7313 ev

!    total energy              =    -329.49305763 Ry
     Harris-Foulkes estimate   =    -329.49305764 Ry
     estimated scf accuracy    <          9.8E-11 Ry

     The total energy is the sum of the following terms:

     one-electron contribution =    -607.36118071 Ry
     hartree contribution      =     325.10918575 Ry
     xc contribution           =     -51.40010844 Ry
     ewald contribution        =       4.16382073 Ry
     smearing contrib. (-TS)   =      -0.00477495 Ry

     convergence has been achieved in   8 iterations

     Forces acting on atoms (Ry/au):

     atom    1 type  1   force =     0.00016202   -0.00023500    0.00057152
     atom    2 type  1   force =    -0.00039353    0.00100919    0.00028319
     atom    3 type  1   force =     0.00001770   -0.00031601   -0.00032589
     atom    4 type  1   force =     0.00004897    0.00031037   -0.00017362
     atom    5 type  1   force =     0.00016484   -0.00076856   -0.00035520

     Total force =     0.001656     Total SCF correction =     0.000036

     number of scf cycles    =  10
     number of bfgs steps    =   9

     energy   old            =    -329.4930413142 Ry
     energy   new            =    -329.4930576262 Ry

     CASE: energy  _new < energy  _old

     new trust radius        =       0.0061109824 bohr
     new conv_thr            =            1.0E-10 Ry


ATOMIC_POSITIONS (bohr)
Au      -1.450235781   2.549095982  -1.343201756
Au      -0.761482860   3.891964200   3.621441963
Au       3.109342910   1.665840704   0.653296155
Au       3.806050062   3.089854477   5.923152698
Au       7.512467669   1.006625638   3.043530940



     Writing output data file pwscf.save
     Check: negative starting charge=   -0.006418
     NEW-OLD atomic charge density approx. for the potential
     Check: negative starting charge=   -0.006416

     negative rho (up, down):  1.925E-07 0.000E+00

     total cpu time spent up to now is       33.4 secs

     per-process dynamical memory:    50.7 Mb

     Self-consistent Calculation

     iteration #  1     ecut=    30.00 Ry     beta=0.70
     Davidson diagonalization with overlap
     ethr =  1.00E-06,  avg # of iterations =  3.0

     Threshold (ethr) on eigenvalues was too large:
     Diagonalizing with lowered threshold

     Davidson diagonalization with overlap
     ethr =  6.30E-09,  avg # of iterations =  2.0

     total cpu time spent up to now is       34.0 secs

     total energy              =    -329.49306534 Ry
     Harris-Foulkes estimate   =    -329.49306671 Ry
     estimated scf accuracy    <       0.00000381 Ry

     iteration #  2     ecut=    30.00 Ry     beta=0.70
     Davidson diagonalization with overlap
     ethr =  6.93E-09,  avg # of iterations =  3.0

     total cpu time spent up to now is       34.3 secs

     total energy              =    -329.49306544 Ry
     Harris-Foulkes estimate   =    -329.49306730 Ry
     estimated scf accuracy    <       0.00000319 Ry

     iteration #  3     ecut=    30.00 Ry     beta=0.70
     Davidson diagonalization with overlap
     ethr =  5.80E-09,  avg # of iterations =  2.0

     total cpu time spent up to now is       34.6 secs

     total energy              =    -329.49306563 Ry
     Harris-Foulkes estimate   =    -329.49306633 Ry
     estimated scf accuracy    <       0.00000047 Ry

     iteration #  4     ecut=    30.00 Ry     beta=0.70
     Davidson diagonalization with overlap
     ethr =  8.48E-10,  avg # of iterations =  2.0

     total cpu time spent up to now is       34.8 secs

     total energy              =    -329.49306559 Ry
     Harris-Foulkes estimate   =    -329.49306585 Ry
     estimated scf accuracy    <       0.00000037 Ry

     iteration #  5     ecut=    30.00 Ry     beta=0.70
     Davidson diagonalization with overlap
     ethr =  6.69E-10,  avg # of iterations =  2.0

     total cpu time spent up to now is       35.0 secs

     total energy              =    -329.49306562 Ry
     Harris-Foulkes estimate   =    -329.49306567 Ry
     estimated scf accuracy    <       0.00000002 Ry

     iteration #  6     ecut=    30.00 Ry     beta=0.70
     Davidson diagonalization with overlap
     ethr =  3.43E-11,  avg # of iterations =  3.0

     total cpu time spent up to now is       35.5 secs

     total energy              =    -329.49306558 Ry
     Harris-Foulkes estimate   =    -329.49306563 Ry
     estimated scf accuracy    <          3.8E-09 Ry

     iteration #  7     ecut=    30.00 Ry     beta=0.70
     Davidson diagonalization with overlap
     ethr =  6.85E-12,  avg # of iterations =  2.0

     total cpu time spent up to now is       35.8 secs

     total energy              =    -329.49306557 Ry
     Harris-Foulkes estimate   =    -329.49306558 Ry
     estimated scf accuracy    <          6.6E-10 Ry

     iteration #  8     ecut=    30.00 Ry     beta=0.70
     Davidson diagonalization with overlap
     ethr =  1.19E-12,  avg # of iterations =  2.0

     total cpu time spent up to now is       36.1 secs

     total energy              =    -329.49306557 Ry
     Harris-Foulkes estimate   =    -329.49306557 Ry
     estimated scf accuracy    <          1.8E-10 Ry

     iteration #  9     ecut=    30.00 Ry     beta=0.70
     Davidson diagonalization with overlap
     ethr =  3.22E-13,  avg # of iterations =  2.0

     total cpu time spent up to now is       36.3 secs

     End of self-consistent calculation

          k = 0.0000 0.0000 0.0000 ( 22119 PWs)   bands (ev):

    -8.5030  -7.7803  -7.6536  -7.2385  -6.8650  -6.8117  -6.6068  -6.4827
    -6.3138  -6.0729  -5.9558  -5.7637  -5.7254  -5.6837  -5.4580  -5.3607
    -5.3162  -5.2482  -5.1959  -5.1866  -5.1679  -5.1269  -5.0031  -4.9224
    -4.8528  -4.7232  -4.4826  -3.7677  -2.4345  -2.2156  -0.5430  -0.1933
     0.4353   0.8066

     the Fermi energy is    -3.7333 ev

!    total energy              =    -329.49306557 Ry
     Harris-Foulkes estimate   =    -329.49306557 Ry
     estimated scf accuracy    <          2.1E-11 Ry

     The total energy is the sum of the following terms:

     one-electron contribution =    -607.00477529 Ry
     hartree contribution      =     324.93358672 Ry
     xc contribution           =     -51.39879961 Ry
     ewald contribution        =       3.98167285 Ry
     smearing contrib. (-TS)   =      -0.00475024 Ry

     convergence has been achieved in   9 iterations

     Forces acting on atoms (Ry/au):

     atom    1 type  1   force =     0.00040454   -0.00015912    0.00101679
     atom    2 type  1   force =     0.00015398    0.00069584   -0.00012435
     atom    3 type  1   force =    -0.00053218   -0.00007218   -0.00014405
     atom    4 type  1   force =     0.00009751    0.00008641   -0.00075298
     atom    5 type  1   force =    -0.00012385   -0.00055094    0.00000460

     Total force =     0.001720     Total SCF correction =     0.000017

     number of scf cycles    =  11
     number of bfgs steps    =  10

     energy   old            =    -329.4930576262 Ry
     energy   new            =    -329.4930655672 Ry

     CASE: energy  _new < energy  _old

     new trust radius        =       0.0036659846 bohr
     new conv_thr            =            1.0E-10 Ry


ATOMIC_POSITIONS (bohr)
Au      -1.449895899   2.548169608  -1.342305343
Au      -0.762935790   3.895186126   3.622415426
Au       3.109591114   1.665237858   0.653310759
Au       3.806397760   3.090706919   5.922690036
Au       7.512984814   1.004080489   3.042109122



     Writing output data file pwscf.save
     Check: negative starting charge=   -0.006416
     NEW-OLD atomic charge density approx. for the potential
     Check: negative starting charge=   -0.006415

     total cpu time spent up to now is       36.7 secs

     per-process dynamical memory:    50.7 Mb

     Self-consistent Calculation

     iteration #  1     ecut=    30.00 Ry     beta=0.70
     Davidson diagonalization with overlap
     ethr =  1.00E-06,  avg # of iterations =  3.0

     Threshold (ethr) on eigenvalues was too large:
     Diagonalizing with lowered threshold

     Davidson diagonalization with overlap
     ethr =  3.04E-09,  avg # of iterations =  2.0

     total cpu time spent up to now is       37.3 secs

     total energy              =    -329.49307011 Ry
     Harris-Foulkes estimate   =    -329.49307163 Ry
     estimated scf accuracy    <       0.00000181 Ry

     iteration #  2     ecut=    30.00 Ry     beta=0.70
     Davidson diagonalization with overlap
     ethr =  3.29E-09,  avg # of iterations =  3.0

     total cpu time spent up to now is       37.6 secs

     total energy              =    -329.49306980 Ry
     Harris-Foulkes estimate   =    -329.49307122 Ry
     estimated scf accuracy    <       0.00000205 Ry

     iteration #  3     ecut=    30.00 Ry     beta=0.70
     Davidson diagonalization with overlap
     ethr =  3.29E-09,  avg # of iterations =  2.0

     total cpu time spent up to now is       37.8 secs

     total energy              =    -329.49307014 Ry
     Harris-Foulkes estimate   =    -329.49307037 Ry
     estimated scf accuracy    <       0.00000039 Ry

     iteration #  4     ecut=    30.00 Ry     beta=0.70
     Davidson diagonalization with overlap
     ethr =  7.01E-10,  avg # of iterations =  2.0

     total cpu time spent up to now is       38.1 secs

     total energy              =    -329.49307002 Ry
     Harris-Foulkes estimate   =    -329.49307027 Ry
     estimated scf accuracy    <       0.00000014 Ry

     iteration #  5     ecut=    30.00 Ry     beta=0.70
     Davidson diagonalization with overlap
     ethr =  2.61E-10,  avg # of iterations =  2.0

     total cpu time spent up to now is       38.3 secs

     total energy              =    -329.49306997 Ry
     Harris-Foulkes estimate   =    -329.49307004 Ry
     estimated scf accuracy    <          5.5E-09 Ry

     iteration #  6     ecut=    30.00 Ry     beta=0.70
     Davidson diagonalization with overlap
     ethr =  1.01E-11,  avg # of iterations =  3.0

     total cpu time spent up to now is       38.6 secs

     total energy              =    -329.49306997 Ry
     Harris-Foulkes estimate   =    -329.49306997 Ry
     estimated scf accuracy    <          1.7E-09 Ry

     iteration #  7     ecut=    30.00 Ry     beta=0.70
     Davidson diagonalization with overlap
     ethr =  3.03E-12,  avg # of iterations =  3.0

     total cpu time spent up to now is       39.0 secs

     total energy              =    -329.49306993 Ry
     Harris-Foulkes estimate   =    -329.49306997 Ry
     estimated scf accuracy    <          4.1E-10 Ry

     iteration #  8     ecut=    30.00 Ry     beta=0.70
     Davidson diagonalization with overlap
     ethr =  7.47E-13,  avg # of iterations =  2.0

     total cpu time spent up to now is       39.2 secs

     End of self-consistent calculation

          k = 0.0000 0.0000 0.0000 ( 22119 PWs)   bands (ev):

    -8.5017  -7.7781  -7.6512  -7.2355  -6.8631  -6.8111  -6.6056  -6.4809
    -6.3119  -6.0728  -5.9549  -5.7636  -5.7253  -5.6833  -5.4573  -5.3605
    -5.3161  -5.2482  -5.1961  -5.1861  -5.1679  -5.1271  -5.0027  -4.9230
    -4.8528  -4.7241  -4.4829  -3.7684  -2.4341  -2.2170  -0.5425  -0.1937
     0.4360   0.8065

     the Fermi energy is    -3.7341 ev

!    total energy              =    -329.49306992 Ry
     Harris-Foulkes estimate   =    -329.49306993 Ry
     estimated scf accuracy    <          6.2E-11 Ry

     The total energy is the sum of the following terms:

     one-electron contribution =    -606.88401519 Ry
     hartree contribution      =     324.87420152 Ry
     xc contribution           =     -51.39837977 Ry
     ewald contribution        =       3.91986135 Ry
     smearing contrib. (-TS)   =      -0.00473783 Ry

     convergence has been achieved in   8 iterations

     Forces acting on atoms (Ry/au):

     atom    1 type  1   force =     0.00037367   -0.00010937    0.00109025
     atom    2 type  1   force =     0.00037232    0.00058051   -0.00024573
     atom    3 type  1   force =    -0.00059817   -0.00000666   -0.00000552
     atom    4 type  1   force =     0.00012573   -0.00000899   -0.00099330
     atom    5 type  1   force =    -0.00027355   -0.00045549    0.00015431

     Total force =     0.001882     Total SCF correction =     0.000033

     number of scf cycles    =  12
     number of bfgs steps    =  11

     energy   old            =    -329.4930655672 Ry
     energy   new            =    -329.4930699190 Ry

     CASE: energy  _new < energy  _old

     new trust radius        =       0.0040325830 bohr
     new conv_thr            =            1.0E-10 Ry


ATOMIC_POSITIONS (bohr)
Au      -1.449357735   2.547137420  -1.340697352
Au      -0.764158988   3.898928964   3.623285295
Au       3.109515262   1.664613899   0.653393000
Au       3.806843499   3.091574186   5.921492256
Au       7.513299962   1.001126530   3.040746802



     Writing output data file pwscf.save
     Check: negative starting charge=   -0.006415
     NEW-OLD atomic charge density approx. for the potential
     Check: negative starting charge=   -0.006413

     negative rho (up, down):  1.633E-08 0.000E+00

     total cpu time spent up to now is       39.6 secs

     per-process dynamical memory:    50.7 Mb

     Self-consistent Calculation

     iteration #  1     ecut=    30.00 Ry     beta=0.70
     Davidson diagonalization with overlap
     ethr =  1.00E-06,  avg # of iterations =  3.0

     Threshold (ethr) on eigenvalues was too large:
     Diagonalizing with lowered threshold

     Davidson diagonalization with overlap
     ethr =  4.43E-09,  avg # of iterations =  2.0

     total cpu time spent up to now is       40.2 secs

     total energy              =    -329.49307525 Ry
     Harris-Foulkes estimate   =    -329.49307733 Ry
     estimated scf accuracy    <       0.00000262 Ry

     iteration #  2     ecut=    30.00 Ry     beta=0.70
     Davidson diagonalization with overlap
     ethr =  4.77E-09,  avg # of iterations =  2.0

     total cpu time spent up to now is       40.4 secs

     total energy              =    -329.49307554 Ry
     Harris-Foulkes estimate   =    -329.49307695 Ry
     estimated scf accuracy    <       0.00000322 Ry

     iteration #  3     ecut=    30.00 Ry     beta=0.70
     Davidson diagonalization with overlap
     ethr =  4.77E-09,  avg # of iterations =  2.0

     total cpu time spent up to now is       40.7 secs

     total energy              =    -329.49307574 Ry
     Harris-Foulkes estimate   =    -329.49307642 Ry
     estimated scf accuracy    <       0.00000060 Ry

     iteration #  4     ecut=    30.00 Ry     beta=0.70
     Davidson diagonalization with overlap
     ethr =  1.08E-09,  avg # of iterations =  2.0

     total cpu time spent up to now is       41.0 secs

     total energy              =    -329.49307559 Ry
     Harris-Foulkes estimate   =    -329.49307593 Ry
     estimated scf accuracy    <       0.00000018 Ry

     iteration #  5     ecut=    30.00 Ry     beta=0.70
     Davidson diagonalization with overlap
     ethr =  3.26E-10,  avg # of iterations =  2.0

     total cpu time spent up to now is       41.2 secs

     total energy              =    -329.49307563 Ry
     Harris-Foulkes estimate   =    -329.49307562 Ry
     estimated scf accuracy    <          6.8E-09 Ry

     iteration #  6     ecut=    30.00 Ry     beta=0.70
     Davidson diagonalization with overlap
     ethr =  1.24E-11,  avg # of iterations =  3.0

     total cpu time spent up to now is       41.6 secs

     total energy              =    -329.49307564 Ry
     Harris-Foulkes estimate   =    -329.49307563 Ry
     estimated scf accuracy    <          2.1E-09 Ry

     iteration #  7     ecut=    30.00 Ry     beta=0.70
     Davidson diagonalization with overlap
     ethr =  3.81E-12,  avg # of iterations =  2.0

     total cpu time spent up to now is       41.9 secs

     total energy              =    -329.49307562 Ry
     Harris-Foulkes estimate   =    -329.49307564 Ry
     estimated scf accuracy    <          4.6E-10 Ry

     iteration #  8     ecut=    30.00 Ry     beta=0.70
     Davidson diagonalization with overlap
     ethr =  8.39E-13,  avg # of iterations =  2.0

     total cpu time spent up to now is       42.2 secs

     End of self-consistent calculation

          k = 0.0000 0.0000 0.0000 ( 22119 PWs)   bands (ev):

    -8.5014  -7.7769  -7.6495  -7.2334  -6.8616  -6.8110  -6.6051  -6.4796
    -6.3106  -6.0730  -5.9544  -5.7638  -5.7254  -5.6830  -5.4567  -5.3603
    -5.3159  -5.2483  -5.1962  -5.1856  -5.1681  -5.1272  -5.0021  -4.9234
    -4.8525  -4.7248  -4.4829  -3.7689  -2.4335  -2.2179  -0.5421  -0.1939
     0.4368   0.8063

     the Fermi energy is    -3.7347 ev

!    total energy              =    -329.49307558 Ry
     Harris-Foulkes estimate   =    -329.49307562 Ry
     estimated scf accuracy    <          8.6E-11 Ry

     The total energy is the sum of the following terms:

     one-electron contribution =    -606.81590054 Ry
     hartree contribution      =     324.84079491 Ry
     xc contribution           =     -51.39816750 Ry
     ewald contribution        =       3.88492364 Ry
     smearing contrib. (-TS)   =      -0.00472609 Ry

     convergence has been achieved in   8 iterations

     Forces acting on atoms (Ry/au):

     atom    1 type  1   force =     0.00025894   -0.00005907    0.00106060
     atom    2 type  1   force =     0.00052577    0.00050528   -0.00030790
     atom    3 type  1   force =    -0.00054795    0.00002399    0.00013881
     atom    4 type  1   force =     0.00014954   -0.00007859   -0.00116541
     atom    5 type  1   force =    -0.00038630   -0.00039161    0.00027390

     Total force =     0.001976     Total SCF correction =     0.000040

     number of scf cycles    =  13
     number of bfgs steps    =  12

     energy   old            =    -329.4930699190 Ry
     energy   new            =    -329.4930755820 Ry

     CASE: energy  _new < energy  _old

     new trust radius        =       0.0060488745 bohr
[...]



     Writing output data file pwscf.save
     Check: negative starting charge=   -0.006373
     NEW-OLD atomic charge density approx. for the potential
     Check: negative starting charge=   -0.006367

     negative rho (up, down):  5.168E-06 0.000E+00

     total cpu time spent up to now is       59.1 secs

     per-process dynamical memory:    50.7 Mb

     Self-consistent Calculation

     iteration #  1     ecut=    30.00 Ry     beta=0.70
     Davidson diagonalization with overlap
     ethr =  1.00E-06,  avg # of iterations =  3.0

     Threshold (ethr) on eigenvalues was too large:
     Diagonalizing with lowered threshold

     Davidson diagonalization with overlap
     ethr =  3.10E-08,  avg # of iterations =  1.0

     total cpu time spent up to now is       59.6 secs

     total energy              =    -329.49316315 Ry
     Harris-Foulkes estimate   =    -329.49317113 Ry
     estimated scf accuracy    <       0.00001836 Ry

     iteration #  2     ecut=    30.00 Ry     beta=0.70
     Davidson diagonalization with overlap
     ethr =  3.34E-08,  avg # of iterations =  2.0

     total cpu time spent up to now is       60.0 secs

     total energy              =    -329.49316478 Ry
     Harris-Foulkes estimate   =    -329.49317450 Ry
     estimated scf accuracy    <       0.00001940 Ry

     iteration #  3     ecut=    30.00 Ry     beta=0.70
     Davidson diagonalization with overlap
     ethr =  3.34E-08,  avg # of iterations =  2.0

     total cpu time spent up to now is       60.2 secs

     total energy              =    -329.49316834 Ry
     Harris-Foulkes estimate   =    -329.49316971 Ry
     estimated scf accuracy    <       0.00000248 Ry

     iteration #  4     ecut=    30.00 Ry     beta=0.70
     Davidson diagonalization with overlap
     ethr =  4.50E-09,  avg # of iterations =  2.0

     total cpu time spent up to now is       60.5 secs

     total energy              =    -329.49316805 Ry
     Harris-Foulkes estimate   =    -329.49316952 Ry
     estimated scf accuracy    <       0.00000189 Ry

     iteration #  5     ecut=    30.00 Ry     beta=0.70
     Davidson diagonalization with overlap
     ethr =  3.44E-09,  avg # of iterations =  2.0

     total cpu time spent up to now is       60.8 secs

     total energy              =    -329.49316817 Ry
     Harris-Foulkes estimate   =    -329.49316836 Ry
     estimated scf accuracy    <       0.00000004 Ry

     iteration #  6     ecut=    30.00 Ry     beta=0.70
     Davidson diagonalization with overlap
     ethr =  6.57E-11,  avg # of iterations =  3.0

     total cpu time spent up to now is       61.1 secs

     total energy              =    -329.49316814 Ry
     Harris-Foulkes estimate   =    -329.49316819 Ry
     estimated scf accuracy    <       0.00000001 Ry

     iteration #  7     ecut=    30.00 Ry     beta=0.70
     Davidson diagonalization with overlap
     ethr =  1.99E-11,  avg # of iterations =  2.0

     total cpu time spent up to now is       61.4 secs

     total energy              =    -329.49316806 Ry
     Harris-Foulkes estimate   =    -329.49316815 Ry
     estimated scf accuracy    <          2.8E-09 Ry

     iteration #  8     ecut=    30.00 Ry     beta=0.70
     Davidson diagonalization with overlap
     ethr =  5.10E-12,  avg # of iterations =  2.0

     total cpu time spent up to now is       61.7 secs

     total energy              =    -329.49316805 Ry
     Harris-Foulkes estimate   =    -329.49316806 Ry
     estimated scf accuracy    <          3.9E-10 Ry

     iteration #  9     ecut=    30.00 Ry     beta=0.70
     Davidson diagonalization with overlap
     ethr =  7.11E-13,  avg # of iterations =  2.0

     total cpu time spent up to now is       62.0 secs

     End of self-consistent calculation

          k = 0.0000 0.0000 0.0000 ( 22119 PWs)   bands (ev):

    -8.5179  -7.7813  -7.6442  -7.2207  -6.8452  -6.8227  -6.6086  -6.4760
    -6.2996  -6.0834  -5.9506  -5.7695  -5.7309  -5.6838  -5.4559  -5.3549
    -5.3123  -5.2510  -5.1967  -5.1777  -5.1729  -5.1249  -4.9940  -4.9269
    -4.8413  -4.7329  -4.4826  -3.7708  -2.4231  -2.2197  -0.5391  -0.1924
     0.4543   0.8012

     the Fermi energy is    -3.7367 ev

!    total energy              =    -329.49316806 Ry
     Harris-Foulkes estimate   =    -329.49316805 Ry
     estimated scf accuracy    <          9.8E-11 Ry

     The total energy is the sum of the following terms:

     one-electron contribution =    -606.88661872 Ry
     hartree contribution      =     324.87772547 Ry
     xc contribution           =     -51.39904183 Ry
     ewald contribution        =       3.91945341 Ry
     smearing contrib. (-TS)   =      -0.00468639 Ry

     convergence has been achieved in   9 iterations

     Forces acting on atoms (Ry/au):

     atom    1 type  1   force =    -0.00145051    0.00095950   -0.00053954
     atom    2 type  1   force =     0.00047591   -0.00044946   -0.00086399
     atom    3 type  1   force =     0.00098539    0.00004185    0.00098811
     atom    4 type  1   force =    -0.00004085    0.00034211   -0.00090536
     atom    5 type  1   force =     0.00003006   -0.00089400    0.00132078

     Total force =     0.003150     Total SCF correction =     0.000040

     number of scf cycles    =  19
     number of bfgs steps    =  18

     energy   old            =    -329.4931575943 Ry
     energy   new            =    -329.4931680610 Ry

     CASE: energy  _new < energy  _old

     new trust radius        =       0.0092666653 bohr
     new conv_thr            =            1.0E-10 Ry


ATOMIC_POSITIONS (bohr)
Au      -1.444254925   2.527900480  -1.293447619
Au      -0.780083257   3.991798358   3.633006985
Au       3.105866761   1.653619675   0.670335418
Au       3.820896811   3.110932961   5.865746456
Au       7.513716610   0.919129528   3.022578760



     Writing output data file pwscf.save
     Check: negative starting charge=   -0.006367
     NEW-OLD atomic charge density approx. for the potential
     Check: negative starting charge=   -0.006361

     negative rho (up, down):  6.442E-06 0.000E+00

     total cpu time spent up to now is       62.3 secs

     per-process dynamical memory:    50.7 Mb

     Self-consistent Calculation

     iteration #  1     ecut=    30.00 Ry     beta=0.70
     Davidson diagonalization with overlap
     ethr =  1.00E-06,  avg # of iterations =  4.0

     Threshold (ethr) on eigenvalues was too large:
     Diagonalizing with lowered threshold

     Davidson diagonalization with overlap
     ethr =  3.49E-08,  avg # of iterations =  1.0

     total cpu time spent up to now is       63.0 secs

     total energy              =    -329.49317921 Ry
     Harris-Foulkes estimate   =    -329.49318673 Ry
     estimated scf accuracy    <       0.00002037 Ry

     iteration #  2     ecut=    30.00 Ry     beta=0.70
     Davidson diagonalization with overlap
     ethr =  3.70E-08,  avg # of iterations =  2.0

     total cpu time spent up to now is       63.2 secs

     total energy              =    -329.49318170 Ry
     Harris-Foulkes estimate   =    -329.49319158 Ry
     estimated scf accuracy    <       0.00002069 Ry

     iteration #  3     ecut=    30.00 Ry     beta=0.70
     Davidson diagonalization with overlap
     ethr =  3.70E-08,  avg # of iterations =  2.0

     total cpu time spent up to now is       63.5 secs

     total energy              =    -329.49318546 Ry
     Harris-Foulkes estimate   =    -329.49318676 Ry
     estimated scf accuracy    <       0.00000194 Ry

     iteration #  4     ecut=    30.00 Ry     beta=0.70
     Davidson diagonalization with overlap
     ethr =  3.52E-09,  avg # of iterations =  2.0

     total cpu time spent up to now is       63.8 secs

     total energy              =    -329.49318528 Ry
     Harris-Foulkes estimate   =    -329.49318659 Ry
     estimated scf accuracy    <       0.00000227 Ry

     iteration #  5     ecut=    30.00 Ry     beta=0.70
     Davidson diagonalization with overlap
     ethr =  3.52E-09,  avg # of iterations =  2.0

     total cpu time spent up to now is       64.0 secs

     total energy              =    -329.49318548 Ry
     Harris-Foulkes estimate   =    -329.49318566 Ry
     estimated scf accuracy    <       0.00000005 Ry

     iteration #  6     ecut=    30.00 Ry     beta=0.70
     Davidson diagonalization with overlap
     ethr =  8.66E-11,  avg # of iterations =  3.0

     total cpu time spent up to now is       64.4 secs

     total energy              =    -329.49318540 Ry
     Harris-Foulkes estimate   =    -329.49318550 Ry
     estimated scf accuracy    <       0.00000001 Ry

     iteration #  7     ecut=    30.00 Ry     beta=0.70
     Davidson diagonalization with overlap
     ethr =  2.32E-11,  avg # of iterations =  2.0

     total cpu time spent up to now is       64.7 secs

     total energy              =    -329.49318539 Ry
     Harris-Foulkes estimate   =    -329.49318541 Ry
     estimated scf accuracy    <          3.7E-09 Ry

     iteration #  8     ecut=    30.00 Ry     beta=0.70
     Davidson diagonalization with overlap
     ethr =  6.68E-12,  avg # of iterations =  2.0

     total cpu time spent up to now is       65.0 secs

     total energy              =    -329.49318539 Ry
     Harris-Foulkes estimate   =    -329.49318539 Ry
     estimated scf accuracy    <          6.1E-10 Ry

     iteration #  9     ecut=    30.00 Ry     beta=0.70
     Davidson diagonalization with overlap
     ethr =  1.10E-12,  avg # of iterations =  2.0

     total cpu time spent up to now is       65.3 secs

     End of self-consistent calculation

          k = 0.0000 0.0000 0.0000 ( 22119 PWs)   bands (ev):

    -8.5196  -7.7849  -7.6476  -7.2252  -6.8458  -6.8234  -6.6121  -6.4786
    -6.3021  -6.0836  -5.9518  -5.7694  -5.7310  -5.6843  -5.4580  -5.3548
    -5.3119  -5.2513  -5.1962  -5.1779  -5.1734  -5.1242  -4.9951  -4.9261
    -4.8393  -4.7332  -4.4821  -3.7694  -2.4244  -2.2166  -0.5394  -0.1911
     0.4549   0.8000

     the Fermi energy is    -3.7352 ev

!    total energy              =    -329.49318539 Ry
     Harris-Foulkes estimate   =    -329.49318539 Ry
     estimated scf accuracy    <          9.7E-11 Ry

     The total energy is the sum of the following terms:

     one-electron contribution =    -607.05016466 Ry
     hartree contribution      =     324.95817469 Ry
     xc contribution           =     -51.39962102 Ry
     ewald contribution        =       4.00313924 Ry
     smearing contrib. (-TS)   =      -0.00471365 Ry

     convergence has been achieved in   9 iterations

     Forces acting on atoms (Ry/au):

     atom    1 type  1   force =    -0.00114246    0.00074355   -0.00075771
     atom    2 type  1   force =     0.00025655   -0.00031548   -0.00057994
     atom    3 type  1   force =     0.00070283   -0.00007672    0.00063468
     atom    4 type  1   force =    -0.00012798    0.00046837   -0.00033728
     atom    5 type  1   force =     0.00031106   -0.00081972    0.00104025

     Total force =     0.002457     Total SCF correction =     0.000040

     number of scf cycles    =  20
     number of bfgs steps    =  19

     energy   old            =    -329.4931680610 Ry
     energy   new            =    -329.4931853928 Ry

     CASE: energy  _new < energy  _old

     new trust radius        =       0.0121216873 bohr
     new conv_thr            =            1.0E-10 Ry


ATOMIC_POSITIONS (bohr)
Au      -1.449206198   2.531245197  -1.289475295
Au      -0.778165700   3.996764153   3.628840230
Au       3.108175824   1.652398865   0.674013591
Au       3.821411090   3.114467871   5.856431023
Au       7.513926985   0.908504914   3.028410452



     Writing output data file pwscf.save
     Check: negative starting charge=   -0.006361
     NEW-OLD atomic charge density approx. for the potential
     Check: negative starting charge=   -0.006355

     negative rho (up, down):  1.462E-05 0.000E+00

     total cpu time spent up to now is       65.6 secs

     per-process dynamical memory:    50.7 Mb

     Self-consistent Calculation

     iteration #  1     ecut=    30.00 Ry     beta=0.70
     Davidson diagonalization with overlap
     ethr =  1.00E-06,  avg # of iterations =  4.0

     Threshold (ethr) on eigenvalues was too large:
     Diagonalizing with lowered threshold

     Davidson diagonalization with overlap
     ethr =  5.07E-08,  avg # of iterations =  1.0

     negative rho (up, down):  1.241E-08 0.000E+00

     total cpu time spent up to now is       66.2 secs

     total energy              =    -329.49319293 Ry
     Harris-Foulkes estimate   =    -329.49319981 Ry
     estimated scf accuracy    <       0.00002832 Ry

     iteration #  2     ecut=    30.00 Ry     beta=0.70
     Davidson diagonalization with overlap
     ethr =  5.15E-08,  avg # of iterations =  2.0

     total cpu time spent up to now is       66.5 secs

     total energy              =    -329.49319608 Ry
     Harris-Foulkes estimate   =    -329.49320985 Ry
     estimated scf accuracy    <       0.00002895 Ry

     iteration #  3     ecut=    30.00 Ry     beta=0.70
     Davidson diagonalization with overlap
     ethr =  5.15E-08,  avg # of iterations =  2.0

     total cpu time spent up to now is       66.7 secs

     total energy              =    -329.49320232 Ry
     Harris-Foulkes estimate   =    -329.49320317 Ry
     estimated scf accuracy    <       0.00000261 Ry

     iteration #  4     ecut=    30.00 Ry     beta=0.70
     Davidson diagonalization with overlap
     ethr =  4.75E-09,  avg # of iterations =  3.0

     total cpu time spent up to now is       67.1 secs

     total energy              =    -329.49320239 Ry
     Harris-Foulkes estimate   =    -329.49320378 Ry
     estimated scf accuracy    <       0.00000279 Ry

     iteration #  5     ecut=    30.00 Ry     beta=0.70
     Davidson diagonalization with overlap
     ethr =  4.75E-09,  avg # of iterations =  2.0

     total cpu time spent up to now is       67.3 secs

     total energy              =    -329.49320286 Ry
     Harris-Foulkes estimate   =    -329.49320289 Ry
     estimated scf accuracy    <       0.00000009 Ry

     iteration #  6     ecut=    30.00 Ry     beta=0.70
     Davidson diagonalization with overlap
     ethr =  1.56E-10,  avg # of iterations =  3.0

     total cpu time spent up to now is       67.6 secs

     total energy              =    -329.49320286 Ry
     Harris-Foulkes estimate   =    -329.49320289 Ry
     estimated scf accuracy    <       0.00000002 Ry

     iteration #  7     ecut=    30.00 Ry     beta=0.70
     Davidson diagonalization with overlap
     ethr =  3.14E-11,  avg # of iterations =  2.0

     total cpu time spent up to now is       67.9 secs

     total energy              =    -329.49320293 Ry
     Harris-Foulkes estimate   =    -329.49320287 Ry
     estimated scf accuracy    <          4.3E-09 Ry

     iteration #  8     ecut=    30.00 Ry     beta=0.70
     Davidson diagonalization with overlap
     ethr =  7.80E-12,  avg # of iterations =  2.0

     total cpu time spent up to now is       68.2 secs

     total energy              =    -329.49320292 Ry
     Harris-Foulkes estimate   =    -329.49320293 Ry
     estimated scf accuracy    <          9.2E-10 Ry

     iteration #  9     ecut=    30.00 Ry     beta=0.70
     Davidson diagonalization with overlap
     ethr =  1.68E-12,  avg # of iterations =  2.0

     total cpu time spent up to now is       68.5 secs

     total energy              =    -329.49320295 Ry
     Harris-Foulkes estimate   =    -329.49320292 Ry
     estimated scf accuracy    <          1.7E-10 Ry

     iteration # 10     ecut=    30.00 Ry     beta=0.70
     Davidson diagonalization with overlap
     ethr =  3.08E-13,  avg # of iterations =  2.0

     total cpu time spent up to now is       68.8 secs

     End of self-consistent calculation

          k = 0.0000 0.0000 0.0000 ( 22119 PWs)   bands (ev):

    -8.5198  -7.7898  -7.6542  -7.2340  -6.8470  -6.8227  -6.6171  -6.4834
    -6.3074  -6.0828  -5.9532  -5.7687  -5.7304  -5.6849  -5.4623  -5.3548
    -5.3116  -5.2519  -5.1952  -5.1786  -5.1739  -5.1231  -4.9982  -4.9244
    -4.8360  -4.7342  -4.4815  -3.7669  -2.4279  -2.2114  -0.5401  -0.1886
     0.4541   0.7981

     the Fermi energy is    -3.7325 ev

!    total energy              =    -329.49320293 Ry
     Harris-Foulkes estimate   =    -329.49320295 Ry
     estimated scf accuracy    <          2.1E-11 Ry

     The total energy is the sum of the following terms:

     one-electron contribution =    -607.27565782 Ry
     hartree contribution      =     325.06872489 Ry
     xc contribution           =     -51.40031007 Ry
     ewald contribution        =       4.11881087 Ry
     smearing contrib. (-TS)   =      -0.00477081 Ry

     convergence has been achieved in  10 iterations

     Forces acting on atoms (Ry/au):

     atom    1 type  1   force =    -0.00028865    0.00027286   -0.00089288
     atom    2 type  1   force =    -0.00020779   -0.00004297   -0.00005100
     atom    3 type  1   force =    -0.00000600   -0.00024273   -0.00011393
     atom    4 type  1   force =    -0.00013611    0.00060493    0.00056485
     atom    5 type  1   force =     0.00063854   -0.00059209    0.00049297

     Total force =     0.001667     Total SCF correction =     0.000018

     bfgs converged in  21 scf cycles and  20 bfgs steps
     (criteria: energy <  1.0E-04, force <  1.0E-03)

     End of BFGS Geometry Optimization

     Final energy   =    -329.4932029336 Ry
Begin final coordinates

ATOMIC_POSITIONS (bohr)
Au      -1.449206198   2.531245197  -1.289475295
Au      -0.778165700   3.996764153   3.628840230
Au       3.108175824   1.652398865   0.674013591
Au       3.821411090   3.114467871   5.856431023
Au       7.513926985   0.908504914   3.028410452
End final coordinates



     Writing output data file pwscf.save
 
     init_run     :      0.25s CPU      0.28s WALL (       1 calls)
     electrons    :     59.67s CPU     63.32s WALL (      21 calls)
     update_pot   :      1.76s CPU      2.10s WALL (      20 calls)
     forces       :      1.05s CPU      1.07s WALL (      21 calls)

     Called by init_run:
     wfcinit      :      0.11s CPU      0.13s WALL (       1 calls)
     potinit      :      0.03s CPU      0.03s WALL (       1 calls)

     Called by electrons:
     c_bands      :     44.29s CPU     45.02s WALL (     209 calls)
     sum_band     :      5.69s CPU      5.84s WALL (     209 calls)
     v_of_rho     :      5.12s CPU      5.20s WALL (     215 calls)
     mix_rho      :      2.45s CPU      3.97s WALL (     209 calls)

     Called by c_bands:
     init_us_2    :      0.65s CPU      0.68s WALL (     419 calls)
     cegterg      :     40.38s CPU     41.02s WALL (     209 calls)

     Called by sum_band:

     Called by *egterg:
     h_psi        :     31.33s CPU     31.78s WALL (     711 calls)
     g_psi        :      0.24s CPU      0.24s WALL (     501 calls)
     cdiaghg      :      2.32s CPU      2.36s WALL (     675 calls)

     Called by h_psi:
     h_psi:pot    :     30.98s CPU     31.42s WALL (     711 calls)
     h_psi:calbec :      3.78s CPU      3.88s WALL (     711 calls)
     vloc_psi     :     25.72s CPU     26.05s WALL (     711 calls)
     add_vuspsi   :      1.49s CPU      1.49s WALL (     711 calls)

     General routines
     calbec       :      4.16s CPU      4.29s WALL (     795 calls)
     fft          :      3.21s CPU      3.29s WALL (    2436 calls)
     fftw         :     27.42s CPU     27.99s WALL (   45760 calls)
     davcio       :      0.24s CPU      1.40s WALL (    1944 calls)
 
     Parallel routines
     fft_scatter  :     12.05s CPU     12.13s WALL (   48196 calls)
 
     PWSCF        :  1m 3.69s CPU     1m 9.04s WALL

 
   This run was terminated on:   1:27:10  29Jul2017            

=------------------------------------------------------------------------------=
   JOB DONE.
=------------------------------------------------------------------------------=
