
     Program PWSCF v.6.0 (svn rev. 13079) starts on 29Jul2017 at  0:49:33 

     This program is part of the open-source Quantum ESPRESSO suite
     for quantum simulation of materials; please cite
         "P. Giannozzi et al., J. Phys.:Condens. Matter 21 395502 (2009);
          URL http://www.quantum-espresso.org", 
     in publications or presentations arising from this work. More details at
     http://www.quantum-espresso.org/quote

     Parallel version (MPI), running on    10 processors
     R & G space division:  proc/nbgrp/npool/nimage =      10
     Reading input from input/dftmin-Gold5-multi-3.in

     Current dimensions of program PWSCF are:
     Max number of different atomic species (ntypx) = 10
     Max number of k-points (npk) =  40000
     Max angular momentum in pseudopotentials (lmaxx) =  3
     Message from routine iosys:
     pot_extrapolation='second-order' not available, using 'atomic'
     Message from routine iosys:
     wfc_extrapolation='second-order' not available, using 'atomic'

     Subspace diagonalization in iterative solution of the eigenvalue problem:
     a serial algorithm will be used

 
     Parallelization info
     --------------------
     sticks:   dense  smooth     PW     G-vecs:    dense   smooth      PW
     Min         380     380     94                17748    17748    2208
     Max         381     381     95                17753    17753    2213
     Sum        3809    3809    949               177509   177509   22119
 


     bravais-lattice index     =            1
     lattice parameter (alat)  =      20.0000  a.u.
     unit-cell volume          =    8000.0000 (a.u.)^3
     number of atoms/cell      =            5
     number of atomic types    =            1
     number of electrons       =        55.00
     number of Kohn-Sham states=           34
     kinetic-energy cutoff     =      30.0000  Ry
     charge density cutoff     =     120.0000  Ry
     convergence threshold     =      1.0E-08
     mixing beta               =       0.7000
     number of iterations used =            8  plain     mixing
     Exchange-correlation      = BLYP ( 1  3  1  3 0 0)
     nstep                     =           50


     celldm(1)=  20.000000  celldm(2)=   0.000000  celldm(3)=   0.000000
     celldm(4)=   0.000000  celldm(5)=   0.000000  celldm(6)=   0.000000

     crystal axes: (cart. coord. in units of alat)
               a(1) = (   1.000000   0.000000   0.000000 )  
               a(2) = (   0.000000   1.000000   0.000000 )  
               a(3) = (   0.000000   0.000000   1.000000 )  

     reciprocal axes: (cart. coord. in units 2 pi/alat)
               b(1) = (  1.000000  0.000000  0.000000 )  
               b(2) = (  0.000000  1.000000  0.000000 )  
               b(3) = (  0.000000  0.000000  1.000000 )  


     PseudoPot. # 1 for Au read from file:
     ./Au.blyp-d-hgh.UPF
     MD5 check sum: c10d8bae01f806c36a1643a1c69a8479
     Pseudo is Norm-conserving, Zval = 11.0
     Generated in analytical, separable form
     Using radial grid of 1279 points,  6 beta functions with: 
                l(1) =   0
                l(2) =   0
                l(3) =   1
                l(4) =   1
                l(5) =   2
                l(6) =   2

     atomic species   valence    mass     pseudopotential
        Au            11.00    28.08600     Au( 1.00)

     No symmetry found



   Cartesian axes

     site n.     atom                  positions (alat units)
         1           Au  tau(   1) = (  -0.1031632   0.1616166  -0.0192431  )
         2           Au  tau(   2) = (   0.0065590   0.1794042   0.2154368  )
         3           Au  tau(   3) = (   0.1456052   0.0957868   0.0009498  )
         4           Au  tau(   4) = (   0.2329744   0.1744441   0.3235121  )
         5           Au  tau(   5) = (   0.3592559   0.0338441   0.1206914  )

     number of k points=     1  Marzari-Vanderbilt smearing, width (Ry)=  0.0250
                       cart. coord. in units 2pi/alat
        k(    1) = (   0.0000000   0.0000000   0.0000000), wk =   2.0000000

     Dense  grid:   177509 G-vectors     FFT dimensions: (  72,  72,  72)

     Estimated max dynamical RAM per process >      15.04Mb

     Estimated total allocated dynamical RAM >     150.39Mb

     Initial potential from superposition of free atoms
     Check: negative starting charge=   -0.006181

     starting charge   54.99940, renormalised to   55.00000

     negative rho (up, down):  6.181E-03 0.000E+00
     Starting wfc are   45 randomized atomic wfcs

     total cpu time spent up to now is        0.7 secs

     per-process dynamical memory:    41.0 Mb

     Self-consistent Calculation

     iteration #  1     ecut=    30.00 Ry     beta=0.70
     Davidson diagonalization with overlap
     ethr =  1.00E-02,  avg # of iterations =  3.0

     Threshold (ethr) on eigenvalues was too large:
     Diagonalizing with lowered threshold

     Davidson diagonalization with overlap
     ethr =  4.19E-04,  avg # of iterations =  3.0

     negative rho (up, down):  8.455E-04 0.000E+00

     total cpu time spent up to now is        1.6 secs

     total energy              =    -329.36435038 Ry
     Harris-Foulkes estimate   =    -329.52987404 Ry
     estimated scf accuracy    <       0.28307045 Ry

     iteration #  2     ecut=    30.00 Ry     beta=0.70
     Davidson diagonalization with overlap
     ethr =  5.15E-04,  avg # of iterations =  2.0

     negative rho (up, down):  3.339E-04 0.000E+00

     total cpu time spent up to now is        2.2 secs

     total energy              =    -329.43004122 Ry
     Harris-Foulkes estimate   =    -329.53608046 Ry
     estimated scf accuracy    <       0.21084221 Ry

     iteration #  3     ecut=    30.00 Ry     beta=0.70
     Davidson diagonalization with overlap
     ethr =  3.83E-04,  avg # of iterations =  2.0

     negative rho (up, down):  1.617E-04 0.000E+00

     total cpu time spent up to now is        2.7 secs

     total energy              =    -329.46718288 Ry
     Harris-Foulkes estimate   =    -329.48249656 Ry
     estimated scf accuracy    <       0.04053055 Ry

     iteration #  4     ecut=    30.00 Ry     beta=0.70
     Davidson diagonalization with overlap
     ethr =  7.37E-05,  avg # of iterations =  5.0

     negative rho (up, down):  4.999E-05 0.000E+00

     total cpu time spent up to now is        3.2 secs

     total energy              =    -329.47122783 Ry
     Harris-Foulkes estimate   =    -329.47699513 Ry
     estimated scf accuracy    <       0.01930898 Ry

     iteration #  5     ecut=    30.00 Ry     beta=0.70
     Davidson diagonalization with overlap
     ethr =  3.51E-05,  avg # of iterations =  1.0

     negative rho (up, down):  3.899E-07 0.000E+00

     total cpu time spent up to now is        3.6 secs

     total energy              =    -329.47331704 Ry
     Harris-Foulkes estimate   =    -329.47560224 Ry
     estimated scf accuracy    <       0.00825282 Ry

     iteration #  6     ecut=    30.00 Ry     beta=0.70
     Davidson diagonalization with overlap
     ethr =  1.50E-05,  avg # of iterations =  3.0

     negative rho (up, down):  3.331E-07 0.000E+00

     total cpu time spent up to now is        4.1 secs

     total energy              =    -329.47349970 Ry
     Harris-Foulkes estimate   =    -329.47369322 Ry
     estimated scf accuracy    <       0.00587234 Ry

     iteration #  7     ecut=    30.00 Ry     beta=0.70
     Davidson diagonalization with overlap
     ethr =  1.07E-05,  avg # of iterations =  1.0

     negative rho (up, down):  1.965E-07 0.000E+00

     total cpu time spent up to now is        4.5 secs

     total energy              =    -329.47417971 Ry
     Harris-Foulkes estimate   =    -329.47352683 Ry
     estimated scf accuracy    <       0.00605751 Ry

     iteration #  8     ecut=    30.00 Ry     beta=0.70
     Davidson diagonalization with overlap
     ethr =  1.07E-05,  avg # of iterations =  1.0

     total cpu time spent up to now is        4.9 secs

     total energy              =    -329.47634435 Ry
     Harris-Foulkes estimate   =    -329.47414615 Ry
     estimated scf accuracy    <       0.00458705 Ry

     iteration #  9     ecut=    30.00 Ry     beta=0.70
     Davidson diagonalization with overlap
     ethr =  8.34E-06,  avg # of iterations =  2.0

     total cpu time spent up to now is        5.3 secs

     total energy              =    -329.47632323 Ry
     Harris-Foulkes estimate   =    -329.47550857 Ry
     estimated scf accuracy    <       0.00231778 Ry

     iteration # 10     ecut=    30.00 Ry     beta=0.70
     Davidson diagonalization with overlap
     ethr =  4.21E-06,  avg # of iterations =  3.0

     total cpu time spent up to now is        5.8 secs

     total energy              =    -329.47691888 Ry
     Harris-Foulkes estimate   =    -329.47643710 Ry
     estimated scf accuracy    <       0.00430086 Ry

     iteration # 11     ecut=    30.00 Ry     beta=0.70
     Davidson diagonalization with overlap
     ethr =  4.21E-06,  avg # of iterations =  1.0

     total cpu time spent up to now is        6.1 secs

     total energy              =    -329.47469996 Ry
     Harris-Foulkes estimate   =    -329.47695195 Ry
     estimated scf accuracy    <       0.00586905 Ry

     iteration # 12     ecut=    30.00 Ry     beta=0.70
     Davidson diagonalization with overlap
     ethr =  4.21E-06,  avg # of iterations =  3.0

     total cpu time spent up to now is        6.6 secs

     total energy              =    -329.47480910 Ry
     Harris-Foulkes estimate   =    -329.47515495 Ry
     estimated scf accuracy    <       0.00119024 Ry

     iteration # 13     ecut=    30.00 Ry     beta=0.70
     Davidson diagonalization with overlap
     ethr =  2.16E-06,  avg # of iterations =  3.0

     total cpu time spent up to now is        7.1 secs

     total energy              =    -329.47413651 Ry
     Harris-Foulkes estimate   =    -329.47478323 Ry
     estimated scf accuracy    <       0.00148529 Ry

     iteration # 14     ecut=    30.00 Ry     beta=0.70
     Davidson diagonalization with overlap
     ethr =  2.16E-06,  avg # of iterations =  3.0

     total cpu time spent up to now is        7.5 secs

     total energy              =    -329.47356065 Ry
     Harris-Foulkes estimate   =    -329.47379056 Ry
     estimated scf accuracy    <       0.00417953 Ry

     iteration # 15     ecut=    30.00 Ry     beta=0.70
     Davidson diagonalization with overlap
     ethr =  2.16E-06,  avg # of iterations =  1.0

     total cpu time spent up to now is        7.9 secs

     total energy              =    -329.47396375 Ry
     Harris-Foulkes estimate   =    -329.47355299 Ry
     estimated scf accuracy    <       0.00465160 Ry

     iteration # 16     ecut=    30.00 Ry     beta=0.70
     Davidson diagonalization with overlap
     ethr =  2.16E-06,  avg # of iterations =  1.0

     total cpu time spent up to now is        8.3 secs

     total energy              =    -329.47443517 Ry
     Harris-Foulkes estimate   =    -329.47393554 Ry
     estimated scf accuracy    <       0.00368361 Ry

     iteration # 17     ecut=    30.00 Ry     beta=0.70
     Davidson diagonalization with overlap
     ethr =  2.16E-06,  avg # of iterations =  1.0

     total cpu time spent up to now is        8.7 secs

     total energy              =    -329.47435332 Ry
     Harris-Foulkes estimate   =    -329.47437417 Ry
     estimated scf accuracy    <       0.00237454 Ry

     iteration # 18     ecut=    30.00 Ry     beta=0.70
     Davidson diagonalization with overlap
     ethr =  2.16E-06,  avg # of iterations =  1.0

     total cpu time spent up to now is        9.1 secs

     total energy              =    -329.47496015 Ry
     Harris-Foulkes estimate   =    -329.47436026 Ry
     estimated scf accuracy    <       0.00246206 Ry

     iteration # 19     ecut=    30.00 Ry     beta=0.70
     Davidson diagonalization with overlap
     ethr =  2.16E-06,  avg # of iterations =  2.0

     total cpu time spent up to now is        9.5 secs

     total energy              =    -329.47581102 Ry
     Harris-Foulkes estimate   =    -329.47483029 Ry
     estimated scf accuracy    <       0.00127661 Ry

     iteration # 20     ecut=    30.00 Ry     beta=0.70
     Davidson diagonalization with overlap
     ethr =  2.16E-06,  avg # of iterations =  3.0

     total cpu time spent up to now is       10.0 secs

     total energy              =    -329.47594578 Ry
     Harris-Foulkes estimate   =    -329.47563810 Ry
     estimated scf accuracy    <       0.00198011 Ry

     iteration # 21     ecut=    30.00 Ry     beta=0.70
     Davidson diagonalization with overlap
     ethr =  2.16E-06,  avg # of iterations =  1.0

     total cpu time spent up to now is       10.5 secs

     total energy              =    -329.47474221 Ry
     Harris-Foulkes estimate   =    -329.47595728 Ry
     estimated scf accuracy    <       0.00273951 Ry

     iteration # 22     ecut=    30.00 Ry     beta=0.70
     Davidson diagonalization with overlap
     ethr =  2.16E-06,  avg # of iterations =  3.0

     total cpu time spent up to now is       11.1 secs

     total energy              =    -329.47445389 Ry
     Harris-Foulkes estimate   =    -329.47477837 Ry
     estimated scf accuracy    <       0.00143392 Ry

     iteration # 23     ecut=    30.00 Ry     beta=0.70
     Davidson diagonalization with overlap
     ethr =  2.16E-06,  avg # of iterations =  1.0

     total cpu time spent up to now is       11.5 secs

     total energy              =    -329.47546476 Ry
     Harris-Foulkes estimate   =    -329.47436279 Ry
     estimated scf accuracy    <       0.00261198 Ry

     iteration # 24     ecut=    30.00 Ry     beta=0.70
     Davidson diagonalization with overlap
     ethr =  2.16E-06,  avg # of iterations =  2.0

     total cpu time spent up to now is       11.9 secs

     total energy              =    -329.47453565 Ry
     Harris-Foulkes estimate   =    -329.47509996 Ry
     estimated scf accuracy    <       0.00114858 Ry

     iteration # 25     ecut=    30.00 Ry     beta=0.70
     Davidson diagonalization with overlap
     ethr =  2.09E-06,  avg # of iterations =  3.0

     total cpu time spent up to now is       12.4 secs

     total energy              =    -329.47378434 Ry
     Harris-Foulkes estimate   =    -329.47415518 Ry
     estimated scf accuracy    <       0.00318379 Ry

     iteration # 26     ecut=    30.00 Ry     beta=0.70
     Davidson diagonalization with overlap
     ethr =  2.09E-06,  avg # of iterations =  1.0

     total cpu time spent up to now is       12.7 secs

     total energy              =    -329.47324302 Ry
     Harris-Foulkes estimate   =    -329.47373644 Ry
     estimated scf accuracy    <       0.00441431 Ry

     iteration # 27     ecut=    30.00 Ry     beta=0.70
     Davidson diagonalization with overlap
     ethr =  2.09E-06,  avg # of iterations =  1.0

     total cpu time spent up to now is       13.1 secs

     total energy              =    -329.47288037 Ry
     Harris-Foulkes estimate   =    -329.47321871 Ry
     estimated scf accuracy    <       0.00471153 Ry

     iteration # 28     ecut=    30.00 Ry     beta=0.70
     Davidson diagonalization with overlap
     ethr =  2.09E-06,  avg # of iterations =  1.0

     total cpu time spent up to now is       13.6 secs

     total energy              =    -329.47285767 Ry
     Harris-Foulkes estimate   =    -329.47289627 Ry
     estimated scf accuracy    <       0.00391801 Ry

     iteration # 29     ecut=    30.00 Ry     beta=0.70
     Davidson diagonalization with overlap
     ethr =  2.09E-06,  avg # of iterations =  1.0

     total cpu time spent up to now is       14.0 secs

     total energy              =    -329.47607296 Ry
     Harris-Foulkes estimate   =    -329.47286381 Ry
     estimated scf accuracy    <       0.00371162 Ry

     iteration # 30     ecut=    30.00 Ry     beta=0.70
     Davidson diagonalization with overlap
     ethr =  2.09E-06,  avg # of iterations =  3.0

     total cpu time spent up to now is       14.5 secs

     total energy              =    -329.47651989 Ry
     Harris-Foulkes estimate   =    -329.47516233 Ry
     estimated scf accuracy    <       0.00121609 Ry

     iteration # 31     ecut=    30.00 Ry     beta=0.70
     Davidson diagonalization with overlap
     ethr =  2.09E-06,  avg # of iterations =  4.0

     total cpu time spent up to now is       15.0 secs

     total energy              =    -329.47624537 Ry
     Harris-Foulkes estimate   =    -329.47662094 Ry
     estimated scf accuracy    <       0.00493580 Ry

     iteration # 32     ecut=    30.00 Ry     beta=0.70
     Davidson diagonalization with overlap
     ethr =  2.09E-06,  avg # of iterations =  1.0

     total cpu time spent up to now is       15.4 secs

     total energy              =    -329.47575697 Ry
     Harris-Foulkes estimate   =    -329.47625979 Ry
     estimated scf accuracy    <       0.00387350 Ry

     iteration # 33     ecut=    30.00 Ry     beta=0.70
     Davidson diagonalization with overlap
     ethr =  2.09E-06,  avg # of iterations =  1.0

     total cpu time spent up to now is       15.8 secs

     total energy              =    -329.47619361 Ry
     Harris-Foulkes estimate   =    -329.47579171 Ry
     estimated scf accuracy    <       0.00247416 Ry

     iteration # 34     ecut=    30.00 Ry     beta=0.70
     Davidson diagonalization with overlap
     ethr =  2.09E-06,  avg # of iterations =  1.0

     total cpu time spent up to now is       16.3 secs

     total energy              =    -329.47381130 Ry
     Harris-Foulkes estimate   =    -329.47621210 Ry
     estimated scf accuracy    <       0.00350787 Ry

     iteration # 35     ecut=    30.00 Ry     beta=0.70
     Davidson diagonalization with overlap
     ethr =  2.09E-06,  avg # of iterations =  5.0

     total cpu time spent up to now is       16.9 secs

     total energy              =    -329.47246054 Ry
     Harris-Foulkes estimate   =    -329.47249952 Ry
     estimated scf accuracy    <       0.00134687 Ry

     iteration # 36     ecut=    30.00 Ry     beta=0.70
     Davidson diagonalization with overlap
     ethr =  2.09E-06,  avg # of iterations =  1.0

     total cpu time spent up to now is       17.3 secs

     total energy              =    -329.47216848 Ry
     Harris-Foulkes estimate   =    -329.47253816 Ry
     estimated scf accuracy    <       0.00148163 Ry

     iteration # 37     ecut=    30.00 Ry     beta=0.70
     Davidson diagonalization with overlap
     ethr =  2.09E-06,  avg # of iterations =  3.0

     total cpu time spent up to now is       17.7 secs

     total energy              =    -329.47048495 Ry
     Harris-Foulkes estimate   =    -329.47430718 Ry
     estimated scf accuracy    <       0.04031661 Ry

     iteration # 38     ecut=    30.00 Ry     beta=0.70
     Davidson diagonalization with overlap
     ethr =  2.09E-06,  avg # of iterations =  3.0

     total cpu time spent up to now is       18.2 secs

     total energy              =    -329.47249228 Ry
     Harris-Foulkes estimate   =    -329.47248391 Ry
     estimated scf accuracy    <       0.00119914 Ry

     iteration # 39     ecut=    30.00 Ry     beta=0.70
     Davidson diagonalization with overlap
     ethr =  2.09E-06,  avg # of iterations =  2.0

     total cpu time spent up to now is       18.6 secs

     total energy              =    -329.47167311 Ry
     Harris-Foulkes estimate   =    -329.47300090 Ry
     estimated scf accuracy    <       0.00404346 Ry

     iteration # 40     ecut=    30.00 Ry     beta=0.70
     Davidson diagonalization with overlap
     ethr =  2.09E-06,  avg # of iterations =  3.0

     total cpu time spent up to now is       19.0 secs

     total energy              =    -329.47061725 Ry
     Harris-Foulkes estimate   =    -329.47290910 Ry
     estimated scf accuracy    <       0.00908699 Ry

     iteration # 41     ecut=    30.00 Ry     beta=0.70
     Davidson diagonalization with overlap
     ethr =  2.09E-06,  avg # of iterations =  3.0

     total cpu time spent up to now is       19.5 secs

     total energy              =    -329.48277944 Ry
     Harris-Foulkes estimate   =    -329.47326478 Ry
     estimated scf accuracy    <       0.00456156 Ry

     iteration # 42     ecut=    30.00 Ry     beta=0.70
     Davidson diagonalization with overlap
     ethr =  2.09E-06,  avg # of iterations =  6.0

     total cpu time spent up to now is       20.2 secs

     total energy              =    -329.49239594 Ry
     Harris-Foulkes estimate   =    -329.47889074 Ry
     estimated scf accuracy    <       0.01268617 Ry

     iteration # 43     ecut=    30.00 Ry     beta=0.70
     Davidson diagonalization with overlap
     ethr =  2.09E-06,  avg # of iterations =  5.0

     total cpu time spent up to now is       21.0 secs

     total energy              =    -329.44955227 Ry
     Harris-Foulkes estimate   =    -329.49780054 Ry
     estimated scf accuracy    <       0.08251071 Ry

     iteration # 44     ecut=    30.00 Ry     beta=0.70
     Davidson diagonalization with overlap
     ethr =  2.09E-06,  avg # of iterations =  7.0

     total cpu time spent up to now is       21.7 secs

     total energy              =    -329.47608393 Ry
     Harris-Foulkes estimate   =    -329.47412169 Ry
     estimated scf accuracy    <       0.03574531 Ry

     iteration # 45     ecut=    30.00 Ry     beta=0.70
     Davidson diagonalization with overlap
     ethr =  2.09E-06,  avg # of iterations =  7.0

     total cpu time spent up to now is       22.2 secs

     total energy              =    -329.47822087 Ry
     Harris-Foulkes estimate   =    -329.47678868 Ry
     estimated scf accuracy    <       0.10673349 Ry

     iteration # 46     ecut=    30.00 Ry     beta=0.70
     Davidson diagonalization with overlap
     ethr =  2.09E-06,  avg # of iterations =  1.0

     total cpu time spent up to now is       22.6 secs

     total energy              =    -329.47096431 Ry
     Harris-Foulkes estimate   =    -329.47835716 Ry
     estimated scf accuracy    <       0.15189729 Ry

     iteration # 47     ecut=    30.00 Ry     beta=0.70
     Davidson diagonalization with overlap
     ethr =  2.09E-06,  avg # of iterations =  3.0

     total cpu time spent up to now is       23.0 secs

     total energy              =    -329.47644966 Ry
     Harris-Foulkes estimate   =    -329.47340857 Ry
     estimated scf accuracy    <       0.01976048 Ry

     iteration # 48     ecut=    30.00 Ry     beta=0.70
     Davidson diagonalization with overlap
     ethr =  2.09E-06,  avg # of iterations =  3.0

     total cpu time spent up to now is       23.4 secs

     total energy              =    -329.47259005 Ry
     Harris-Foulkes estimate   =    -329.47924699 Ry
     estimated scf accuracy    <       0.17949506 Ry

     iteration # 49     ecut=    30.00 Ry     beta=0.70
     Davidson diagonalization with overlap
     ethr =  2.09E-06,  avg # of iterations =  3.0

     total cpu time spent up to now is       23.8 secs

     total energy              =    -329.47651017 Ry
     Harris-Foulkes estimate   =    -329.47433699 Ry
     estimated scf accuracy    <       0.04189189 Ry

     iteration # 50     ecut=    30.00 Ry     beta=0.70
     Davidson diagonalization with overlap
     ethr =  2.09E-06,  avg # of iterations =  2.0

     total cpu time spent up to now is       24.2 secs

     total energy              =    -329.48566043 Ry
     Harris-Foulkes estimate   =    -329.47722630 Ry
     estimated scf accuracy    <       0.11956123 Ry

     iteration # 51     ecut=    30.00 Ry     beta=0.70
     Davidson diagonalization with overlap
     ethr =  2.09E-06,  avg # of iterations =  3.0

     total cpu time spent up to now is       24.7 secs

     total energy              =    -329.52755158 Ry
     Harris-Foulkes estimate   =    -329.49024864 Ry
     estimated scf accuracy    <       0.53055407 Ry

     iteration # 52     ecut=    30.00 Ry     beta=0.70
     Davidson diagonalization with overlap
     ethr =  2.09E-06,  avg # of iterations =  6.0

     total cpu time spent up to now is       25.3 secs

     total energy              =    -329.43592826 Ry
     Harris-Foulkes estimate   =    -329.54286233 Ry
     estimated scf accuracy    <       1.49672951 Ry

     iteration # 53     ecut=    30.00 Ry     beta=0.70
     Davidson diagonalization with overlap
     ethr =  2.09E-06,  avg # of iterations =  6.0

     total cpu time spent up to now is       26.0 secs

     total energy              =    -329.47311991 Ry
     Harris-Foulkes estimate   =    -329.47391575 Ry
     estimated scf accuracy    <       0.02681882 Ry

     iteration # 54     ecut=    30.00 Ry     beta=0.70
     Davidson diagonalization with overlap
     ethr =  2.09E-06,  avg # of iterations =  1.0

     total cpu time spent up to now is       26.5 secs

     total energy              =    -329.47279386 Ry
     Harris-Foulkes estimate   =    -329.47327098 Ry
     estimated scf accuracy    <       0.01404918 Ry

     iteration # 55     ecut=    30.00 Ry     beta=0.70
     Davidson diagonalization with overlap
     ethr =  2.09E-06,  avg # of iterations =  1.0

     total cpu time spent up to now is       26.9 secs

     total energy              =    -329.47277401 Ry
     Harris-Foulkes estimate   =    -329.47289391 Ry
     estimated scf accuracy    <       0.00737063 Ry

     iteration # 56     ecut=    30.00 Ry     beta=0.70
     Davidson diagonalization with overlap
     ethr =  2.09E-06,  avg # of iterations =  1.0

     total cpu time spent up to now is       27.3 secs

     total energy              =    -329.47268716 Ry
     Harris-Foulkes estimate   =    -329.47280773 Ry
     estimated scf accuracy    <       0.00584922 Ry

     iteration # 57     ecut=    30.00 Ry     beta=0.70
     Davidson diagonalization with overlap
     ethr =  2.09E-06,  avg # of iterations =  1.0

     total cpu time spent up to now is       27.7 secs

     total energy              =    -329.47242088 Ry
     Harris-Foulkes estimate   =    -329.47271031 Ry
     estimated scf accuracy    <       0.00438570 Ry

     iteration # 58     ecut=    30.00 Ry     beta=0.70
     Davidson diagonalization with overlap
     ethr =  2.09E-06,  avg # of iterations =  1.0

     total cpu time spent up to now is       28.1 secs

     total energy              =    -329.47238593 Ry
     Harris-Foulkes estimate   =    -329.47250454 Ry
     estimated scf accuracy    <       0.00136114 Ry

     iteration # 59     ecut=    30.00 Ry     beta=0.70
     Davidson diagonalization with overlap
     ethr =  2.09E-06,  avg # of iterations =  1.0

     total cpu time spent up to now is       28.5 secs

     total energy              =    -329.47237547 Ry
     Harris-Foulkes estimate   =    -329.47243896 Ry
     estimated scf accuracy    <       0.00058513 Ry

     iteration # 60     ecut=    30.00 Ry     beta=0.70
     Davidson diagonalization with overlap
     ethr =  1.06E-06,  avg # of iterations =  1.0

     total cpu time spent up to now is       28.9 secs

     total energy              =    -329.47236976 Ry
     Harris-Foulkes estimate   =    -329.47240095 Ry
     estimated scf accuracy    <       0.00020008 Ry

     iteration # 61     ecut=    30.00 Ry     beta=0.70
     Davidson diagonalization with overlap
     ethr =  3.64E-07,  avg # of iterations =  1.0

     total cpu time spent up to now is       29.3 secs

     total energy              =    -329.47238026 Ry
     Harris-Foulkes estimate   =    -329.47238948 Ry
     estimated scf accuracy    <       0.00003782 Ry

     iteration # 62     ecut=    30.00 Ry     beta=0.70
     Davidson diagonalization with overlap
     ethr =  6.88E-08,  avg # of iterations =  2.0

     total cpu time spent up to now is       29.7 secs

     total energy              =    -329.47238335 Ry
     Harris-Foulkes estimate   =    -329.47238655 Ry
     estimated scf accuracy    <       0.00001899 Ry

     iteration # 63     ecut=    30.00 Ry     beta=0.70
     Davidson diagonalization with overlap
     ethr =  3.45E-08,  avg # of iterations =  1.0

     total cpu time spent up to now is       30.1 secs

     total energy              =    -329.47238442 Ry
     Harris-Foulkes estimate   =    -329.47238479 Ry
     estimated scf accuracy    <       0.00000070 Ry

     iteration # 64     ecut=    30.00 Ry     beta=0.70
     Davidson diagonalization with overlap
     ethr =  1.28E-09,  avg # of iterations =  3.0

     total cpu time spent up to now is       30.7 secs

     total energy              =    -329.47238451 Ry
     Harris-Foulkes estimate   =    -329.47238487 Ry
     estimated scf accuracy    <       0.00000139 Ry

     iteration # 65     ecut=    30.00 Ry     beta=0.70
     Davidson diagonalization with overlap
     ethr =  1.28E-09,  avg # of iterations =  2.0

     total cpu time spent up to now is       31.1 secs

     total energy              =    -329.47238446 Ry
     Harris-Foulkes estimate   =    -329.47238462 Ry
     estimated scf accuracy    <       0.00000015 Ry

     iteration # 66     ecut=    30.00 Ry     beta=0.70
     Davidson diagonalization with overlap
     ethr =  2.81E-10,  avg # of iterations =  2.0

     total cpu time spent up to now is       31.4 secs

     End of self-consistent calculation

          k = 0.0000 0.0000 0.0000 ( 22119 PWs)   bands (ev):

    -8.0161  -7.5159  -7.3837  -7.1190  -6.7524  -6.5269  -6.4117  -6.2638
    -6.2217  -5.9587  -5.8062  -5.6201  -5.5722  -5.4036  -5.3752  -5.3681
    -5.3506  -5.2795  -5.1895  -5.1503  -5.0534  -4.9714  -4.6411  -4.5952
    -4.5692  -4.3765  -4.3749  -4.0444  -2.3981  -2.1830  -0.4293  -0.3549
     0.4797   0.7558

     the Fermi energy is    -4.0898 ev

!    total energy              =    -329.47238440 Ry
     Harris-Foulkes estimate   =    -329.47238448 Ry
     estimated scf accuracy    <          4.1E-09 Ry

     The total energy is the sum of the following terms:

     one-electron contribution =    -588.86537299 Ry
     hartree contribution      =     316.19005823 Ry
     xc contribution           =     -51.41136759 Ry
     ewald contribution        =      -5.40940120 Ry
     smearing contrib. (-TS)   =       0.02369915 Ry

     convergence has been achieved in  66 iterations

     Forces acting on atoms (Ry/au):

     atom    1 type  1   force =     0.01173587   -0.00027903    0.00835206
     atom    2 type  1   force =    -0.00582800   -0.00435333   -0.03116502
     atom    3 type  1   force =    -0.02213384    0.00827772    0.01746302
     atom    4 type  1   force =     0.02445813   -0.01608990   -0.01665153
     atom    5 type  1   force =    -0.00823216    0.01244454    0.02200147

     Total force =     0.062739     Total SCF correction =     0.000271

     BFGS Geometry Optimization

     number of scf cycles    =   1
     number of bfgs steps    =   0

     energy   new            =    -329.4723844014 Ry

     new trust radius        =       0.0336802357 bohr
     new conv_thr            =       0.0000000100 Ry


ATOMIC_POSITIONS (bohr)
Au      -2.051528134   3.232052970  -0.376508937
Au       0.125353002   3.583731670   4.277570983
Au       2.889971165   1.924013725   0.036459016
Au       4.683946126   3.472792099   6.453590470
Au       7.176886841   0.689325536   2.435830468



     Writing output data file pwscf.save
     Check: negative starting charge=   -0.006181
     NEW-OLD atomic charge density approx. for the potential
     Check: negative starting charge=   -0.006208

     negative rho (up, down):  3.448E-04 0.000E+00

     total cpu time spent up to now is       31.9 secs

     per-process dynamical memory:    50.7 Mb

     Self-consistent Calculation

     iteration #  1     ecut=    30.00 Ry     beta=0.70
     Davidson diagonalization with overlap
     ethr =  1.00E-06,  avg # of iterations =  4.0

     negative rho (up, down):  1.036E-05 0.000E+00

     total cpu time spent up to now is       32.7 secs

     total energy              =    -329.47560194 Ry
     Harris-Foulkes estimate   =    -329.47588906 Ry
     estimated scf accuracy    <       0.00081296 Ry

     iteration #  2     ecut=    30.00 Ry     beta=0.70
     Davidson diagonalization with overlap
     ethr =  1.48E-06,  avg # of iterations =  4.0

     negative rho (up, down):  7.874E-06 0.000E+00

     total cpu time spent up to now is       33.3 secs

     total energy              =    -329.47215144 Ry
     Harris-Foulkes estimate   =    -329.47863560 Ry
     estimated scf accuracy    <       0.05933529 Ry

     iteration #  3     ecut=    30.00 Ry     beta=0.70
     Davidson diagonalization with overlap
     ethr =  1.48E-06,  avg # of iterations =  3.0

     negative rho (up, down):  8.921E-07 0.000E+00

     total cpu time spent up to now is       33.8 secs

     total energy              =    -329.47597954 Ry
     Harris-Foulkes estimate   =    -329.47610226 Ry
     estimated scf accuracy    <       0.00068841 Ry

     iteration #  4     ecut=    30.00 Ry     beta=0.70
     Davidson diagonalization with overlap
     ethr =  1.25E-06,  avg # of iterations =  1.0

     negative rho (up, down):  1.078E-07 0.000E+00

     total cpu time spent up to now is       34.2 secs

     total energy              =    -329.47598836 Ry
     Harris-Foulkes estimate   =    -329.47607817 Ry
     estimated scf accuracy    <       0.00049267 Ry

     iteration #  5     ecut=    30.00 Ry     beta=0.70
     Davidson diagonalization with overlap
     ethr =  8.96E-07,  avg # of iterations =  1.0

     total cpu time spent up to now is       34.6 secs

     total energy              =    -329.47602401 Ry
     Harris-Foulkes estimate   =    -329.47605176 Ry
     estimated scf accuracy    <       0.00020157 Ry

     iteration #  6     ecut=    30.00 Ry     beta=0.70
     Davidson diagonalization with overlap
     ethr =  3.66E-07,  avg # of iterations =  1.0

     total cpu time spent up to now is       35.0 secs

     total energy              =    -329.47603454 Ry
     Harris-Foulkes estimate   =    -329.47603820 Ry
     estimated scf accuracy    <       0.00002763 Ry

     iteration #  7     ecut=    30.00 Ry     beta=0.70
     Davidson diagonalization with overlap
     ethr =  5.02E-08,  avg # of iterations =  1.0

     total cpu time spent up to now is       35.5 secs

     total energy              =    -329.47603583 Ry
     Harris-Foulkes estimate   =    -329.47603666 Ry
     estimated scf accuracy    <       0.00000474 Ry

     iteration #  8     ecut=    30.00 Ry     beta=0.70
     Davidson diagonalization with overlap
     ethr =  8.62E-09,  avg # of iterations =  3.0

     total cpu time spent up to now is       35.9 secs

     total energy              =    -329.47603644 Ry
     Harris-Foulkes estimate   =    -329.47603671 Ry
     estimated scf accuracy    <       0.00000046 Ry

     iteration #  9     ecut=    30.00 Ry     beta=0.70
     Davidson diagonalization with overlap
     ethr =  8.34E-10,  avg # of iterations =  2.0

     total cpu time spent up to now is       36.4 secs

     total energy              =    -329.47603637 Ry
     Harris-Foulkes estimate   =    -329.47603652 Ry
     estimated scf accuracy    <       0.00000034 Ry

     iteration # 10     ecut=    30.00 Ry     beta=0.70
     Davidson diagonalization with overlap
     ethr =  6.18E-10,  avg # of iterations =  2.0

     total cpu time spent up to now is       36.9 secs

     total energy              =    -329.47603638 Ry
     Harris-Foulkes estimate   =    -329.47603639 Ry
     estimated scf accuracy    <       0.00000003 Ry

     iteration # 11     ecut=    30.00 Ry     beta=0.70
     Davidson diagonalization with overlap
     ethr =  4.66E-11,  avg # of iterations =  2.0

     total cpu time spent up to now is       37.3 secs

     End of self-consistent calculation

          k = 0.0000 0.0000 0.0000 ( 22119 PWs)   bands (ev):

    -8.0610  -7.5029  -7.4182  -7.1574  -6.8023  -6.5407  -6.4132  -6.2938
    -6.2116  -5.9930  -5.8224  -5.6291  -5.5809  -5.4093  -5.3773  -5.3652
    -5.3568  -5.2848  -5.1862  -5.1474  -5.0619  -4.9781  -4.6252  -4.5818
    -4.5557  -4.3633  -4.3518  -4.0134  -2.3916  -2.1691  -0.4339  -0.3454
     0.4812   0.7578

     the Fermi energy is    -4.0648 ev

!    total energy              =    -329.47603635 Ry
     Harris-Foulkes estimate   =    -329.47603638 Ry
     estimated scf accuracy    <          4.2E-09 Ry

     The total energy is the sum of the following terms:

     one-electron contribution =    -591.34687919 Ry
     hartree contribution      =     317.42275162 Ry
     xc contribution           =     -51.41994641 Ry
     ewald contribution        =      -4.15571036 Ry
     smearing contrib. (-TS)   =       0.02374798 Ry

     convergence has been achieved in  11 iterations

     Forces acting on atoms (Ry/au):

     atom    1 type  1   force =     0.00693362    0.00042159    0.00473330
     atom    2 type  1   force =    -0.00205964   -0.00324684   -0.02462107
     atom    3 type  1   force =    -0.01733235    0.00616012    0.01601971
     atom    4 type  1   force =     0.02065171   -0.01592346   -0.01709541
     atom    5 type  1   force =    -0.00819334    0.01258859    0.02096348

     Total force =     0.054074     Total SCF correction =     0.000260

     number of scf cycles    =   2
     number of bfgs steps    =   1

     energy   old            =    -329.4723844014 Ry
     energy   new            =    -329.4760363535 Ry

     CASE: energy  _new < energy  _old


     WARNING: bfgs curvature condition failed, Theta= 0.937
     new trust radius        =       0.0370482593 bohr
     new conv_thr            =       0.0000000025 Ry


ATOMIC_POSITIONS (bohr)
Au      -2.042608015   3.232436897  -0.370365186
Au       0.122329447   3.579736941   4.247573411
Au       2.868822856   1.931595709   0.055527668
Au       4.708838964   3.454040452   6.433558100
Au       7.167245747   0.704106001   2.460648006



     Writing output data file pwscf.save
     Check: negative starting charge=   -0.006208
     NEW-OLD atomic charge density approx. for the potential
     Check: negative starting charge=   -0.006241

     negative rho (up, down):  3.692E-04 0.000E+00

     total cpu time spent up to now is       37.7 secs

     per-process dynamical memory:    50.7 Mb

     Self-consistent Calculation

     iteration #  1     ecut=    30.00 Ry     beta=0.70
     Davidson diagonalization with overlap
     ethr =  1.00E-06,  avg # of iterations =  4.0

     negative rho (up, down):  1.175E-05 0.000E+00

     total cpu time spent up to now is       38.6 secs

     total energy              =    -329.47875508 Ry
     Harris-Foulkes estimate   =    -329.47908290 Ry
     estimated scf accuracy    <       0.00089110 Ry

     iteration #  2     ecut=    30.00 Ry     beta=0.70
     Davidson diagonalization with overlap
     ethr =  1.62E-06,  avg # of iterations =  4.0

     negative rho (up, down):  9.045E-06 0.000E+00

     total cpu time spent up to now is       39.2 secs

     total energy              =    -329.47469720 Ry
     Harris-Foulkes estimate   =    -329.48225229 Ry
     estimated scf accuracy    <       0.06986926 Ry

     iteration #  3     ecut=    30.00 Ry     beta=0.70
     Davidson diagonalization with overlap
     ethr =  1.62E-06,  avg # of iterations =  3.0

     negative rho (up, down):  7.502E-07 0.000E+00

     total cpu time spent up to now is       39.7 secs

     total energy              =    -329.47921067 Ry
     Harris-Foulkes estimate   =    -329.47930460 Ry
     estimated scf accuracy    <       0.00062018 Ry

     iteration #  4     ecut=    30.00 Ry     beta=0.70
     Davidson diagonalization with overlap
     ethr =  1.13E-06,  avg # of iterations =  1.0

     negative rho (up, down):  1.605E-08 0.000E+00

     total cpu time spent up to now is       40.1 secs

     total energy              =    -329.47922580 Ry
     Harris-Foulkes estimate   =    -329.47926361 Ry
     estimated scf accuracy    <       0.00025316 Ry

     iteration #  5     ecut=    30.00 Ry     beta=0.70
     Davidson diagonalization with overlap
     ethr =  4.60E-07,  avg # of iterations =  1.0

     total cpu time spent up to now is       40.6 secs

     total energy              =    -329.47922572 Ry
     Harris-Foulkes estimate   =    -329.47926409 Ry
     estimated scf accuracy    <       0.00025003 Ry

     iteration #  6     ecut=    30.00 Ry     beta=0.70
     Davidson diagonalization with overlap
     ethr =  4.55E-07,  avg # of iterations =  1.0

     total cpu time spent up to now is       41.0 secs

     total energy              =    -329.47924174 Ry
     Harris-Foulkes estimate   =    -329.47924561 Ry
     estimated scf accuracy    <       0.00003231 Ry

     iteration #  7     ecut=    30.00 Ry     beta=0.70
     Davidson diagonalization with overlap
     ethr =  5.87E-08,  avg # of iterations =  1.0

     total cpu time spent up to now is       41.4 secs

     total energy              =    -329.47924258 Ry
     Harris-Foulkes estimate   =    -329.47924382 Ry
     estimated scf accuracy    <       0.00000630 Ry

     iteration #  8     ecut=    30.00 Ry     beta=0.70
     Davidson diagonalization with overlap
     ethr =  1.15E-08,  avg # of iterations =  2.0

     total cpu time spent up to now is       41.8 secs

     total energy              =    -329.47924336 Ry
     Harris-Foulkes estimate   =    -329.47924350 Ry
     estimated scf accuracy    <       0.00000049 Ry

     iteration #  9     ecut=    30.00 Ry     beta=0.70
     Davidson diagonalization with overlap
     ethr =  8.85E-10,  avg # of iterations =  3.0

     total cpu time spent up to now is       42.3 secs

     total energy              =    -329.47924346 Ry
     Harris-Foulkes estimate   =    -329.47924352 Ry
     estimated scf accuracy    <       0.00000065 Ry

     iteration # 10     ecut=    30.00 Ry     beta=0.70
     Davidson diagonalization with overlap
     ethr =  8.85E-10,  avg # of iterations =  1.0

     total cpu time spent up to now is       42.7 secs

     total energy              =    -329.47924353 Ry
     Harris-Foulkes estimate   =    -329.47924350 Ry
     estimated scf accuracy    <       0.00000009 Ry

     iteration # 11     ecut=    30.00 Ry     beta=0.70
     Davidson diagonalization with overlap
     ethr =  1.62E-10,  avg # of iterations =  2.0

     total cpu time spent up to now is       43.1 secs

     total energy              =    -329.47924354 Ry
     Harris-Foulkes estimate   =    -329.47924353 Ry
     estimated scf accuracy    <       0.00000001 Ry

     iteration # 12     ecut=    30.00 Ry     beta=0.70
     Davidson diagonalization with overlap
     ethr =  2.51E-11,  avg # of iterations =  2.0

     total cpu time spent up to now is       43.5 secs

     End of self-consistent calculation

          k = 0.0000 0.0000 0.0000 ( 22119 PWs)   bands (ev):

    -8.1095  -7.5006  -7.4487  -7.2011  -6.8666  -6.5598  -6.4188  -6.3263
    -6.2006  -6.0331  -5.8365  -5.6360  -5.5914  -5.4202  -5.3866  -5.3592
    -5.3488  -5.2873  -5.1807  -5.1443  -5.0689  -4.9811  -4.6081  -4.5681
    -4.5391  -4.3477  -4.3259  -3.9802  -2.3870  -2.1518  -0.4392  -0.3353
     0.4809   0.7607

     the Fermi energy is    -4.0368 ev

!    total energy              =    -329.47924352 Ry
     Harris-Foulkes estimate   =    -329.47924354 Ry
     estimated scf accuracy    <          8.0E-10 Ry

     The total energy is the sum of the following terms:

     one-electron contribution =    -594.02818166 Ry
     hartree contribution      =     318.75555324 Ry
     xc contribution           =     -51.43019339 Ry
     ewald contribution        =      -2.80019829 Ry
     smearing contrib. (-TS)   =       0.02377658 Ry

     convergence has been achieved in  12 iterations

     Forces acting on atoms (Ry/au):

     atom    1 type  1   force =     0.00231949    0.00102528    0.00098575
     atom    2 type  1   force =     0.00052460   -0.00190327   -0.01757392
     atom    3 type  1   force =    -0.01228352    0.00398157    0.01391354
     atom    4 type  1   force =     0.01698331   -0.01551629   -0.01658173
     atom    5 type  1   force =    -0.00754388    0.01241272    0.01925635

     Total force =     0.045458     Total SCF correction =     0.000106

     number of scf cycles    =   3
     number of bfgs steps    =   2

     energy   old            =    -329.4760363535 Ry
     energy   new            =    -329.4792435178 Ry

     CASE: energy  _new < energy  _old

     new trust radius        =       0.0555723889 bohr
     new conv_thr            =       0.0000000019 Ry


ATOMIC_POSITIONS (bohr)
Au      -2.034891775   3.233924874  -0.365899289
Au       0.121100516   3.575259145   4.209424047
Au       2.842035449   1.940666790   0.083195057
Au       4.743707501   3.424382573   6.402048011
Au       7.152677308   0.727682619   2.498174174



     Writing output data file pwscf.save
     Check: negative starting charge=   -0.006241
     NEW-OLD atomic charge density approx. for the potential
     Check: negative starting charge=   -0.006281

     negative rho (up, down):  7.064E-04 0.000E+00

     total cpu time spent up to now is       44.0 secs

     per-process dynamical memory:    50.7 Mb

     Self-consistent Calculation

     iteration #  1     ecut=    30.00 Ry     beta=0.70
     Davidson diagonalization with overlap
     ethr =  1.00E-06,  avg # of iterations =  9.0

     negative rho (up, down):  3.683E-05 0.000E+00

     total cpu time spent up to now is       45.0 secs

     total energy              =    -329.48198415 Ry
     Harris-Foulkes estimate   =    -329.48227473 Ry
     estimated scf accuracy    <       0.00151640 Ry

     iteration #  2     ecut=    30.00 Ry     beta=0.70
     Davidson diagonalization with overlap
     ethr =  2.76E-06,  avg # of iterations =  4.0

     negative rho (up, down):  2.971E-05 0.000E+00

     total cpu time spent up to now is       45.6 secs

     total energy              =    -329.47487899 Ry
     Harris-Foulkes estimate   =    -329.48757104 Ry
     estimated scf accuracy    <       0.11754253 Ry

     iteration #  3     ecut=    30.00 Ry     beta=0.70
     Davidson diagonalization with overlap
     ethr =  2.76E-06,  avg # of iterations =  4.0

     negative rho (up, down):  4.083E-06 0.000E+00

     total cpu time spent up to now is       46.2 secs

     total energy              =    -329.48273229 Ry
     Harris-Foulkes estimate   =    -329.48290232 Ry
     estimated scf accuracy    <       0.00114146 Ry

     iteration #  4     ecut=    30.00 Ry     beta=0.70
     Davidson diagonalization with overlap
     ethr =  2.08E-06,  avg # of iterations =  1.0

     negative rho (up, down):  3.596E-07 0.000E+00

     total cpu time spent up to now is       46.5 secs

     total energy              =    -329.48271695 Ry
     Harris-Foulkes estimate   =    -329.48285152 Ry
     estimated scf accuracy    <       0.00093149 Ry

     iteration #  5     ecut=    30.00 Ry     beta=0.70
     Davidson diagonalization with overlap
     ethr =  1.69E-06,  avg # of iterations =  1.0

     total cpu time spent up to now is       46.9 secs

     total energy              =    -329.48274885 Ry
     Harris-Foulkes estimate   =    -329.48282669 Ry
     estimated scf accuracy    <       0.00056940 Ry

     iteration #  6     ecut=    30.00 Ry     beta=0.70
     Davidson diagonalization with overlap
     ethr =  1.04E-06,  avg # of iterations =  1.0

     total cpu time spent up to now is       47.4 secs

     total energy              =    -329.48277260 Ry
     Harris-Foulkes estimate   =    -329.48278267 Ry
     estimated scf accuracy    <       0.00011973 Ry

     iteration #  7     ecut=    30.00 Ry     beta=0.70
     Davidson diagonalization with overlap
     ethr =  2.18E-07,  avg # of iterations =  1.0

     total cpu time spent up to now is       47.8 secs

     total energy              =    -329.48277199 Ry
     Harris-Foulkes estimate   =    -329.48277662 Ry
     estimated scf accuracy    <       0.00003982 Ry

     iteration #  8     ecut=    30.00 Ry     beta=0.70
     Davidson diagonalization with overlap
     ethr =  7.24E-08,  avg # of iterations =  1.0

     total cpu time spent up to now is       48.2 secs

     total energy              =    -329.48277394 Ry
     Harris-Foulkes estimate   =    -329.48277452 Ry
     estimated scf accuracy    <       0.00000310 Ry

     iteration #  9     ecut=    30.00 Ry     beta=0.70
     Davidson diagonalization with overlap
     ethr =  5.64E-09,  avg # of iterations =  3.0

     total cpu time spent up to now is       48.7 secs

     total energy              =    -329.48277470 Ry
     Harris-Foulkes estimate   =    -329.48277505 Ry
     estimated scf accuracy    <       0.00000257 Ry

     iteration # 10     ecut=    30.00 Ry     beta=0.70
     Davidson diagonalization with overlap
     ethr =  4.67E-09,  avg # of iterations =  1.0

     total cpu time spent up to now is       49.1 secs

     total energy              =    -329.48277486 Ry
     Harris-Foulkes estimate   =    -329.48277485 Ry
     estimated scf accuracy    <       0.00000033 Ry

     iteration # 11     ecut=    30.00 Ry     beta=0.70
     Davidson diagonalization with overlap
     ethr =  5.91E-10,  avg # of iterations =  2.0

     total cpu time spent up to now is       49.5 secs

     total energy              =    -329.48277484 Ry
     Harris-Foulkes estimate   =    -329.48277489 Ry
     estimated scf accuracy    <       0.00000003 Ry

     iteration # 12     ecut=    30.00 Ry     beta=0.70
     Davidson diagonalization with overlap
     ethr =  5.38E-11,  avg # of iterations =  3.0

     total cpu time spent up to now is       50.0 secs

     total energy              =    -329.48277485 Ry
     Harris-Foulkes estimate   =    -329.48277485 Ry
     estimated scf accuracy    <          2.0E-09 Ry

     iteration # 13     ecut=    30.00 Ry     beta=0.70
     Davidson diagonalization with overlap
     ethr =  3.61E-12,  avg # of iterations =  2.0

     total cpu time spent up to now is       50.5 secs

     End of self-consistent calculation

          k = 0.0000 0.0000 0.0000 ( 22119 PWs)   bands (ev):

    -8.1755  -7.5244  -7.4737  -7.2628  -6.9725  -6.5893  -6.4341  -6.3743
    -6.1863  -6.0965  -5.8497  -5.6435  -5.6068  -5.4371  -5.3962  -5.3513
    -5.3326  -5.2858  -5.1696  -5.1401  -5.0756  -4.9798  -4.5877  -4.5458
    -4.5117  -4.3213  -4.2893  -3.9319  -2.3840  -2.1244  -0.4473  -0.3205
     0.4773   0.7656

     the Fermi energy is    -3.9947 ev

!    total energy              =    -329.48277487 Ry
     Harris-Foulkes estimate   =    -329.48277485 Ry
     estimated scf accuracy    <          7.2E-10 Ry

     The total energy is the sum of the following terms:

     one-electron contribution =    -597.84190288 Ry
     hartree contribution      =     320.65147260 Ry
     xc contribution           =     -51.44592601 Ry
     ewald contribution        =      -0.87012013 Ry
     smearing contrib. (-TS)   =       0.02370154 Ry

     convergence has been achieved in  13 iterations

     Forces acting on atoms (Ry/au):

     atom    1 type  1   force =    -0.00328508    0.00156048   -0.00399211
     atom    2 type  1   force =     0.00247243    0.00001694   -0.00733913
     atom    3 type  1   force =    -0.00552091    0.00088894    0.00998584
     atom    4 type  1   force =     0.01213015   -0.01353257   -0.01418000
     atom    5 type  1   force =    -0.00579660    0.01106622    0.01552540

     Total force =     0.033891     Total SCF correction =     0.000104

     number of scf cycles    =   4
     number of bfgs steps    =   3

     energy   old            =    -329.4792435178 Ry
     energy   new            =    -329.4827748679 Ry

     CASE: energy  _new < energy  _old

     new trust radius        =       0.0833585833 bohr
     new conv_thr            =       0.0000000016 Ry


ATOMIC_POSITIONS (bohr)
Au      -2.031649216   3.237310575  -0.367090078
Au       0.122179004   3.571134603   4.163486215
Au       2.808972619   1.950448901   0.122513183
Au       4.793659182   3.378353046   6.353728598
Au       7.131467411   0.764668875   2.554304082



     Writing output data file pwscf.save
     Check: negative starting charge=   -0.006281
     NEW-OLD atomic charge density approx. for the potential
     Check: negative starting charge=   -0.006279

     negative rho (up, down):  1.294E-03 0.000E+00

     total cpu time spent up to now is       51.0 secs

     per-process dynamical memory:    50.7 Mb

     Self-consistent Calculation

     iteration #  1     ecut=    30.00 Ry     beta=0.70
     Davidson diagonalization with overlap
     ethr =  1.00E-06,  avg # of iterations = 10.0

     negative rho (up, down):  9.765E-05 0.000E+00

     total cpu time spent up to now is       52.1 secs

     total energy              =    -329.48476102 Ry
     Harris-Foulkes estimate   =    -329.48443246 Ry
     estimated scf accuracy    <       0.00210415 Ry

     iteration #  2     ecut=    30.00 Ry     beta=0.70
     Davidson diagonalization with overlap
     ethr =  3.83E-06,  avg # of iterations =  5.0

     negative rho (up, down):  7.721E-05 0.000E+00

     total cpu time spent up to now is       52.8 secs

     total energy              =    -329.47798914 Ry
     Harris-Foulkes estimate   =    -329.48963692 Ry
     estimated scf accuracy    <       0.08486055 Ry

     iteration #  3     ecut=    30.00 Ry     beta=0.70
     Davidson diagonalization with overlap
     ethr =  3.83E-06,  avg # of iterations =  4.0

     negative rho (up, down):  1.680E-05 0.000E+00

     total cpu time spent up to now is       53.3 secs

     total energy              =    -329.48565349 Ry
     Harris-Foulkes estimate   =    -329.48592854 Ry
     estimated scf accuracy    <       0.00149292 Ry

     iteration #  4     ecut=    30.00 Ry     beta=0.70
     Davidson diagonalization with overlap
     ethr =  2.71E-06,  avg # of iterations =  2.0

     negative rho (up, down):  1.176E-06 0.000E+00

     total cpu time spent up to now is       53.7 secs

     total energy              =    -329.48554596 Ry
     Harris-Foulkes estimate   =    -329.48589831 Ry
     estimated scf accuracy    <       0.00250578 Ry

     iteration #  5     ecut=    30.00 Ry     beta=0.70
     Davidson diagonalization with overlap
     ethr =  2.71E-06,  avg # of iterations =  1.0

     negative rho (up, down):  1.325E-08 0.000E+00

     total cpu time spent up to now is       54.1 secs

     total energy              =    -329.48563968 Ry
     Harris-Foulkes estimate   =    -329.48578692 Ry
     estimated scf accuracy    <       0.00107428 Ry

     iteration #  6     ecut=    30.00 Ry     beta=0.70
     Davidson diagonalization with overlap
     ethr =  1.95E-06,  avg # of iterations =  1.0

     total cpu time spent up to now is       54.5 secs

     total energy              =    -329.48565785 Ry
     Harris-Foulkes estimate   =    -329.48568388 Ry
     estimated scf accuracy    <       0.00039309 Ry

     iteration #  7     ecut=    30.00 Ry     beta=0.70
     Davidson diagonalization with overlap
     ethr =  7.15E-07,  avg # of iterations =  1.0

     total cpu time spent up to now is       54.9 secs

     total energy              =    -329.48564299 Ry
     Harris-Foulkes estimate   =    -329.48566434 Ry
     estimated scf accuracy    <       0.00019797 Ry

     iteration #  8     ecut=    30.00 Ry     beta=0.70
     Davidson diagonalization with overlap
     ethr =  3.60E-07,  avg # of iterations =  1.0

     total cpu time spent up to now is       55.3 secs

     total energy              =    -329.48564731 Ry
     Harris-Foulkes estimate   =    -329.48565257 Ry
     estimated scf accuracy    <       0.00002778 Ry

     iteration #  9     ecut=    30.00 Ry     beta=0.70
     Davidson diagonalization with overlap
     ethr =  5.05E-08,  avg # of iterations =  3.0

     total cpu time spent up to now is       55.8 secs

     total energy              =    -329.48565283 Ry
     Harris-Foulkes estimate   =    -329.48565476 Ry
     estimated scf accuracy    <       0.00001290 Ry

     iteration # 10     ecut=    30.00 Ry     beta=0.70
     Davidson diagonalization with overlap
     ethr =  2.35E-08,  avg # of iterations =  1.0

     total cpu time spent up to now is       56.2 secs

     total energy              =    -329.48565321 Ry
     Harris-Foulkes estimate   =    -329.48565368 Ry
     estimated scf accuracy    <       0.00000134 Ry

     iteration # 11     ecut=    30.00 Ry     beta=0.70
     Davidson diagonalization with overlap
     ethr =  2.44E-09,  avg # of iterations =  2.0

     total cpu time spent up to now is       56.6 secs

     total energy              =    -329.48565334 Ry
     Harris-Foulkes estimate   =    -329.48565343 Ry
     estimated scf accuracy    <       0.00000006 Ry

     iteration # 12     ecut=    30.00 Ry     beta=0.70
     Davidson diagonalization with overlap
     ethr =  1.14E-10,  avg # of iterations =  3.0

     total cpu time spent up to now is       57.2 secs

     total energy              =    -329.48565333 Ry
     Harris-Foulkes estimate   =    -329.48565336 Ry
     estimated scf accuracy    <       0.00000001 Ry

     iteration # 13     ecut=    30.00 Ry     beta=0.70
     Davidson diagonalization with overlap
     ethr =  1.97E-11,  avg # of iterations =  2.0

     total cpu time spent up to now is       57.6 secs

     End of self-consistent calculation

          k = 0.0000 0.0000 0.0000 ( 22119 PWs)   bands (ev):

    -8.2581  -7.5957  -7.5034  -7.3291  -7.1362  -6.6288  -6.4759  -6.4482
    -6.2053  -6.1587  -5.8526  -5.6573  -5.6235  -5.4602  -5.4023  -5.3427
    -5.3112  -5.2734  -5.1485  -5.1348  -5.0797  -4.9705  -4.5715  -4.5049
    -4.4693  -4.2789  -4.2393  -3.8618  -2.3859  -2.0830  -0.4593  -0.2985
     0.4666   0.7721

     the Fermi energy is    -3.9316 ev

!    total energy              =    -329.48565335 Ry
     Harris-Foulkes estimate   =    -329.48565334 Ry
     estimated scf accuracy    <          1.1E-09 Ry

     The total energy is the sum of the following terms:

     one-electron contribution =    -603.07980506 Ry
     hartree contribution      =     323.25680773 Ry
     xc contribution           =     -51.46983604 Ry
     ewald contribution        =       1.78385047 Ry
     smearing contrib. (-TS)   =       0.02332956 Ry

     convergence has been achieved in  13 iterations

     Forces acting on atoms (Ry/au):

     atom    1 type  1   force =    -0.00943814    0.00219429   -0.00967320
     atom    2 type  1   force =     0.00230738    0.00336739    0.00700507
     atom    3 type  1   force =     0.00355704   -0.00326696    0.00300970
     atom    4 type  1   force =     0.00518892   -0.00880087   -0.00785708
     atom    5 type  1   force =    -0.00161521    0.00650615    0.00751551

     Total force =     0.023518     Total SCF correction =     0.000144

     number of scf cycles    =   5
     number of bfgs steps    =   4

     energy   old            =    -329.4827748679 Ry
     energy   new            =    -329.4856533534 Ry

     CASE: energy  _new < energy  _old

     new trust radius        =       0.0540103326 bohr
     new conv_thr            =       0.0000000010 Ry


ATOMIC_POSITIONS (bohr)
Au      -2.039669304   3.241290893  -0.378004049
Au       0.123435664   3.573150191   4.148640274
Au       2.796261458   1.951707027   0.144510501
Au       4.824494320   3.346734893   6.322638363
Au       7.120106862   0.789032997   2.589156911



     Writing output data file pwscf.save
     Check: negative starting charge=   -0.006279
     NEW-OLD atomic charge density approx. for the potential
     Check: negative starting charge=   -0.006255

     negative rho (up, down):  5.511E-04 0.000E+00

     total cpu time spent up to now is       58.1 secs

     per-process dynamical memory:    50.7 Mb

     Self-consistent Calculation

     iteration #  1     ecut=    30.00 Ry     beta=0.70
     Davidson diagonalization with overlap
     ethr =  1.00E-06,  avg # of iterations =  5.0

     negative rho (up, down):  2.384E-05 0.000E+00

     total cpu time spent up to now is       58.9 secs

     total energy              =    -329.48586158 Ry
     Harris-Foulkes estimate   =    -329.48603428 Ry
     estimated scf accuracy    <       0.00098375 Ry

     iteration #  2     ecut=    30.00 Ry     beta=0.70
     Davidson diagonalization with overlap
     ethr =  1.79E-06,  avg # of iterations =  4.0

     negative rho (up, down):  1.697E-05 0.000E+00

     total cpu time spent up to now is       59.5 secs

     total energy              =    -329.48307535 Ry
     Harris-Foulkes estimate   =    -329.48850211 Ry
     estimated scf accuracy    <       0.03595474 Ry

     iteration #  3     ecut=    30.00 Ry     beta=0.70
     Davidson diagonalization with overlap
     ethr =  1.79E-06,  avg # of iterations =  3.0

     negative rho (up, down):  4.427E-06 0.000E+00

     total cpu time spent up to now is       60.1 secs

     total energy              =    -329.48630545 Ry
     Harris-Foulkes estimate   =    -329.48645388 Ry
     estimated scf accuracy    <       0.00071299 Ry

     iteration #  4     ecut=    30.00 Ry     beta=0.70
     Davidson diagonalization with overlap
     ethr =  1.30E-06,  avg # of iterations =  1.0

     negative rho (up, down):  8.230E-08 0.000E+00

     total cpu time spent up to now is       60.5 secs

     total energy              =    -329.48629788 Ry
     Harris-Foulkes estimate   =    -329.48641262 Ry
     estimated scf accuracy    <       0.00074813 Ry

     iteration #  5     ecut=    30.00 Ry     beta=0.70
     Davidson diagonalization with overlap
     ethr =  1.30E-06,  avg # of iterations =  1.0

     total cpu time spent up to now is       60.9 secs

     total energy              =    -329.48633748 Ry
     Harris-Foulkes estimate   =    -329.48636694 Ry
     estimated scf accuracy    <       0.00017524 Ry

     iteration #  6     ecut=    30.00 Ry     beta=0.70
     Davidson diagonalization with overlap
     ethr =  3.19E-07,  avg # of iterations =  1.0

     total cpu time spent up to now is       61.3 secs

     total energy              =    -329.48634782 Ry
     Harris-Foulkes estimate   =    -329.48634988 Ry
     estimated scf accuracy    <       0.00002296 Ry

     iteration #  7     ecut=    30.00 Ry     beta=0.70
     Davidson diagonalization with overlap
     ethr =  4.18E-08,  avg # of iterations =  3.0

     total cpu time spent up to now is       61.8 secs

     total energy              =    -329.48635077 Ry
     Harris-Foulkes estimate   =    -329.48635071 Ry
     estimated scf accuracy    <       0.00000354 Ry

     iteration #  8     ecut=    30.00 Ry     beta=0.70
     Davidson diagonalization with overlap
     ethr =  6.43E-09,  avg # of iterations =  2.0

     total cpu time spent up to now is       62.2 secs

     total energy              =    -329.48635081 Ry
     Harris-Foulkes estimate   =    -329.48635210 Ry
     estimated scf accuracy    <       0.00000618 Ry

     iteration #  9     ecut=    30.00 Ry     beta=0.70
     Davidson diagonalization with overlap
     ethr =  6.43E-09,  avg # of iterations =  1.0

     total cpu time spent up to now is       62.6 secs

     total energy              =    -329.48635102 Ry
     Harris-Foulkes estimate   =    -329.48635128 Ry
     estimated scf accuracy    <       0.00000058 Ry

     iteration # 10     ecut=    30.00 Ry     beta=0.70
     Davidson diagonalization with overlap
     ethr =  1.06E-09,  avg # of iterations =  2.0

     total cpu time spent up to now is       63.0 secs

     total energy              =    -329.48635103 Ry
     Harris-Foulkes estimate   =    -329.48635112 Ry
     estimated scf accuracy    <       0.00000002 Ry

     iteration # 11     ecut=    30.00 Ry     beta=0.70
     Davidson diagonalization with overlap
     ethr =  4.31E-11,  avg # of iterations =  2.0

     total cpu time spent up to now is       63.6 secs

     total energy              =    -329.48635110 Ry
     Harris-Foulkes estimate   =    -329.48635104 Ry
     estimated scf accuracy    <          6.8E-09 Ry

     iteration # 12     ecut=    30.00 Ry     beta=0.70
     Davidson diagonalization with overlap
     ethr =  1.24E-11,  avg # of iterations =  2.0

     total cpu time spent up to now is       64.1 secs

     total energy              =    -329.48635108 Ry
     Harris-Foulkes estimate   =    -329.48635110 Ry
     estimated scf accuracy    <          1.2E-09 Ry

     iteration # 13     ecut=    30.00 Ry     beta=0.70
     Davidson diagonalization with overlap
     ethr =  2.25E-12,  avg # of iterations =  2.0

     total cpu time spent up to now is       64.6 secs

     End of self-consistent calculation

          k = 0.0000 0.0000 0.0000 ( 22119 PWs)   bands (ev):

    -8.2763  -7.6513  -7.5261  -7.3402  -7.2295  -6.6364  -6.5206  -6.4901
    -6.2620  -6.1482  -5.8430  -5.6703  -5.6230  -5.4690  -5.3969  -5.3372
    -5.3027  -5.2596  -5.1368  -5.1263  -5.0771  -4.9557  -4.5640  -4.4803
    -4.4447  -4.2526  -4.2151  -3.8230  -2.3950  -2.0590  -0.4663  -0.2867
     0.4542   0.7763

     the Fermi energy is    -3.8967 ev

!    total energy              =    -329.48635110 Ry
     Harris-Foulkes estimate   =    -329.48635108 Ry
     estimated scf accuracy    <          1.1E-10 Ry

     The total energy is the sum of the following terms:

     one-electron contribution =    -605.44242759 Ry
     hartree contribution      =     324.43508176 Ry
     xc contribution           =     -51.48199154 Ry
     ewald contribution        =       2.97984732 Ry
     smearing contrib. (-TS)   =       0.02313895 Ry

     convergence has been achieved in  13 iterations

     Forces acting on atoms (Ry/au):

     atom    1 type  1   force =    -0.00925217    0.00208802   -0.01013028
     atom    2 type  1   force =     0.00054433    0.00488426    0.01140278
     atom    3 type  1   force =     0.00594307   -0.00459185   -0.00090395
     atom    4 type  1   force =    -0.00007656   -0.00386439   -0.00123776
     atom    5 type  1   force =     0.00284134    0.00148397    0.00086922

     Total force =     0.020772     Total SCF correction =     0.000053

     number of scf cycles    =   6
     number of bfgs steps    =   5

     energy   old            =    -329.4856533534 Ry
     energy   new            =    -329.4863511020 Ry

     CASE: energy  _new < energy  _old

     new trust radius        =       0.0164830352 bohr
     new conv_thr            =       0.0000000007 Ry


ATOMIC_POSITIONS (bohr)
Au      -2.050248867   3.244118814  -0.390323389
Au       0.123258901   3.578768069   4.157713266
Au       2.799843435   1.947194404   0.147244517
Au       4.830219566   3.337411041   6.316508163
Au       7.121555966   0.794423671   2.595799443



     Writing output data file pwscf.save
     Check: negative starting charge=   -0.006255
     NEW-OLD atomic charge density approx. for the potential
     Check: negative starting charge=   -0.006244

     negative rho (up, down):  3.841E-05 0.000E+00

     total cpu time spent up to now is       65.1 secs

     per-process dynamical memory:    50.7 Mb

     Self-consistent Calculation

     iteration #  1     ecut=    30.00 Ry     beta=0.70
     Davidson diagonalization with overlap
     ethr =  1.00E-06,  avg # of iterations =  4.0

     negative rho (up, down):  1.434E-07 0.000E+00

     total cpu time spent up to now is       65.9 secs

     total energy              =    -329.48663879 Ry
     Harris-Foulkes estimate   =    -329.48672148 Ry
     estimated scf accuracy    <       0.00014896 Ry

     iteration #  2     ecut=    30.00 Ry     beta=0.70
     Davidson diagonalization with overlap
     ethr =  2.71E-07,  avg # of iterations =  3.0

     negative rho (up, down):  7.444E-08 0.000E+00

     total cpu time spent up to now is       66.4 secs

     total energy              =    -329.48635774 Ry
     Harris-Foulkes estimate   =    -329.48706344 Ry
     estimated scf accuracy    <       0.00418019 Ry

     iteration #  3     ecut=    30.00 Ry     beta=0.70
     Davidson diagonalization with overlap
     ethr =  2.71E-07,  avg # of iterations =  3.0

     total cpu time spent up to now is       66.9 secs

     total energy              =    -329.48671375 Ry
     Harris-Foulkes estimate   =    -329.48672995 Ry
     estimated scf accuracy    <       0.00005429 Ry

     iteration #  4     ecut=    30.00 Ry     beta=0.70
     Davidson diagonalization with overlap
     ethr =  9.87E-08,  avg # of iterations =  2.0

     total cpu time spent up to now is       67.3 secs

     total energy              =    -329.48671882 Ry
     Harris-Foulkes estimate   =    -329.48673272 Ry
     estimated scf accuracy    <       0.00008091 Ry

     iteration #  5     ecut=    30.00 Ry     beta=0.70
     Davidson diagonalization with overlap
     ethr =  9.87E-08,  avg # of iterations =  1.0

     total cpu time spent up to now is       67.6 secs

     total energy              =    -329.48672686 Ry
     Harris-Foulkes estimate   =    -329.48672679 Ry
     estimated scf accuracy    <       0.00000238 Ry

     iteration #  6     ecut=    30.00 Ry     beta=0.70
     Davidson diagonalization with overlap
     ethr =  4.33E-09,  avg # of iterations =  2.0

     total cpu time spent up to now is       68.1 secs

     total energy              =    -329.48672742 Ry
     Harris-Foulkes estimate   =    -329.48672769 Ry
     estimated scf accuracy    <       0.00000123 Ry

     iteration #  7     ecut=    30.00 Ry     beta=0.70
     Davidson diagonalization with overlap
     ethr =  2.23E-09,  avg # of iterations =  2.0

     total cpu time spent up to now is       68.5 secs

     total energy              =    -329.48672759 Ry
     Harris-Foulkes estimate   =    -329.48672759 Ry
     estimated scf accuracy    <       0.00000026 Ry

     iteration #  8     ecut=    30.00 Ry     beta=0.70
     Davidson diagonalization with overlap
     ethr =  4.80E-10,  avg # of iterations =  2.0

     total cpu time spent up to now is       68.9 secs

     total energy              =    -329.48672770 Ry
     Harris-Foulkes estimate   =    -329.48672763 Ry
     estimated scf accuracy    <       0.00000002 Ry

     iteration #  9     ecut=    30.00 Ry     beta=0.70
     Davidson diagonalization with overlap
     ethr =  3.49E-11,  avg # of iterations =  2.0

     total cpu time spent up to now is       69.5 secs

     total energy              =    -329.48672774 Ry
     Harris-Foulkes estimate   =    -329.48672770 Ry
     estimated scf accuracy    <          2.3E-09 Ry

     iteration # 10     ecut=    30.00 Ry     beta=0.70
     Davidson diagonalization with overlap
     ethr =  4.18E-12,  avg # of iterations =  2.0

     total cpu time spent up to now is       69.9 secs

     End of self-consistent calculation

          k = 0.0000 0.0000 0.0000 ( 22119 PWs)   bands (ev):

    -8.2477  -7.6540  -7.5218  -7.3317  -7.2370  -6.6206  -6.5287  -6.4926
    -6.2684  -6.1423  -5.8365  -5.6724  -5.6157  -5.4652  -5.3878  -5.3326
    -5.3041  -5.2567  -5.1342  -5.1238  -5.0741  -4.9438  -4.5609  -4.4781
    -4.4431  -4.2481  -4.2172  -3.8211  -2.4040  -2.0577  -0.4671  -0.2873
     0.4466   0.7784

     the Fermi energy is    -3.8957 ev

!    total energy              =    -329.48672775 Ry
     Harris-Foulkes estimate   =    -329.48672774 Ry
     estimated scf accuracy    <          4.7E-10 Ry

     The total energy is the sum of the following terms:

     one-electron contribution =    -604.90337682 Ry
     hartree contribution      =     324.17111109 Ry
     xc contribution           =     -51.48000856 Ry
     ewald contribution        =       2.70227093 Ry
     smearing contrib. (-TS)   =       0.02327560 Ry

     convergence has been achieved in  10 iterations

     Forces acting on atoms (Ry/au):

     atom    1 type  1   force =    -0.00563033    0.00158184   -0.00721741
     atom    2 type  1   force =    -0.00042249    0.00421385    0.00754713
     atom    3 type  1   force =     0.00270761   -0.00339538   -0.00032853
     atom    4 type  1   force =    -0.00077707   -0.00261718    0.00035497
     atom    5 type  1   force =     0.00412228    0.00021687   -0.00035616

     Total force =     0.014314     Total SCF correction =     0.000077

     number of scf cycles    =   7
     number of bfgs steps    =   6

     energy   old            =    -329.4863511020 Ry
     energy   new            =    -329.4867277506 Ry

     CASE: energy  _new < energy  _old

     new trust radius        =       0.0181313387 bohr
     new conv_thr            =       0.0000000004 Ry


ATOMIC_POSITIONS (bohr)
Au      -2.061204054   3.247304448  -0.404415268
Au       0.121998072   3.586566467   4.170170781
Au       2.803755076   1.941192168   0.148435946
Au       4.832358672   3.329790942   6.314316890
Au       7.127721234   0.797061975   2.598433651



     Writing output data file pwscf.save
     Check: negative starting charge=   -0.006244
     NEW-OLD atomic charge density approx. for the potential
     Check: negative starting charge=   -0.006234

     negative rho (up, down):  4.343E-05 0.000E+00

     total cpu time spent up to now is       70.4 secs

     per-process dynamical memory:    50.7 Mb

     Self-consistent Calculation

     iteration #  1     ecut=    30.00 Ry     beta=0.70
     Davidson diagonalization with overlap
     ethr =  1.00E-06,  avg # of iterations =  4.0

     negative rho (up, down):  1.857E-07 0.000E+00

     total cpu time spent up to now is       71.1 secs

     total energy              =    -329.48695223 Ry
     Harris-Foulkes estimate   =    -329.48699682 Ry
     estimated scf accuracy    <       0.00010641 Ry

     iteration #  2     ecut=    30.00 Ry     beta=0.70
     Davidson diagonalization with overlap
     ethr =  1.93E-07,  avg # of iterations =  3.0

     negative rho (up, down):  8.769E-08 0.000E+00

     total cpu time spent up to now is       71.7 secs

     total energy              =    -329.48681562 Ry
     Harris-Foulkes estimate   =    -329.48716750 Ry
     estimated scf accuracy    <       0.00184881 Ry

     iteration #  3     ecut=    30.00 Ry     beta=0.70
     Davidson diagonalization with overlap
     ethr =  1.93E-07,  avg # of iterations =  3.0

     total cpu time spent up to now is       72.1 secs

     total energy              =    -329.48699501 Ry
     Harris-Foulkes estimate   =    -329.48701161 Ry
     estimated scf accuracy    <       0.00006668 Ry

     iteration #  4     ecut=    30.00 Ry     beta=0.70
     Davidson diagonalization with overlap
     ethr =  1.21E-07,  avg # of iterations =  2.0

     total cpu time spent up to now is       72.5 secs

     total energy              =    -329.48700058 Ry
     Harris-Foulkes estimate   =    -329.48701153 Ry
     estimated scf accuracy    <       0.00006379 Ry

     iteration #  5     ecut=    30.00 Ry     beta=0.70
     Davidson diagonalization with overlap
     ethr =  1.16E-07,  avg # of iterations =  1.0

     total cpu time spent up to now is       72.9 secs

     total energy              =    -329.48700714 Ry
     Harris-Foulkes estimate   =    -329.48700754 Ry
     estimated scf accuracy    <       0.00000421 Ry

     iteration #  6     ecut=    30.00 Ry     beta=0.70
     Davidson diagonalization with overlap
     ethr =  7.66E-09,  avg # of iterations =  2.0

     total cpu time spent up to now is       73.3 secs

     total energy              =    -329.48700820 Ry
     Harris-Foulkes estimate   =    -329.48700810 Ry
     estimated scf accuracy    <       0.00000075 Ry

     iteration #  7     ecut=    30.00 Ry     beta=0.70
     Davidson diagonalization with overlap
     ethr =  1.37E-09,  avg # of iterations =  2.0

     total cpu time spent up to now is       73.7 secs

     total energy              =    -329.48700849 Ry
     Harris-Foulkes estimate   =    -329.48700835 Ry
     estimated scf accuracy    <       0.00000007 Ry

     iteration #  8     ecut=    30.00 Ry     beta=0.70
     Davidson diagonalization with overlap
     ethr =  1.30E-10,  avg # of iterations =  2.0

     total cpu time spent up to now is       74.2 secs

     total energy              =    -329.48700844 Ry
     Harris-Foulkes estimate   =    -329.48700851 Ry
     estimated scf accuracy    <       0.00000002 Ry

     iteration #  9     ecut=    30.00 Ry     beta=0.70
     Davidson diagonalization with overlap
     ethr =  4.34E-11,  avg # of iterations =  2.0

     total cpu time spent up to now is       74.6 secs

     total energy              =    -329.48700839 Ry
     Harris-Foulkes estimate   =    -329.48700844 Ry
     estimated scf accuracy    <          5.8E-09 Ry

     iteration # 10     ecut=    30.00 Ry     beta=0.70
     Davidson diagonalization with overlap
     ethr =  1.06E-11,  avg # of iterations =  2.0

     total cpu time spent up to now is       75.0 secs

     total energy              =    -329.48700837 Ry
     Harris-Foulkes estimate   =    -329.48700839 Ry
     estimated scf accuracy    <          4.9E-10 Ry

     iteration # 11     ecut=    30.00 Ry     beta=0.70
     Davidson diagonalization with overlap
     ethr =  8.95E-13,  avg # of iterations =  3.0

     total cpu time spent up to now is       75.6 secs

     End of self-consistent calculation

          k = 0.0000 0.0000 0.0000 ( 22119 PWs)   bands (ev):

    -8.2136  -7.6458  -7.5108  -7.3212  -7.2304  -6.6028  -6.5281  -6.4874
    -6.2659  -6.1355  -5.8294  -5.6720  -5.6073  -5.4605  -5.3783  -5.3283
    -5.3063  -5.2541  -5.1326  -5.1228  -5.0723  -4.9312  -4.5585  -4.4789
    -4.4450  -4.2470  -4.2229  -3.8242  -2.4134  -2.0606  -0.4667  -0.2894
     0.4394   0.7802

     the Fermi energy is    -3.8995 ev

!    total energy              =    -329.48700837 Ry
     Harris-Foulkes estimate   =    -329.48700837 Ry
     estimated scf accuracy    <          2.2E-10 Ry

     The total energy is the sum of the following terms:

     one-electron contribution =    -603.84836390 Ry
     hartree contribution      =     323.65156625 Ry
     xc contribution           =     -51.47584085 Ry
     ewald contribution        =       2.16215355 Ry
     smearing contrib. (-TS)   =       0.02347658 Ry

     convergence has been achieved in  11 iterations

     Forces acting on atoms (Ry/au):

     atom    1 type  1   force =    -0.00187064    0.00109363   -0.00406815
     atom    2 type  1   force =    -0.00119358    0.00322758    0.00283941
     atom    3 type  1   force =    -0.00060958   -0.00199249    0.00102545
     atom    4 type  1   force =    -0.00083742   -0.00209738    0.00097587
     atom    5 type  1   force =     0.00451122   -0.00023135   -0.00077258

     Total force =     0.008579     Total SCF correction =     0.000046

     number of scf cycles    =   8
     number of bfgs steps    =   7

     energy   old            =    -329.4867277506 Ry
     energy   new            =    -329.4870083678 Ry

     CASE: energy  _new < energy  _old

     new trust radius        =       0.0226526558 bohr
     new conv_thr            =       0.0000000003 Ry


ATOMIC_POSITIONS (bohr)
Au      -2.073213340   3.251950341  -0.423052208
Au       0.118741782   3.598416698   4.183440014
Au       2.804577952   1.933200848   0.152835514
Au       4.834796999   3.317981842   6.312265420
Au       7.139725607   0.800366271   2.601453261



     Writing output data file pwscf.save
     Check: negative starting charge=   -0.006234
     NEW-OLD atomic charge density approx. for the potential
     Check: negative starting charge=   -0.006219

     negative rho (up, down):  9.522E-05 0.000E+00

     total cpu time spent up to now is       76.0 secs

     per-process dynamical memory:    50.7 Mb

     Self-consistent Calculation

     iteration #  1     ecut=    30.00 Ry     beta=0.70
     Davidson diagonalization with overlap
     ethr =  1.00E-06,  avg # of iterations =  4.0

[...]
     atom    3 type  1   force =     0.00364857   -0.00104018    0.00133020
     atom    4 type  1   force =    -0.00582044    0.00407418    0.00782261
     atom    5 type  1   force =     0.01075693   -0.00618140   -0.00739098

     Total force =     0.023603     Total SCF correction =     0.000138

     number of scf cycles    =  47
     number of bfgs steps    =  26

     energy   old            =    -329.4940084976 Ry
     energy   new            =    -329.4904993001 Ry

     CASE: energy  _new > energy  _old

     new trust radius        =       0.0014635094 bohr
     new conv_thr            =       0.0000000017 Ry


ATOMIC_POSITIONS (bohr)
Au      -1.822133159   3.312447740  -0.492097870
Au      -0.156711638   3.993646014   4.268023710
Au       2.859804288   1.807220292   0.583078164
Au       4.561956804   3.009148043   5.978333484
Au       7.381712705   0.779453910   2.489604511



     Writing output data file pwscf.save
     Check: negative starting charge=   -0.006326
     NEW-OLD atomic charge density approx. for the potential
     Check: negative starting charge=   -0.006338

     negative rho (up, down):  2.555E-05 0.000E+00

     total cpu time spent up to now is      298.4 secs

     per-process dynamical memory:    50.7 Mb

     Self-consistent Calculation

     iteration #  1     ecut=    30.00 Ry     beta=0.70
     Davidson diagonalization with overlap
     ethr =  1.00E-06,  avg # of iterations =  4.0

     Threshold (ethr) on eigenvalues was too large:
     Diagonalizing with lowered threshold

     Davidson diagonalization with overlap
     ethr =  5.47E-08,  avg # of iterations =  1.0

     negative rho (up, down):  5.498E-08 0.000E+00

     total cpu time spent up to now is      299.1 secs

     total energy              =    -329.49008744 Ry
     Harris-Foulkes estimate   =    -329.49008435 Ry
     estimated scf accuracy    <       0.00003033 Ry

     iteration #  2     ecut=    30.00 Ry     beta=0.70
     Davidson diagonalization with overlap
     ethr =  5.51E-08,  avg # of iterations =  3.0

     total cpu time spent up to now is      299.4 secs

     total energy              =    -329.49008303 Ry
     Harris-Foulkes estimate   =    -329.49011235 Ry
     estimated scf accuracy    <       0.00007497 Ry

     iteration #  3     ecut=    30.00 Ry     beta=0.70
     Davidson diagonalization with overlap
     ethr =  5.51E-08,  avg # of iterations =  2.0

     total cpu time spent up to now is      299.7 secs

     total energy              =    -329.49009863 Ry
     Harris-Foulkes estimate   =    -329.49010107 Ry
     estimated scf accuracy    <       0.00000932 Ry

     iteration #  4     ecut=    30.00 Ry     beta=0.70
     Davidson diagonalization with overlap
     ethr =  1.69E-08,  avg # of iterations =  2.0

     total cpu time spent up to now is      299.9 secs

     total energy              =    -329.49009983 Ry
     Harris-Foulkes estimate   =    -329.49010082 Ry
     estimated scf accuracy    <       0.00000159 Ry

     iteration #  5     ecut=    30.00 Ry     beta=0.70
     Davidson diagonalization with overlap
     ethr =  2.90E-09,  avg # of iterations =  3.0

     total cpu time spent up to now is      300.3 secs

     total energy              =    -329.49010009 Ry
     Harris-Foulkes estimate   =    -329.49010037 Ry
     estimated scf accuracy    <       0.00000052 Ry

     iteration #  6     ecut=    30.00 Ry     beta=0.70
     Davidson diagonalization with overlap
     ethr =  9.42E-10,  avg # of iterations =  2.0

     total cpu time spent up to now is      300.5 secs

     total energy              =    -329.49010017 Ry
     Harris-Foulkes estimate   =    -329.49010020 Ry
     estimated scf accuracy    <       0.00000003 Ry

     iteration #  7     ecut=    30.00 Ry     beta=0.70
     Davidson diagonalization with overlap
     ethr =  5.77E-11,  avg # of iterations =  3.0

     total cpu time spent up to now is      300.8 secs

     total energy              =    -329.49010012 Ry
     Harris-Foulkes estimate   =    -329.49010018 Ry
     estimated scf accuracy    <          5.2E-09 Ry

     iteration #  8     ecut=    30.00 Ry     beta=0.70
     Davidson diagonalization with overlap
     ethr =  9.40E-12,  avg # of iterations =  2.0

     total cpu time spent up to now is      301.1 secs

     End of self-consistent calculation

          k = 0.0000 0.0000 0.0000 ( 22119 PWs)   bands (ev):

    -8.5413  -7.8568  -7.7138  -7.3310  -7.1149  -6.8438  -6.7105  -6.5502
    -6.3666  -6.0847  -6.0412  -5.7644  -5.7347  -5.6941  -5.4072  -5.3714
    -5.3478  -5.2458  -5.2068  -5.1899  -5.1672  -5.1304  -4.9921  -4.9372
    -4.8790  -4.5884  -4.4693  -3.7470  -2.4665  -2.0924  -0.5455  -0.2299
     0.4646   0.7655

     the Fermi energy is    -3.7150 ev

!    total energy              =    -329.49010007 Ry
     Harris-Foulkes estimate   =    -329.49010012 Ry
     estimated scf accuracy    <          8.8E-10 Ry

     The total energy is the sum of the following terms:

     one-electron contribution =    -612.16544454 Ry
     hartree contribution      =     327.47541121 Ry
     xc contribution           =     -51.42459082 Ry
     ewald contribution        =       6.62862768 Ry
     smearing contrib. (-TS)   =      -0.00410360 Ry

     convergence has been achieved in   8 iterations

     Forces acting on atoms (Ry/au):

     atom    1 type  1   force =    -0.00764946    0.00019158   -0.01072449
     atom    2 type  1   force =    -0.00301686    0.00361040    0.00835940
     atom    3 type  1   force =     0.00223591   -0.00095684    0.00028307
     atom    4 type  1   force =    -0.00526057    0.00460935    0.00987564
     atom    5 type  1   force =     0.01369098   -0.00745449   -0.00779361

     Total force =     0.026866     Total SCF correction =     0.000136

     number of scf cycles    =  48
     number of bfgs steps    =  26

     energy   old            =    -329.4940084976 Ry
     energy   new            =    -329.4901000736 Ry

     CASE: energy  _new > energy  _old

     new trust radius        =       0.0000096360 bohr

     trust_radius < trust_radius_min

     resetting bfgs history

     new conv_thr            =       0.0000000017 Ry


ATOMIC_POSITIONS (bohr)
Au      -1.827416177   3.313295291  -0.498607542
Au      -0.168203856   3.997680006   4.269214091
Au       2.857031588   1.809237725   0.586694711
Au       4.565724486   3.008557754   5.981284004
Au       7.397492960   0.773145225   2.488356737



     Writing output data file pwscf.save
     Check: negative starting charge=   -0.006338
     NEW-OLD atomic charge density approx. for the potential
     Check: negative starting charge=   -0.006326

     negative rho (up, down):  2.603E-05 0.000E+00

     total cpu time spent up to now is      301.4 secs

     per-process dynamical memory:    50.7 Mb

     Self-consistent Calculation

     iteration #  1     ecut=    30.00 Ry     beta=0.70
     Davidson diagonalization with overlap
     ethr =  1.00E-06,  avg # of iterations =  4.0

     Threshold (ethr) on eigenvalues was too large:
     Diagonalizing with lowered threshold

     Davidson diagonalization with overlap
     ethr =  5.36E-08,  avg # of iterations =  1.0

     negative rho (up, down):  5.181E-08 0.000E+00

     total cpu time spent up to now is      302.1 secs

     total energy              =    -329.49048401 Ry
     Harris-Foulkes estimate   =    -329.49047900 Ry
     estimated scf accuracy    <       0.00002998 Ry

     iteration #  2     ecut=    30.00 Ry     beta=0.70
     Davidson diagonalization with overlap
     ethr =  5.45E-08,  avg # of iterations =  3.0

     total cpu time spent up to now is      302.4 secs

     total energy              =    -329.49048062 Ry
     Harris-Foulkes estimate   =    -329.49050840 Ry
     estimated scf accuracy    <       0.00007279 Ry

     iteration #  3     ecut=    30.00 Ry     beta=0.70
     Davidson diagonalization with overlap
     ethr =  5.45E-08,  avg # of iterations =  2.0

     total cpu time spent up to now is      302.7 secs

     total energy              =    -329.49049663 Ry
     Harris-Foulkes estimate   =    -329.49049840 Ry
     estimated scf accuracy    <       0.00000939 Ry

     iteration #  4     ecut=    30.00 Ry     beta=0.70
     Davidson diagonalization with overlap
     ethr =  1.71E-08,  avg # of iterations =  2.0

     total cpu time spent up to now is      302.9 secs

     total energy              =    -329.49049866 Ry
     Harris-Foulkes estimate   =    -329.49049880 Ry
     estimated scf accuracy    <       0.00000152 Ry

     iteration #  5     ecut=    30.00 Ry     beta=0.70
     Davidson diagonalization with overlap
     ethr =  2.76E-09,  avg # of iterations =  3.0

     total cpu time spent up to now is      303.2 secs

     total energy              =    -329.49049912 Ry
     Harris-Foulkes estimate   =    -329.49049919 Ry
     estimated scf accuracy    <       0.00000051 Ry

     iteration #  6     ecut=    30.00 Ry     beta=0.70
     Davidson diagonalization with overlap
     ethr =  9.22E-10,  avg # of iterations =  2.0

     total cpu time spent up to now is      303.5 secs

     total energy              =    -329.49049924 Ry
     Harris-Foulkes estimate   =    -329.49049922 Ry
     estimated scf accuracy    <       0.00000003 Ry

     iteration #  7     ecut=    30.00 Ry     beta=0.70
     Davidson diagonalization with overlap
     ethr =  5.73E-11,  avg # of iterations =  3.0

     total cpu time spent up to now is      303.8 secs

     total energy              =    -329.49049931 Ry
     Harris-Foulkes estimate   =    -329.49049925 Ry
     estimated scf accuracy    <          5.3E-09 Ry

     iteration #  8     ecut=    30.00 Ry     beta=0.70
     Davidson diagonalization with overlap
     ethr =  9.69E-12,  avg # of iterations =  2.0

     total cpu time spent up to now is      304.1 secs

     End of self-consistent calculation

          k = 0.0000 0.0000 0.0000 ( 22119 PWs)   bands (ev):

    -8.5245  -7.8388  -7.6942  -7.3153  -7.0937  -6.8317  -6.6971  -6.5372
    -6.3548  -6.0748  -6.0361  -5.7621  -5.7326  -5.6894  -5.4050  -5.3777
    -5.3445  -5.2422  -5.2082  -5.1893  -5.1685  -5.1311  -4.9970  -4.9388
    -4.8854  -4.5951  -4.4761  -3.7479  -2.4732  -2.1049  -0.5424  -0.2281
     0.4608   0.7619

     the Fermi energy is    -3.7150 ev

!    total energy              =    -329.49049930 Ry
     Harris-Foulkes estimate   =    -329.49049931 Ry
     estimated scf accuracy    <          9.6E-10 Ry

     The total energy is the sum of the following terms:

     one-electron contribution =    -610.93610190 Ry
     hartree contribution      =     326.86730201 Ry
     xc contribution           =     -51.41905819 Ry
     ewald contribution        =       6.00167163 Ry
     smearing contrib. (-TS)   =      -0.00431285 Ry

     convergence has been achieved in   8 iterations

     Forces acting on atoms (Ry/au):

     atom    1 type  1   force =    -0.00683788    0.00003288   -0.00981571
     atom    2 type  1   force =    -0.00174719    0.00311452    0.00805388
     atom    3 type  1   force =     0.00364857   -0.00104018    0.00133020
     atom    4 type  1   force =    -0.00582044    0.00407418    0.00782261
     atom    5 type  1   force =     0.01075693   -0.00618140   -0.00739098

     Total force =     0.023603     Total SCF correction =     0.000138

     number of scf cycles    =  49
     number of bfgs steps    =  26

     energy   old            =    -329.4940084976 Ry
     energy   new            =    -329.4904993001 Ry

     CASE: energy  _new > energy  _old

     new trust radius        =       0.0014635094 bohr
     new conv_thr            =       0.0000000017 Ry


ATOMIC_POSITIONS (bohr)
Au      -1.822133159   3.312447740  -0.492097870
Au      -0.156711638   3.993646014   4.268023710
Au       2.859804288   1.807220292   0.583078164
Au       4.561956804   3.009148043   5.978333484
Au       7.381712705   0.779453910   2.489604511



     Writing output data file pwscf.save
     Check: negative starting charge=   -0.006326
     NEW-OLD atomic charge density approx. for the potential
     Check: negative starting charge=   -0.006338

     negative rho (up, down):  2.555E-05 0.000E+00

     total cpu time spent up to now is      304.5 secs

     per-process dynamical memory:    50.7 Mb

     Self-consistent Calculation

     iteration #  1     ecut=    30.00 Ry     beta=0.70
     Davidson diagonalization with overlap
     ethr =  1.00E-06,  avg # of iterations =  4.0

     Threshold (ethr) on eigenvalues was too large:
     Diagonalizing with lowered threshold

     Davidson diagonalization with overlap
     ethr =  5.47E-08,  avg # of iterations =  1.0

     negative rho (up, down):  5.498E-08 0.000E+00

     total cpu time spent up to now is      305.1 secs

     total energy              =    -329.49008744 Ry
     Harris-Foulkes estimate   =    -329.49008435 Ry
     estimated scf accuracy    <       0.00003033 Ry

     iteration #  2     ecut=    30.00 Ry     beta=0.70
     Davidson diagonalization with overlap
     ethr =  5.51E-08,  avg # of iterations =  3.0

     total cpu time spent up to now is      305.5 secs

     total energy              =    -329.49008303 Ry
     Harris-Foulkes estimate   =    -329.49011235 Ry
     estimated scf accuracy    <       0.00007497 Ry

     iteration #  3     ecut=    30.00 Ry     beta=0.70
     Davidson diagonalization with overlap
     ethr =  5.51E-08,  avg # of iterations =  2.0

     total cpu time spent up to now is      305.8 secs

     total energy              =    -329.49009863 Ry
     Harris-Foulkes estimate   =    -329.49010107 Ry
     estimated scf accuracy    <       0.00000932 Ry

     iteration #  4     ecut=    30.00 Ry     beta=0.70
     Davidson diagonalization with overlap
     ethr =  1.69E-08,  avg # of iterations =  2.0

     total cpu time spent up to now is      306.0 secs

     total energy              =    -329.49009983 Ry
     Harris-Foulkes estimate   =    -329.49010082 Ry
     estimated scf accuracy    <       0.00000159 Ry

     iteration #  5     ecut=    30.00 Ry     beta=0.70
     Davidson diagonalization with overlap
     ethr =  2.90E-09,  avg # of iterations =  3.0

     total cpu time spent up to now is      306.3 secs

     total energy              =    -329.49010009 Ry
     Harris-Foulkes estimate   =    -329.49010037 Ry
     estimated scf accuracy    <       0.00000052 Ry

     iteration #  6     ecut=    30.00 Ry     beta=0.70
     Davidson diagonalization with overlap
     ethr =  9.42E-10,  avg # of iterations =  2.0

     total cpu time spent up to now is      306.5 secs

     total energy              =    -329.49010017 Ry
     Harris-Foulkes estimate   =    -329.49010020 Ry
     estimated scf accuracy    <       0.00000003 Ry

     iteration #  7     ecut=    30.00 Ry     beta=0.70
     Davidson diagonalization with overlap
     ethr =  5.77E-11,  avg # of iterations =  3.0

     total cpu time spent up to now is      306.8 secs

     total energy              =    -329.49010012 Ry
     Harris-Foulkes estimate   =    -329.49010018 Ry
     estimated scf accuracy    <          5.2E-09 Ry

     iteration #  8     ecut=    30.00 Ry     beta=0.70
     Davidson diagonalization with overlap
     ethr =  9.40E-12,  avg # of iterations =  2.0

     total cpu time spent up to now is      307.1 secs

     End of self-consistent calculation

          k = 0.0000 0.0000 0.0000 ( 22119 PWs)   bands (ev):

    -8.5413  -7.8568  -7.7138  -7.3310  -7.1149  -6.8438  -6.7105  -6.5502
    -6.3666  -6.0847  -6.0412  -5.7644  -5.7347  -5.6941  -5.4072  -5.3714
    -5.3478  -5.2458  -5.2068  -5.1899  -5.1672  -5.1304  -4.9921  -4.9372
    -4.8790  -4.5884  -4.4693  -3.7470  -2.4665  -2.0924  -0.5455  -0.2299
     0.4646   0.7655

     the Fermi energy is    -3.7150 ev

!    total energy              =    -329.49010007 Ry
     Harris-Foulkes estimate   =    -329.49010012 Ry
     estimated scf accuracy    <          8.8E-10 Ry

     The total energy is the sum of the following terms:

     one-electron contribution =    -612.16544454 Ry
     hartree contribution      =     327.47541121 Ry
     xc contribution           =     -51.42459082 Ry
     ewald contribution        =       6.62862768 Ry
     smearing contrib. (-TS)   =      -0.00410360 Ry

     convergence has been achieved in   8 iterations

     Forces acting on atoms (Ry/au):

     atom    1 type  1   force =    -0.00764946    0.00019158   -0.01072449
     atom    2 type  1   force =    -0.00301686    0.00361040    0.00835940
     atom    3 type  1   force =     0.00223591   -0.00095684    0.00028307
     atom    4 type  1   force =    -0.00526057    0.00460935    0.00987564
     atom    5 type  1   force =     0.01369098   -0.00745449   -0.00779361

     Total force =     0.026866     Total SCF correction =     0.000136

     number of scf cycles    =  50
     number of bfgs steps    =  26

     energy   old            =    -329.4940084976 Ry
     energy   new            =    -329.4901000737 Ry

     CASE: energy  _new > energy  _old

     new trust radius        =       0.0000096360 bohr

     trust_radius < trust_radius_min

     resetting bfgs history

     new conv_thr            =       0.0000000017 Ry


ATOMIC_POSITIONS (bohr)
Au      -1.827416177   3.313295291  -0.498607542
Au      -0.168203856   3.997680006   4.269214091
Au       2.857031588   1.809237725   0.586694711
Au       4.565724486   3.008557754   5.981284004
Au       7.397492960   0.773145225   2.488356737



     Writing output data file pwscf.save
     Check: negative starting charge=   -0.006338
     NEW-OLD atomic charge density approx. for the potential
     Check: negative starting charge=   -0.006326

     negative rho (up, down):  2.603E-05 0.000E+00

     Writing output data file pwscf.save
 
     init_run     :      0.38s CPU      0.42s WALL (       1 calls)
     electrons    :    273.61s CPU    288.90s WALL (      50 calls)
     update_pot   :      6.85s CPU      8.08s WALL (      50 calls)
     forces       :      3.70s CPU      3.81s WALL (      50 calls)

     Called by init_run:
     wfcinit      :      0.16s CPU      0.19s WALL (       1 calls)
     potinit      :      0.09s CPU      0.09s WALL (       1 calls)

     Called by electrons:
     c_bands      :    203.57s CPU    208.42s WALL (     598 calls)
     sum_band     :     30.13s CPU     30.99s WALL (     598 calls)
     v_of_rho     :     22.67s CPU     23.23s WALL (     626 calls)
     mix_rho      :     10.37s CPU     15.47s WALL (     598 calls)

     Called by c_bands:
     init_us_2    :      1.72s CPU      1.79s WALL (    1197 calls)
     cegterg      :    191.12s CPU    195.61s WALL (     598 calls)

     Called by sum_band:

     Called by *egterg:
     h_psi        :    149.23s CPU    152.61s WALL (    2122 calls)
     g_psi        :      0.64s CPU      0.63s WALL (    1523 calls)
     cdiaghg      :      9.54s CPU      9.74s WALL (    2049 calls)

     Called by h_psi:
     h_psi:pot    :    148.26s CPU    151.63s WALL (    2122 calls)
     h_psi:calbec :     10.79s CPU     11.04s WALL (    2122 calls)
     vloc_psi     :    133.32s CPU    136.40s WALL (    2122 calls)
     add_vuspsi   :      4.15s CPU      4.17s WALL (    2122 calls)

     General routines
     calbec       :     12.03s CPU     12.32s WALL (    2322 calls)
     fft          :     14.39s CPU     14.80s WALL (    7032 calls)
     fftw         :    151.73s CPU    155.81s WALL (  127936 calls)
     davcio       :      0.79s CPU      4.50s WALL (    6892 calls)
 
     Parallel routines
     fft_scatter  :    113.82s CPU    117.33s WALL (  134968 calls)
 
     PWSCF        :  4m48.43s CPU     5m 7.49s WALL

 
   This run was terminated on:   0:54:41  29Jul2017            

=------------------------------------------------------------------------------=
   JOB DONE.
=------------------------------------------------------------------------------=
