
     Program PWSCF v.6.0 (svn rev. 13079) starts on 29Jul2017 at  1:31:17 

     This program is part of the open-source Quantum ESPRESSO suite
     for quantum simulation of materials; please cite
         "P. Giannozzi et al., J. Phys.:Condens. Matter 21 395502 (2009);
          URL http://www.quantum-espresso.org", 
     in publications or presentations arising from this work. More details at
     http://www.quantum-espresso.org/quote

     Parallel version (MPI), running on    10 processors
     R & G space division:  proc/nbgrp/npool/nimage =      10
     Reading input from input/dftmin-Gold5-multi-23.in

     Current dimensions of program PWSCF are:
     Max number of different atomic species (ntypx) = 10
     Max number of k-points (npk) =  40000
     Max angular momentum in pseudopotentials (lmaxx) =  3
     Message from routine iosys:
     pot_extrapolation='second-order' not available, using 'atomic'
     Message from routine iosys:
     wfc_extrapolation='second-order' not available, using 'atomic'

     Subspace diagonalization in iterative solution of the eigenvalue problem:
     a serial algorithm will be used

 
     Parallelization info
     --------------------
     sticks:   dense  smooth     PW     G-vecs:    dense   smooth      PW
     Min         380     380     94                17748    17748    2208
     Max         381     381     95                17753    17753    2213
     Sum        3809    3809    949               177509   177509   22119
 


     bravais-lattice index     =            1
     lattice parameter (alat)  =      20.0000  a.u.
     unit-cell volume          =    8000.0000 (a.u.)^3
     number of atoms/cell      =            5
     number of atomic types    =            1
     number of electrons       =        55.00
     number of Kohn-Sham states=           34
     kinetic-energy cutoff     =      30.0000  Ry
     charge density cutoff     =     120.0000  Ry
     convergence threshold     =      1.0E-08
     mixing beta               =       0.7000
     number of iterations used =            8  plain     mixing
     Exchange-correlation      = BLYP ( 1  3  1  3 0 0)
     nstep                     =           50


     celldm(1)=  20.000000  celldm(2)=   0.000000  celldm(3)=   0.000000
     celldm(4)=   0.000000  celldm(5)=   0.000000  celldm(6)=   0.000000

     crystal axes: (cart. coord. in units of alat)
               a(1) = (   1.000000   0.000000   0.000000 )  
               a(2) = (   0.000000   1.000000   0.000000 )  
               a(3) = (   0.000000   0.000000   1.000000 )  

     reciprocal axes: (cart. coord. in units 2 pi/alat)
               b(1) = (  1.000000  0.000000  0.000000 )  
               b(2) = (  0.000000  1.000000  0.000000 )  
               b(3) = (  0.000000  0.000000  1.000000 )  


     PseudoPot. # 1 for Au read from file:
     ./Au.blyp-d-hgh.UPF
     MD5 check sum: c10d8bae01f806c36a1643a1c69a8479
     Pseudo is Norm-conserving, Zval = 11.0
     Generated in analytical, separable form
     Using radial grid of 1279 points,  6 beta functions with: 
                l(1) =   0
                l(2) =   0
                l(3) =   1
                l(4) =   1
                l(5) =   2
                l(6) =   2

     atomic species   valence    mass     pseudopotential
        Au            11.00    28.08600     Au( 1.00)

     No symmetry found



   Cartesian axes

     site n.     atom                  positions (alat units)
         1           Au  tau(   1) = (  -0.0753502   0.0868957  -0.0592993  )
         2           Au  tau(   2) = (  -0.0372540   0.1671488   0.1857485  )
         3           Au  tau(   3) = (   0.1605666   0.0690827   0.0275683  )
         4           Au  tau(   4) = (   0.1987341   0.2093555   0.2742176  )
         5           Au  tau(   5) = (   0.3735898   0.0628254   0.1604037  )

     number of k points=     1  Marzari-Vanderbilt smearing, width (Ry)=  0.0250
                       cart. coord. in units 2pi/alat
        k(    1) = (   0.0000000   0.0000000   0.0000000), wk =   2.0000000

     Dense  grid:   177509 G-vectors     FFT dimensions: (  72,  72,  72)

     Estimated max dynamical RAM per process >      15.04Mb

     Estimated total allocated dynamical RAM >     150.39Mb

     Initial potential from superposition of free atoms
     Check: negative starting charge=   -0.006291

     starting charge   54.99940, renormalised to   55.00000

     negative rho (up, down):  6.291E-03 0.000E+00
     Starting wfc are   45 randomized atomic wfcs

     total cpu time spent up to now is        0.4 secs

     per-process dynamical memory:    41.0 Mb

     Self-consistent Calculation

     iteration #  1     ecut=    30.00 Ry     beta=0.70
     Davidson diagonalization with overlap
     ethr =  1.00E-02,  avg # of iterations =  3.0

     Threshold (ethr) on eigenvalues was too large:
     Diagonalizing with lowered threshold

     Davidson diagonalization with overlap
     ethr =  4.02E-04,  avg # of iterations =  5.0

     negative rho (up, down):  8.591E-04 0.000E+00

     total cpu time spent up to now is        0.9 secs

     total energy              =    -329.38091474 Ry
     Harris-Foulkes estimate   =    -329.54586925 Ry
     estimated scf accuracy    <       0.27516189 Ry

     iteration #  2     ecut=    30.00 Ry     beta=0.70
     Davidson diagonalization with overlap
     ethr =  5.00E-04,  avg # of iterations =  3.0

     negative rho (up, down):  3.790E-04 0.000E+00

     total cpu time spent up to now is        1.2 secs

     total energy              =    -329.41563847 Ry
     Harris-Foulkes estimate   =    -329.55917632 Ry
     estimated scf accuracy    <       0.29271985 Ry

     iteration #  3     ecut=    30.00 Ry     beta=0.70
     Davidson diagonalization with overlap
     ethr =  5.00E-04,  avg # of iterations =  2.0

     negative rho (up, down):  1.429E-04 0.000E+00

     total cpu time spent up to now is        1.5 secs

     total energy              =    -329.47412343 Ry
     Harris-Foulkes estimate   =    -329.50210244 Ry
     estimated scf accuracy    <       0.07369630 Ry

     iteration #  4     ecut=    30.00 Ry     beta=0.70
     Davidson diagonalization with overlap
     ethr =  1.34E-04,  avg # of iterations =  4.0

     negative rho (up, down):  1.203E-05 0.000E+00

     total cpu time spent up to now is        1.8 secs

     total energy              =    -329.48744166 Ry
     Harris-Foulkes estimate   =    -329.48949146 Ry
     estimated scf accuracy    <       0.00515295 Ry

     iteration #  5     ecut=    30.00 Ry     beta=0.70
     Davidson diagonalization with overlap
     ethr =  9.37E-06,  avg # of iterations =  6.0

     total cpu time spent up to now is        2.2 secs

     total energy              =    -329.48853769 Ry
     Harris-Foulkes estimate   =    -329.48940808 Ry
     estimated scf accuracy    <       0.00231842 Ry

     iteration #  6     ecut=    30.00 Ry     beta=0.70
     Davidson diagonalization with overlap
     ethr =  4.22E-06,  avg # of iterations =  2.0

     total cpu time spent up to now is        2.5 secs

     total energy              =    -329.48892413 Ry
     Harris-Foulkes estimate   =    -329.48906852 Ry
     estimated scf accuracy    <       0.00033034 Ry

     iteration #  7     ecut=    30.00 Ry     beta=0.70
     Davidson diagonalization with overlap
     ethr =  6.01E-07,  avg # of iterations =  2.0

     total cpu time spent up to now is        2.8 secs

     total energy              =    -329.48899282 Ry
     Harris-Foulkes estimate   =    -329.48900676 Ry
     estimated scf accuracy    <       0.00003092 Ry

     iteration #  8     ecut=    30.00 Ry     beta=0.70
     Davidson diagonalization with overlap
     ethr =  5.62E-08,  avg # of iterations =  2.0

     total cpu time spent up to now is        3.0 secs

     total energy              =    -329.48899928 Ry
     Harris-Foulkes estimate   =    -329.48900482 Ry
     estimated scf accuracy    <       0.00001265 Ry

     iteration #  9     ecut=    30.00 Ry     beta=0.70
     Davidson diagonalization with overlap
     ethr =  2.30E-08,  avg # of iterations =  2.0

     total cpu time spent up to now is        3.3 secs

     total energy              =    -329.48900138 Ry
     Harris-Foulkes estimate   =    -329.48900237 Ry
     estimated scf accuracy    <       0.00000155 Ry

     iteration # 10     ecut=    30.00 Ry     beta=0.70
     Davidson diagonalization with overlap
     ethr =  2.82E-09,  avg # of iterations =  2.0

     total cpu time spent up to now is        3.6 secs

     total energy              =    -329.48900158 Ry
     Harris-Foulkes estimate   =    -329.48900183 Ry
     estimated scf accuracy    <       0.00000024 Ry

     iteration # 11     ecut=    30.00 Ry     beta=0.70
     Davidson diagonalization with overlap
     ethr =  4.42E-10,  avg # of iterations =  2.0

     total cpu time spent up to now is        3.9 secs

     total energy              =    -329.48900156 Ry
     Harris-Foulkes estimate   =    -329.48900165 Ry
     estimated scf accuracy    <       0.00000005 Ry

     iteration # 12     ecut=    30.00 Ry     beta=0.70
     Davidson diagonalization with overlap
     ethr =  8.34E-11,  avg # of iterations =  2.0

     total cpu time spent up to now is        4.2 secs

     End of self-consistent calculation

          k = 0.0000 0.0000 0.0000 ( 22119 PWs)   bands (ev):

    -8.4178  -7.7141  -7.6140  -7.1915  -6.9959  -6.7612  -6.6712  -6.4424
    -6.2381  -6.0208  -5.9918  -5.7473  -5.7132  -5.6741  -5.4492  -5.3433
    -5.3187  -5.2331  -5.2023  -5.1940  -5.1591  -5.1313  -4.9660  -4.9450
    -4.8697  -4.6363  -4.4434  -3.7814  -2.4264  -2.2374  -0.4998  -0.1916
     0.4368   0.6915

     the Fermi energy is    -3.7564 ev

!    total energy              =    -329.48900152 Ry
     Harris-Foulkes estimate   =    -329.48900158 Ry
     estimated scf accuracy    <          7.2E-09 Ry

     The total energy is the sum of the following terms:

     one-electron contribution =    -606.41248154 Ry
     hartree contribution      =     324.66759451 Ry
     xc contribution           =     -51.40117635 Ry
     ewald contribution        =       3.65963784 Ry
     smearing contrib. (-TS)   =      -0.00257598 Ry

     convergence has been achieved in  12 iterations

     Forces acting on atoms (Ry/au):

     atom    1 type  1   force =    -0.00057816   -0.00092822    0.00267857
     atom    2 type  1   force =    -0.00198793   -0.00010011   -0.01130608
     atom    3 type  1   force =    -0.00473716    0.00364845    0.00686164
     atom    4 type  1   force =     0.00036496   -0.00211121    0.00185447
     atom    5 type  1   force =     0.00693828   -0.00050891   -0.00008859

     Total force =     0.016716     Total SCF correction =     0.000272

     BFGS Geometry Optimization

     number of scf cycles    =   1
     number of bfgs steps    =   0

     energy   new            =    -329.4890015171 Ry

     new trust radius        =       0.0114799571 bohr
     new conv_thr            =       0.0000000100 Ry


ATOMIC_POSITIONS (bohr)
Au      -1.507581158   1.736984777  -1.183308432
Au      -0.747068934   3.342875893   3.703664917
Au       3.206594844   1.385302453   0.558227636
Au       3.975046965   4.184998791   5.486207467
Au       7.478734284   1.255999085   3.207985412



     Writing output data file pwscf.save
     Check: negative starting charge=   -0.006291
     NEW-OLD atomic charge density approx. for the potential
     Check: negative starting charge=   -0.006291

     negative rho (up, down):  6.190E-06 0.000E+00

     total cpu time spent up to now is        4.6 secs

     per-process dynamical memory:    42.9 Mb

     Self-consistent Calculation

     iteration #  1     ecut=    30.00 Ry     beta=0.70
     Davidson diagonalization with overlap
     ethr =  1.00E-06,  avg # of iterations =  4.0

     Threshold (ethr) on eigenvalues was too large:
     Diagonalizing with lowered threshold

     Davidson diagonalization with overlap
     ethr =  3.99E-08,  avg # of iterations =  1.0

     total cpu time spent up to now is        5.2 secs

     total energy              =    -329.48925028 Ry
     Harris-Foulkes estimate   =    -329.48925378 Ry
     estimated scf accuracy    <       0.00002244 Ry

     iteration #  2     ecut=    30.00 Ry     beta=0.70
     Davidson diagonalization with overlap
     ethr =  4.08E-08,  avg # of iterations =  3.0

     total cpu time spent up to now is        5.5 secs

     total energy              =    -329.48924601 Ry
     Harris-Foulkes estimate   =    -329.48927252 Ry
     estimated scf accuracy    <       0.00007071 Ry

     iteration #  3     ecut=    30.00 Ry     beta=0.70
     Davidson diagonalization with overlap
     ethr =  4.08E-08,  avg # of iterations =  2.0

     total cpu time spent up to now is        5.7 secs

     total energy              =    -329.48925960 Ry
     Harris-Foulkes estimate   =    -329.48926118 Ry
     estimated scf accuracy    <       0.00000567 Ry

     iteration #  4     ecut=    30.00 Ry     beta=0.70
     Davidson diagonalization with overlap
     ethr =  1.03E-08,  avg # of iterations =  2.0

     total cpu time spent up to now is        6.0 secs

     total energy              =    -329.48926104 Ry
     Harris-Foulkes estimate   =    -329.48926082 Ry
     estimated scf accuracy    <       0.00000050 Ry

     iteration #  5     ecut=    30.00 Ry     beta=0.70
     Davidson diagonalization with overlap
     ethr =  9.06E-10,  avg # of iterations =  2.0

     total cpu time spent up to now is        6.3 secs

     total energy              =    -329.48926116 Ry
     Harris-Foulkes estimate   =    -329.48926123 Ry
     estimated scf accuracy    <       0.00000021 Ry

     iteration #  6     ecut=    30.00 Ry     beta=0.70
     Davidson diagonalization with overlap
     ethr =  3.75E-10,  avg # of iterations =  2.0

     total cpu time spent up to now is        6.5 secs

     total energy              =    -329.48926124 Ry
     Harris-Foulkes estimate   =    -329.48926121 Ry
     estimated scf accuracy    <       0.00000002 Ry

     iteration #  7     ecut=    30.00 Ry     beta=0.70
     Davidson diagonalization with overlap
     ethr =  4.31E-11,  avg # of iterations =  2.0

     total cpu time spent up to now is        6.8 secs

     End of self-consistent calculation

          k = 0.0000 0.0000 0.0000 ( 22119 PWs)   bands (ev):

    -8.4245  -7.7209  -7.6166  -7.1945  -6.9951  -6.7633  -6.6746  -6.4472
    -6.2393  -6.0227  -5.9942  -5.7494  -5.7159  -5.6765  -5.4488  -5.3436
    -5.3250  -5.2327  -5.2043  -5.1927  -5.1616  -5.1302  -4.9696  -4.9473
    -4.8705  -4.6349  -4.4474  -3.7767  -2.4288  -2.2366  -0.5011  -0.1883
     0.4367   0.6902

     the Fermi energy is    -3.7503 ev

!    total energy              =    -329.48926132 Ry
     Harris-Foulkes estimate   =    -329.48926125 Ry
     estimated scf accuracy    <          3.3E-09 Ry

     The total energy is the sum of the following terms:

     one-electron contribution =    -606.63476819 Ry
     hartree contribution      =     324.77482464 Ry
     xc contribution           =     -51.40120385 Ry
     ewald contribution        =       3.77476998 Ry
     smearing contrib. (-TS)   =      -0.00288390 Ry

     convergence has been achieved in   7 iterations

     Forces acting on atoms (Ry/au):

     atom    1 type  1   force =    -0.00115688   -0.00122566    0.00161298
     atom    2 type  1   force =    -0.00158498    0.00062008   -0.00973368
     atom    3 type  1   force =    -0.00307080    0.00312622    0.00680463
     atom    4 type  1   force =     0.00004455   -0.00225298    0.00168075
     atom    5 type  1   force =     0.00576811   -0.00026766   -0.00036468

     Total force =     0.014490     Total SCF correction =     0.000249

     number of scf cycles    =   2
     number of bfgs steps    =   1

     energy   old            =    -329.4890015171 Ry
     energy   new            =    -329.4892613151 Ry

     CASE: energy  _new < energy  _old


     WARNING: bfgs curvature condition failed, Theta= 0.931
     new trust radius        =       0.0126279528 bohr
     new conv_thr            =       0.0000000003 Ry


ATOMIC_POSITIONS (bohr)
Au      -1.508923104   1.735506566  -1.181102408
Au      -0.749121413   3.343521819   3.691221634
Au       3.202459830   1.389302011   0.566740027
Au       3.975159952   4.182209119   5.488338599
Au       7.486150735   1.255621485   3.207579149



     Writing output data file pwscf.save
     Check: negative starting charge=   -0.006291
     NEW-OLD atomic charge density approx. for the potential
     Check: negative starting charge=   -0.006291

     negative rho (up, down):  9.380E-06 0.000E+00

     total cpu time spent up to now is        7.2 secs

     per-process dynamical memory:    50.6 Mb

     Self-consistent Calculation

     iteration #  1     ecut=    30.00 Ry     beta=0.70
     Davidson diagonalization with overlap
     ethr =  1.00E-06,  avg # of iterations =  4.0

     Threshold (ethr) on eigenvalues was too large:
     Diagonalizing with lowered threshold

     Davidson diagonalization with overlap
     ethr =  4.76E-08,  avg # of iterations =  1.0

     total cpu time spent up to now is        7.8 secs

     total energy              =    -329.48949568 Ry
     Harris-Foulkes estimate   =    -329.48949978 Ry
     estimated scf accuracy    <       0.00002649 Ry

     iteration #  2     ecut=    30.00 Ry     beta=0.70
     Davidson diagonalization with overlap
     ethr =  4.82E-08,  avg # of iterations =  3.0

     total cpu time spent up to now is        8.2 secs

     total energy              =    -329.48949177 Ry
     Harris-Foulkes estimate   =    -329.48951922 Ry
     estimated scf accuracy    <       0.00007056 Ry

     iteration #  3     ecut=    30.00 Ry     beta=0.70
     Davidson diagonalization with overlap
     ethr =  4.82E-08,  avg # of iterations =  2.0

     total cpu time spent up to now is        8.5 secs

     total energy              =    -329.48950606 Ry
     Harris-Foulkes estimate   =    -329.48950833 Ry
     estimated scf accuracy    <       0.00000827 Ry

     iteration #  4     ecut=    30.00 Ry     beta=0.70
     Davidson diagonalization with overlap
     ethr =  1.50E-08,  avg # of iterations =  2.0

     total cpu time spent up to now is        8.7 secs

     total energy              =    -329.48950748 Ry
     Harris-Foulkes estimate   =    -329.48950775 Ry
     estimated scf accuracy    <       0.00000053 Ry

     iteration #  5     ecut=    30.00 Ry     beta=0.70
     Davidson diagonalization with overlap
     ethr =  9.55E-10,  avg # of iterations =  3.0

     total cpu time spent up to now is        9.1 secs

     total energy              =    -329.48950781 Ry
     Harris-Foulkes estimate   =    -329.48950769 Ry
     estimated scf accuracy    <       0.00000020 Ry

     iteration #  6     ecut=    30.00 Ry     beta=0.70
     Davidson diagonalization with overlap
     ethr =  3.62E-10,  avg # of iterations =  2.0

     total cpu time spent up to now is        9.3 secs

     total energy              =    -329.48950786 Ry
     Harris-Foulkes estimate   =    -329.48950786 Ry
     estimated scf accuracy    <       0.00000003 Ry

     iteration #  7     ecut=    30.00 Ry     beta=0.70
     Davidson diagonalization with overlap
     ethr =  5.67E-11,  avg # of iterations =  2.0

     total cpu time spent up to now is        9.6 secs

     total energy              =    -329.48950793 Ry
     Harris-Foulkes estimate   =    -329.48950787 Ry
     estimated scf accuracy    <          3.1E-09 Ry

     iteration #  8     ecut=    30.00 Ry     beta=0.70
     Davidson diagonalization with overlap
     ethr =  5.60E-12,  avg # of iterations =  2.0

     total cpu time spent up to now is        9.9 secs

     total energy              =    -329.48950794 Ry
     Harris-Foulkes estimate   =    -329.48950793 Ry
     estimated scf accuracy    <          7.6E-10 Ry

     iteration #  9     ecut=    30.00 Ry     beta=0.70
     Davidson diagonalization with overlap
     ethr =  1.37E-12,  avg # of iterations =  3.0

     total cpu time spent up to now is       10.2 secs

     End of self-consistent calculation

          k = 0.0000 0.0000 0.0000 ( 22119 PWs)   bands (ev):

    -8.4319  -7.7287  -7.6196  -7.1987  -6.9939  -6.7660  -6.6773  -6.4525
    -6.2411  -6.0242  -5.9968  -5.7508  -5.7181  -5.6789  -5.4480  -5.3465
    -5.3296  -5.2322  -5.2067  -5.1914  -5.1638  -5.1289  -4.9734  -4.9495
    -4.8710  -4.6337  -4.4517  -3.7718  -2.4315  -2.2356  -0.5027  -0.1847
     0.4365   0.6893

     the Fermi energy is    -3.7440 ev

!    total energy              =    -329.48950799 Ry
     Harris-Foulkes estimate   =    -329.48950794 Ry
     estimated scf accuracy    <          1.8E-10 Ry

     The total energy is the sum of the following terms:

     one-electron contribution =    -606.87092206 Ry
     hartree contribution      =     324.88900370 Ry
     xc contribution           =     -51.40124996 Ry
     ewald contribution        =       3.89685651 Ry
     smearing contrib. (-TS)   =      -0.00319618 Ry

     convergence has been achieved in   9 iterations

     Forces acting on atoms (Ry/au):

     atom    1 type  1   force =    -0.00154784   -0.00153692    0.00058858
     atom    2 type  1   force =    -0.00120370    0.00135594   -0.00798456
     atom    3 type  1   force =    -0.00170684    0.00255721    0.00644941
     atom    4 type  1   force =    -0.00026169   -0.00234163    0.00152136
     atom    5 type  1   force =     0.00472006   -0.00003461   -0.00057479

     Total force =     0.012396     Total SCF correction =     0.000042

     number of scf cycles    =   3
     number of bfgs steps    =   2

     energy   old            =    -329.4892613151 Ry
     energy   new            =    -329.4895079924 Ry

     CASE: energy  _new < energy  _old

     new trust radius        =       0.0189419292 bohr
     new conv_thr            =       0.0000000002 Ry


ATOMIC_POSITIONS (bohr)
Au      -1.511821711   1.732482399  -1.178923367
Au      -0.752044476   3.345785136   3.672643965
Au       3.197483882   1.395263478   0.580753933
Au       3.974874460   4.177291049   5.491744011
Au       7.497233845   1.255338937   3.206558458



     Writing output data file pwscf.save
     Check: negative starting charge=   -0.006291
     NEW-OLD atomic charge density approx. for the potential
     Check: negative starting charge=   -0.006289

     negative rho (up, down):  4.246E-05 0.000E+00

     total cpu time spent up to now is       10.5 secs

     per-process dynamical memory:    50.7 Mb

     Self-consistent Calculation

     iteration #  1     ecut=    30.00 Ry     beta=0.70
     Davidson diagonalization with overlap
     ethr =  1.00E-06,  avg # of iterations =  4.0

     negative rho (up, down):  1.533E-07 0.000E+00

     total cpu time spent up to now is       11.0 secs

     total energy              =    -329.48978696 Ry
     Harris-Foulkes estimate   =    -329.48979696 Ry
     estimated scf accuracy    <       0.00005925 Ry

     iteration #  2     ecut=    30.00 Ry     beta=0.70
     Davidson diagonalization with overlap
     ethr =  1.08E-07,  avg # of iterations =  3.0

     negative rho (up, down):  1.203E-08 0.000E+00

     total cpu time spent up to now is       11.2 secs

     total energy              =    -329.48978202 Ry
     Harris-Foulkes estimate   =    -329.48983289 Ry
     estimated scf accuracy    <       0.00012196 Ry

     iteration #  3     ecut=    30.00 Ry     beta=0.70
     Davidson diagonalization with overlap
     ethr =  1.08E-07,  avg # of iterations =  2.0

     total cpu time spent up to now is       11.5 secs

     total energy              =    -329.48980753 Ry
     Harris-Foulkes estimate   =    -329.48981452 Ry
     estimated scf accuracy    <       0.00002293 Ry

     iteration #  4     ecut=    30.00 Ry     beta=0.70
     Davidson diagonalization with overlap
     ethr =  4.17E-08,  avg # of iterations =  2.0

     total cpu time spent up to now is       11.8 secs

     total energy              =    -329.48981258 Ry
     Harris-Foulkes estimate   =    -329.48981214 Ry
     estimated scf accuracy    <       0.00000131 Ry

     iteration #  5     ecut=    30.00 Ry     beta=0.70
     Davidson diagonalization with overlap
     ethr =  2.38E-09,  avg # of iterations =  3.0

     total cpu time spent up to now is       12.1 secs

     total energy              =    -329.48981283 Ry
     Harris-Foulkes estimate   =    -329.48981304 Ry
     estimated scf accuracy    <       0.00000032 Ry

     iteration #  6     ecut=    30.00 Ry     beta=0.70
     Davidson diagonalization with overlap
     ethr =  5.87E-10,  avg # of iterations =  2.0

     total cpu time spent up to now is       12.4 secs

     total energy              =    -329.48981297 Ry
     Harris-Foulkes estimate   =    -329.48981291 Ry
     estimated scf accuracy    <       0.00000005 Ry

     iteration #  7     ecut=    30.00 Ry     beta=0.70
     Davidson diagonalization with overlap
     ethr =  8.72E-11,  avg # of iterations =  2.0

     total cpu time spent up to now is       12.6 secs

     total energy              =    -329.48981305 Ry
     Harris-Foulkes estimate   =    -329.48981298 Ry
     estimated scf accuracy    <          8.8E-09 Ry

     iteration #  8     ecut=    30.00 Ry     beta=0.70
     Davidson diagonalization with overlap
     ethr =  1.61E-11,  avg # of iterations =  2.0

     total cpu time spent up to now is       12.9 secs

     total energy              =    -329.48981308 Ry
     Harris-Foulkes estimate   =    -329.48981305 Ry
     estimated scf accuracy    <          2.6E-09 Ry

     iteration #  9     ecut=    30.00 Ry     beta=0.70
     Davidson diagonalization with overlap
     ethr =  4.73E-12,  avg # of iterations =  2.0

     total cpu time spent up to now is       13.2 secs

     total energy              =    -329.48981308 Ry
     Harris-Foulkes estimate   =    -329.48981308 Ry
     estimated scf accuracy    <          5.6E-10 Ry

     iteration # 10     ecut=    30.00 Ry     beta=0.70
     Davidson diagonalization with overlap
     ethr =  1.02E-12,  avg # of iterations =  2.0

     total cpu time spent up to now is       13.5 secs

     End of self-consistent calculation

          k = 0.0000 0.0000 0.0000 ( 22119 PWs)   bands (ev):

    -8.4428  -7.7402  -7.6240  -7.2061  -6.9915  -6.7700  -6.6792  -6.4602
    -6.2446  -6.0252  -6.0005  -5.7521  -5.7205  -5.6822  -5.4460  -5.3567
    -5.3310  -5.2313  -5.2103  -5.1896  -5.1663  -5.1267  -4.9790  -4.9523
    -4.8714  -4.6323  -4.4578  -3.7650  -2.4357  -2.2337  -0.5052  -0.1794
     0.4360   0.6887

     the Fermi energy is    -3.7353 ev

!    total energy              =    -329.48981307 Ry
     Harris-Foulkes estimate   =    -329.48981308 Ry
     estimated scf accuracy    <          6.5E-11 Ry

     The total energy is the sum of the following terms:

     one-electron contribution =    -607.19768803 Ry
     hartree contribution      =     325.04668948 Ry
     xc contribution           =     -51.40131201 Ry
     ewald contribution        =       4.06611466 Ry
     smearing contrib. (-TS)   =      -0.00361717 Ry

     convergence has been achieved in  10 iterations

     Forces acting on atoms (Ry/au):

     atom    1 type  1   force =    -0.00183540   -0.00198383   -0.00074258
     atom    2 type  1   force =    -0.00063580    0.00236723   -0.00532920
     atom    3 type  1   force =    -0.00023202    0.00171604    0.00558795
     atom    4 type  1   force =    -0.00063388   -0.00239890    0.00130314
     atom    5 type  1   force =     0.00333709    0.00029946   -0.00081930

     Total force =     0.009810     Total SCF correction =     0.000034

     number of scf cycles    =   4
     number of bfgs steps    =   3

     energy   old            =    -329.4895079924 Ry
     energy   new            =    -329.4898130697 Ry

     CASE: energy  _new < energy  _old

     new trust radius        =       0.0284128938 bohr
     new conv_thr            =       0.0000000003 Ry


ATOMIC_POSITIONS (bohr)
Au      -1.517334903   1.726418408  -1.177501686
Au      -0.756111021   3.351533124   3.645117316
Au       3.191394860   1.404119376   0.603525868
Au       3.973718555   4.168644320   5.497279463
Au       7.514058509   1.255445773   3.204356038



     Writing output data file pwscf.save
     Check: negative starting charge=   -0.006289
     NEW-OLD atomic charge density approx. for the potential
     Check: negative starting charge=   -0.006284

     negative rho (up, down):  1.460E-04 0.000E+00

     total cpu time spent up to now is       13.8 secs

     per-process dynamical memory:    50.7 Mb

     Self-consistent Calculation

     iteration #  1     ecut=    30.00 Ry     beta=0.70
     Davidson diagonalization with overlap
     ethr =  1.00E-06,  avg # of iterations =  4.0

     negative rho (up, down):  1.913E-06 0.000E+00

     total cpu time spent up to now is       14.2 secs

     total energy              =    -329.49007316 Ry
     Harris-Foulkes estimate   =    -329.49008983 Ry
     estimated scf accuracy    <       0.00014204 Ry

     iteration #  2     ecut=    30.00 Ry     beta=0.70
     Davidson diagonalization with overlap
     ethr =  2.58E-07,  avg # of iterations =  3.0

     negative rho (up, down):  2.713E-07 0.000E+00

     total cpu time spent up to now is       14.5 secs

     total energy              =    -329.49006946 Ry
     Harris-Foulkes estimate   =    -329.49017351 Ry
     estimated scf accuracy    <       0.00023881 Ry

     iteration #  3     ecut=    30.00 Ry     beta=0.70
     Davidson diagonalization with overlap
     ethr =  2.58E-07,  avg # of iterations =  2.0

     total cpu time spent up to now is       14.9 secs

     total energy              =    -329.49012007 Ry
     Harris-Foulkes estimate   =    -329.49013871 Ry
     estimated scf accuracy    <       0.00005894 Ry

     iteration #  4     ecut=    30.00 Ry     beta=0.70
     Davidson diagonalization with overlap
     ethr =  1.07E-07,  avg # of iterations =  2.0

     total cpu time spent up to now is       15.1 secs

     total energy              =    -329.49013188 Ry
     Harris-Foulkes estimate   =    -329.49013203 Ry
     estimated scf accuracy    <       0.00000345 Ry

     iteration #  5     ecut=    30.00 Ry     beta=0.70
     Davidson diagonalization with overlap
     ethr =  6.27E-09,  avg # of iterations =  3.0

     total cpu time spent up to now is       15.4 secs

     total energy              =    -329.49013279 Ry
     Harris-Foulkes estimate   =    -329.49013301 Ry
     estimated scf accuracy    <       0.00000079 Ry

     iteration #  6     ecut=    30.00 Ry     beta=0.70
     Davidson diagonalization with overlap
     ethr =  1.43E-09,  avg # of iterations =  2.0

     total cpu time spent up to now is       15.7 secs

     total energy              =    -329.49013302 Ry
     Harris-Foulkes estimate   =    -329.49013298 Ry
     estimated scf accuracy    <       0.00000009 Ry

     iteration #  7     ecut=    30.00 Ry     beta=0.70
     Davidson diagonalization with overlap
     ethr =  1.56E-10,  avg # of iterations =  2.0

     total cpu time spent up to now is       16.0 secs

     total energy              =    -329.49013304 Ry
     Harris-Foulkes estimate   =    -329.49013304 Ry
     estimated scf accuracy    <       0.00000001 Ry

     iteration #  8     ecut=    30.00 Ry     beta=0.70
     Davidson diagonalization with overlap
     ethr =  2.00E-11,  avg # of iterations =  2.0

     total cpu time spent up to now is       16.3 secs

     total energy              =    -329.49013296 Ry
     Harris-Foulkes estimate   =    -329.49013304 Ry
     estimated scf accuracy    <          2.6E-09 Ry

     iteration #  9     ecut=    30.00 Ry     beta=0.70
     Davidson diagonalization with overlap
     ethr =  4.73E-12,  avg # of iterations =  2.0

     total cpu time spent up to now is       16.6 secs

     total energy              =    -329.49013298 Ry
     Harris-Foulkes estimate   =    -329.49013296 Ry
     estimated scf accuracy    <          5.2E-10 Ry

     iteration # 10     ecut=    30.00 Ry     beta=0.70
     Davidson diagonalization with overlap
     ethr =  9.38E-13,  avg # of iterations =  2.0

     total cpu time spent up to now is       16.8 secs

     End of self-consistent calculation

          k = 0.0000 0.0000 0.0000 ( 22119 PWs)   bands (ev):

    -8.4587  -7.7565  -7.6311  -7.2193  -6.9859  -6.7761  -6.6783  -6.4714
    -6.2509  -6.0255  -6.0051  -5.7533  -5.7225  -5.6864  -5.4419  -5.3763
    -5.3291  -5.2294  -5.2157  -5.1873  -5.1689  -5.1231  -4.9872  -4.9553
    -4.8713  -4.6312  -4.4666  -3.7561  -2.4419  -2.2305  -0.5090  -0.1715
     0.4351   0.6892

     the Fermi energy is    -3.7240 ev

!    total energy              =    -329.49013298 Ry
     Harris-Foulkes estimate   =    -329.49013298 Ry
     estimated scf accuracy    <          1.8E-10 Ry

     The total energy is the sum of the following terms:

     one-electron contribution =    -607.63306495 Ry
     hartree contribution      =     325.25672787 Ry
     xc contribution           =     -51.40145228 Ry
     ewald contribution        =       4.29181665 Ry
     smearing contrib. (-TS)   =      -0.00416026 Ry

     convergence has been achieved in  10 iterations

     Forces acting on atoms (Ry/au):

     atom    1 type  1   force =    -0.00189268   -0.00262017   -0.00242320
     atom    2 type  1   force =     0.00013990    0.00378479   -0.00147321
     atom    3 type  1   force =     0.00127503    0.00046475    0.00397594
     atom    4 type  1   force =    -0.00101060   -0.00239130    0.00101329
     atom    5 type  1   force =     0.00148835    0.00076193   -0.00109282

     Total force =     0.007889     Total SCF correction =     0.000054

     number of scf cycles    =   5
     number of bfgs steps    =   4

     energy   old            =    -329.4898130697 Ry
     energy   new            =    -329.4901329809 Ry

     CASE: energy  _new < energy  _old

     new trust radius        =       0.0372585165 bohr
     new conv_thr            =       0.0000000003 Ry


ATOMIC_POSITIONS (bohr)
Au      -1.526262561   1.715251957  -1.179202018
Au      -0.760763983   3.364032513   3.610327774
Au       3.185237787   1.415294458   0.636026275
Au       3.970975409   4.154876667   5.505422015
Au       7.536539347   1.256705404   3.200202955



     Writing output data file pwscf.save
     Check: negative starting charge=   -0.006284
     NEW-OLD atomic charge density approx. for the potential
     Check: negative starting charge=   -0.006276

     negative rho (up, down):  3.142E-04 0.000E+00

     total cpu time spent up to now is       17.3 secs

     per-process dynamical memory:    50.7 Mb

     Self-consistent Calculation

     iteration #  1     ecut=    30.00 Ry     beta=0.70
     Davidson diagonalization with overlap
     ethr =  1.00E-06,  avg # of iterations =  4.0

     negative rho (up, down):  8.231E-06 0.000E+00

     total cpu time spent up to now is       17.7 secs

     total energy              =    -329.49024551 Ry
     Harris-Foulkes estimate   =    -329.49023304 Ry
     estimated scf accuracy    <       0.00027818 Ry

     iteration #  2     ecut=    30.00 Ry     beta=0.70
     Davidson diagonalization with overlap
     ethr =  5.06E-07,  avg # of iterations =  3.0

     negative rho (up, down):  1.368E-06 0.000E+00

     total cpu time spent up to now is       18.0 secs

     total energy              =    -329.49025653 Ry
     Harris-Foulkes estimate   =    -329.49042524 Ry
     estimated scf accuracy    <       0.00036709 Ry

     iteration #  3     ecut=    30.00 Ry     beta=0.70
     Davidson diagonalization with overlap
     ethr =  5.06E-07,  avg # of iterations =  2.0

     negative rho (up, down):  5.371E-08 0.000E+00

     total cpu time spent up to now is       18.3 secs

     total energy              =    -329.49033219 Ry
     Harris-Foulkes estimate   =    -329.49036998 Ry
     estimated scf accuracy    <       0.00011016 Ry

     iteration #  4     ecut=    30.00 Ry     beta=0.70
     Davidson diagonalization with overlap
     ethr =  2.00E-07,  avg # of iterations =  2.0

     total cpu time spent up to now is       18.6 secs

     total energy              =    -329.49035557 Ry
     Harris-Foulkes estimate   =    -329.49035586 Ry
     estimated scf accuracy    <       0.00000818 Ry

     iteration #  5     ecut=    30.00 Ry     beta=0.70
     Davidson diagonalization with overlap
     ethr =  1.49E-08,  avg # of iterations =  2.0

     total cpu time spent up to now is       18.9 secs

     total energy              =    -329.49035735 Ry
     Harris-Foulkes estimate   =    -329.49035796 Ry
     estimated scf accuracy    <       0.00000196 Ry

     iteration #  6     ecut=    30.00 Ry     beta=0.70
     Davidson diagonalization with overlap
     ethr =  3.56E-09,  avg # of iterations =  2.0

     total cpu time spent up to now is       19.2 secs

     total energy              =    -329.49035784 Ry
     Harris-Foulkes estimate   =    -329.49035780 Ry
     estimated scf accuracy    <       0.00000017 Ry

     iteration #  7     ecut=    30.00 Ry     beta=0.70
     Davidson diagonalization with overlap
     ethr =  3.17E-10,  avg # of iterations =  2.0

     total cpu time spent up to now is       19.5 secs

     total energy              =    -329.49035792 Ry
     Harris-Foulkes estimate   =    -329.49035789 Ry
     estimated scf accuracy    <       0.00000004 Ry

     iteration #  8     ecut=    30.00 Ry     beta=0.70
     Davidson diagonalization with overlap
     ethr =  6.54E-11,  avg # of iterations =  2.0

     total cpu time spent up to now is       19.8 secs

     total energy              =    -329.49035793 Ry
     Harris-Foulkes estimate   =    -329.49035794 Ry
     estimated scf accuracy    <       0.00000001 Ry

     iteration #  9     ecut=    30.00 Ry     beta=0.70
     Davidson diagonalization with overlap
     ethr =  2.47E-11,  avg # of iterations =  2.0

     total cpu time spent up to now is       20.2 secs

     total energy              =    -329.49035802 Ry
     Harris-Foulkes estimate   =    -329.49035794 Ry
     estimated scf accuracy    <          2.3E-09 Ry

     iteration # 10     ecut=    30.00 Ry     beta=0.70
     Davidson diagonalization with overlap
     ethr =  4.09E-12,  avg # of iterations =  2.0

     total cpu time spent up to now is       20.5 secs

     End of self-consistent calculation

          k = 0.0000 0.0000 0.0000 ( 22119 PWs)   bands (ev):

    -8.4772  -7.7744  -7.6426  -7.2384  -6.9749  -6.7830  -6.6708  -6.4855
    -6.2609  -6.0279  -6.0050  -5.7540  -5.7226  -5.6904  -5.4344  -5.4029
    -5.3256  -5.2263  -5.2228  -5.1847  -5.1704  -5.1186  -4.9973  -4.9574
    -4.8697  -4.6317  -4.4774  -3.7468  -2.4499  -2.2263  -0.5143  -0.1616
     0.4334   0.6925

     the Fermi energy is    -3.7123 ev

!    total energy              =    -329.49035802 Ry
     Harris-Foulkes estimate   =    -329.49035802 Ry
     estimated scf accuracy    <          1.6E-10 Ry

     The total energy is the sum of the following terms:

     one-electron contribution =    -608.06980468 Ry
     hartree contribution      =     325.46685428 Ry
     xc contribution           =     -51.40151477 Ry
     ewald contribution        =       4.51883177 Ry
     smearing contrib. (-TS)   =      -0.00472463 Ry

     convergence has been achieved in  10 iterations

     Forces acting on atoms (Ry/au):

     atom    1 type  1   force =    -0.00123915   -0.00326221   -0.00379652
     atom    2 type  1   force =     0.00034727    0.00532756    0.00257210
     atom    3 type  1   force =     0.00237144   -0.00110397    0.00175399
     atom    4 type  1   force =    -0.00105342   -0.00225906    0.00075802
     atom    5 type  1   force =    -0.00042614    0.00129768   -0.00128760

     Total force =     0.009052     Total SCF correction =     0.000069

     number of scf cycles    =   6
     number of bfgs steps    =   5

     energy   old            =    -329.4901329809 Ry
     energy   new            =    -329.4903580224 Ry

     CASE: energy  _new < energy  _old

     new trust radius        =       0.0181765519 bohr
     new conv_thr            =       0.0000000002 Ry


ATOMIC_POSITIONS (bohr)
Au      -1.531282684   1.706579388  -1.183595015
Au      -0.762874918   3.375446290   3.596340040
Au       3.184045062   1.419415078   0.652896288
Au       3.968795467   4.146081466   5.510137989
Au       7.547043073   1.258638779   3.196997698



     Writing output data file pwscf.save
     Check: negative starting charge=   -0.006276
     NEW-OLD atomic charge density approx. for the potential
     Check: negative starting charge=   -0.006275

     negative rho (up, down):  6.702E-05 0.000E+00

     total cpu time spent up to now is       20.9 secs

     per-process dynamical memory:    50.7 Mb

     Self-consistent Calculation

     iteration #  1     ecut=    30.00 Ry     beta=0.70
     Davidson diagonalization with overlap
     ethr =  1.00E-06,  avg # of iterations =  4.0

     negative rho (up, down):  3.755E-07 0.000E+00

     total cpu time spent up to now is       21.5 secs

     total energy              =    -329.49042819 Ry
     Harris-Foulkes estimate   =    -329.49045107 Ry
     estimated scf accuracy    <       0.00008393 Ry

     iteration #  2     ecut=    30.00 Ry     beta=0.70
     Davidson diagonalization with overlap
     ethr =  1.53E-07,  avg # of iterations =  2.0

     negative rho (up, down):  2.251E-08 0.000E+00

     total cpu time spent up to now is       21.9 secs

     total energy              =    -329.49043918 Ry
     Harris-Foulkes estimate   =    -329.49047700 Ry
     estimated scf accuracy    <       0.00007924 Ry

     iteration #  3     ecut=    30.00 Ry     beta=0.70
     Davidson diagonalization with overlap
     ethr =  1.44E-07,  avg # of iterations =  2.0

     total cpu time spent up to now is       22.3 secs

     total energy              =    -329.49045540 Ry
     Harris-Foulkes estimate   =    -329.49046305 Ry
     estimated scf accuracy    <       0.00002162 Ry

     iteration #  4     ecut=    30.00 Ry     beta=0.70
     Davidson diagonalization with overlap
     ethr =  3.93E-08,  avg # of iterations =  2.0

     total cpu time spent up to now is       22.5 secs

     total energy              =    -329.49046091 Ry
     Harris-Foulkes estimate   =    -329.49046114 Ry
     estimated scf accuracy    <       0.00000338 Ry

     iteration #  5     ecut=    30.00 Ry     beta=0.70
     Davidson diagonalization with overlap
     ethr =  6.14E-09,  avg # of iterations =  2.0

     total cpu time spent up to now is       22.8 secs

     total energy              =    -329.49046145 Ry
     Harris-Foulkes estimate   =    -329.49046173 Ry
     estimated scf accuracy    <       0.00000069 Ry

     iteration #  6     ecut=    30.00 Ry     beta=0.70
     Davidson diagonalization with overlap
     ethr =  1.25E-09,  avg # of iterations =  2.0

     total cpu time spent up to now is       23.0 secs

     total energy              =    -329.49046165 Ry
     Harris-Foulkes estimate   =    -329.49046160 Ry
     estimated scf accuracy    <       0.00000004 Ry

     iteration #  7     ecut=    30.00 Ry     beta=0.70
     Davidson diagonalization with overlap
     ethr =  7.32E-11,  avg # of iterations =  3.0

     total cpu time spent up to now is       23.4 secs

     total energy              =    -329.49046168 Ry
     Harris-Foulkes estimate   =    -329.49046167 Ry
     estimated scf accuracy    <       0.00000002 Ry

     iteration #  8     ecut=    30.00 Ry     beta=0.70
     Davidson diagonalization with overlap
     ethr =  2.79E-11,  avg # of iterations =  2.0

     total cpu time spent up to now is       23.8 secs

     total energy              =    -329.49046166 Ry
     Harris-Foulkes estimate   =    -329.49046169 Ry
     estimated scf accuracy    <          2.4E-09 Ry

     iteration #  9     ecut=    30.00 Ry     beta=0.70
     Davidson diagonalization with overlap
     ethr =  4.44E-12,  avg # of iterations =  2.0

     total cpu time spent up to now is       24.0 secs

     total energy              =    -329.49046160 Ry
     Harris-Foulkes estimate   =    -329.49046166 Ry
     estimated scf accuracy    <          3.2E-10 Ry

     iteration # 10     ecut=    30.00 Ry     beta=0.70
     Davidson diagonalization with overlap
     ethr =  5.89E-13,  avg # of iterations =  2.0

     total cpu time spent up to now is       24.3 secs

     End of self-consistent calculation

          k = 0.0000 0.0000 0.0000 ( 22119 PWs)   bands (ev):

    -8.4819  -7.7786  -7.6485  -7.2450  -6.9672  -6.7839  -6.6636  -6.4907
    -6.2657  -6.0305  -6.0007  -5.7530  -5.7215  -5.6906  -5.4298  -5.4145
    -5.3244  -5.2264  -5.2244  -5.1842  -5.1700  -5.1171  -5.0014  -4.9573
    -4.8684  -4.6347  -4.4821  -3.7451  -2.4534  -2.2251  -0.5168  -0.1580
     0.4320   0.6964

     the Fermi energy is    -3.7099 ev

!    total energy              =    -329.49046159 Ry
     Harris-Foulkes estimate   =    -329.49046160 Ry
     estimated scf accuracy    <          2.2E-11 Ry

     The total energy is the sum of the following terms:

     one-electron contribution =    -608.09275737 Ry
     hartree contribution      =     325.47605851 Ry
     xc contribution           =     -51.40101560 Ry
     ewald contribution        =       4.53215473 Ry
     smearing contrib. (-TS)   =      -0.00490185 Ry

     convergence has been achieved in  10 iterations

     Forces acting on atoms (Ry/au):

     atom    1 type  1   force =    -0.00025166   -0.00321004   -0.00345326
     atom    2 type  1   force =    -0.00010082    0.00545610    0.00340954
     atom    3 type  1   force =     0.00200594   -0.00167008    0.00063543
     atom    4 type  1   force =    -0.00081300   -0.00209226    0.00068009
     atom    5 type  1   force =    -0.00084046    0.00151627   -0.00127180

     Total force =     0.009002     Total SCF correction =     0.000023

     number of scf cycles    =   7
     number of bfgs steps    =   6

     energy   old            =    -329.4903580224 Ry
     energy   new            =    -329.4904615873 Ry

     CASE: energy  _new < energy  _old

     new trust radius        =       0.0199942071 bohr
     new conv_thr            =       0.0000000001 Ry


ATOMIC_POSITIONS (bohr)
Au      -1.535906943   1.695020505  -1.190610100
Au      -0.765480306   3.391755466   3.585071010
Au       3.183901968   1.421986825   0.670067772
Au       3.966089199   4.135399350   5.515554856
Au       7.557122082   1.261998853   3.192693462



     Writing output data file pwscf.save
     Check: negative starting charge=   -0.006275
     NEW-OLD atomic charge density approx. for the potential
     Check: negative starting charge=   -0.006276

     negative rho (up, down):  9.408E-05 0.000E+00

     total cpu time spent up to now is       24.7 secs

     per-process dynamical memory:    50.7 Mb

     Self-consistent Calculation

     iteration #  1     ecut=    30.00 Ry     beta=0.70
     Davidson diagonalization with overlap
     ethr =  1.00E-06,  avg # of iterations =  4.0

     negative rho (up, down):  6.939E-07 0.000E+00

     total cpu time spent up to now is       25.3 secs

     total energy              =    -329.49054535 Ry
     Harris-Foulkes estimate   =    -329.49057643 Ry
     estimated scf accuracy    <       0.00010921 Ry

     iteration #  2     ecut=    30.00 Ry     beta=0.70
     Davidson diagonalization with overlap
     ethr =  1.99E-07,  avg # of iterations =  2.0

     negative rho (up, down):  4.248E-08 0.000E+00

     total cpu time spent up to now is       25.7 secs

     total energy              =    -329.49056237 Ry
     Harris-Foulkes estimate   =    -329.49060904 Ry
     estimated scf accuracy    <       0.00009735 Ry

     iteration #  3     ecut=    30.00 Ry     beta=0.70
     Davidson diagonalization with overlap
     ethr =  1.77E-07,  avg # of iterations =  2.0

     total cpu time spent up to now is       26.0 secs

     total energy              =    -329.49058182 Ry
     Harris-Foulkes estimate   =    -329.49059002 Ry
     estimated scf accuracy    <       0.00002121 Ry

     iteration #  4     ecut=    30.00 Ry     beta=0.70
     Davidson diagonalization with overlap
     ethr =  3.86E-08,  avg # of iterations =  2.0

     total cpu time spent up to now is       26.4 secs

     total energy              =    -329.49058738 Ry
     Harris-Foulkes estimate   =    -329.49058820 Ry
     estimated scf accuracy    <       0.00000463 Ry

     iteration #  5     ecut=    30.00 Ry     beta=0.70
     Davidson diagonalization with overlap
     ethr =  8.42E-09,  avg # of iterations =  2.0

     total cpu time spent up to now is       26.8 secs

     total energy              =    -329.49058826 Ry
     Harris-Foulkes estimate   =    -329.49058828 Ry
     estimated scf accuracy    <       0.00000038 Ry

     iteration #  6     ecut=    30.00 Ry     beta=0.70
     Davidson diagonalization with overlap
     ethr =  6.84E-10,  avg # of iterations =  2.0

     total cpu time spent up to now is       27.2 secs

     total energy              =    -329.49058845 Ry
     Harris-Foulkes estimate   =    -329.49058837 Ry
     estimated scf accuracy    <       0.00000006 Ry

     iteration #  7     ecut=    30.00 Ry     beta=0.70
     Davidson diagonalization with overlap
     ethr =  1.04E-10,  avg # of iterations =  2.0

     total cpu time spent up to now is       27.4 secs

     total energy              =    -329.49058858 Ry
     Harris-Foulkes estimate   =    -329.49058847 Ry
     estimated scf accuracy    <       0.00000001 Ry

     iteration #  8     ecut=    30.00 Ry     beta=0.70
     Davidson diagonalization with overlap
     ethr =  2.39E-11,  avg # of iterations =  2.0

     total cpu time spent up to now is       27.8 secs

     total energy              =    -329.49058857 Ry
     Harris-Foulkes estimate   =    -329.49058859 Ry
     estimated scf accuracy    <          4.0E-09 Ry

     iteration #  9     ecut=    30.00 Ry     beta=0.70
     Davidson diagonalization with overlap
     ethr =  7.35E-12,  avg # of iterations =  2.0

     total cpu time spent up to now is       28.2 secs

     total energy              =    -329.49058857 Ry
     Harris-Foulkes estimate   =    -329.49058857 Ry
     estimated scf accuracy    <          2.0E-10 Ry

     iteration # 10     ecut=    30.00 Ry     beta=0.70
     Davidson diagonalization with overlap
     ethr =  3.61E-13,  avg # of iterations =  2.0

     total cpu time spent up to now is       28.5 secs

     End of self-consistent calculation

          k = 0.0000 0.0000 0.0000 ( 22119 PWs)   bands (ev):

    -8.4829  -7.7793  -7.6537  -7.2480  -6.9577  -6.7830  -6.6542  -6.4943
    -6.2697  -6.0336  -5.9939  -5.7512  -5.7199  -5.6896  -5.4264  -5.4223
    -5.3234  -5.2295  -5.2231  -5.1845  -5.1688  -5.1161  -5.0046  -4.9567
    -4.8668  -4.6400  -4.4863  -3.7457  -2.4564  -2.2250  -0.5192  -0.1555
     0.4303   0.7023

     the Fermi energy is    -3.7101 ev

!    total energy              =    -329.49058858 Ry
     Harris-Foulkes estimate   =    -329.49058857 Ry
     estimated scf accuracy    <          1.6E-11 Ry

     The total energy is the sum of the following terms:

     one-electron contribution =    -607.94676980 Ry
     hartree contribution      =     325.40217647 Ry
     xc contribution           =     -51.39999006 Ry
     ewald contribution        =       4.45900689 Ry
     smearing contrib. (-TS)   =      -0.00501208 Ry

     convergence has been achieved in  10 iterations

     Forces acting on atoms (Ry/au):

     atom    1 type  1   force =     0.00112316   -0.00279788   -0.00237353
     atom    2 type  1   force =    -0.00073435    0.00500402    0.00339458
     atom    3 type  1   force =     0.00102207   -0.00204884   -0.00040779
     atom    4 type  1   force =    -0.00050185   -0.00187032    0.00059603
     atom    5 type  1   force =    -0.00090903    0.00171302   -0.00120929

     Total force =     0.008159     Total SCF correction =     0.000019

     number of scf cycles    =   8
     number of bfgs steps    =   7

     energy   old            =    -329.4904615873 Ry
     energy   new            =    -329.4905885825 Ry

     CASE: energy  _new < energy  _old

     new trust radius        =       0.0299913107 bohr
     new conv_thr            =       0.0000000001 Ry


ATOMIC_POSITIONS (bohr)
Au      -1.540000090   1.676483299  -1.202156217
Au      -0.770116125   3.419195210   3.573888509
Au       3.184185126   1.422863779   0.692012781
Au       3.962030879   4.119009213   5.523478506
Au       7.569626210   1.268609498   3.185553422



     Writing output data file pwscf.save
     Check: negative starting charge=   -0.006276
     NEW-OLD atomic charge density approx. for the potential
     Check: negative starting charge=   -0.006285

     negative rho (up, down):  2.447E-04 0.000E+00

     total cpu time spent up to now is       28.8 secs

     per-process dynamical memory:    50.7 Mb

     Self-consistent Calculation

     iteration #  1     ecut=    30.00 Ry     beta=0.70
     Davidson diagonalization with overlap
     ethr =  1.00E-06,  avg # of iterations =  4.0

     negative rho (up, down):  4.870E-06 0.000E+00

     total cpu time spent up to now is       29.5 secs

     total energy              =    -329.49066235 Ry
     Harris-Foulkes estimate   =    -329.49069943 Ry
     estimated scf accuracy    <       0.00023610 Ry

     iteration #  2     ecut=    30.00 Ry     beta=0.70
     Davidson diagonalization with overlap
     ethr =  4.29E-07,  avg # of iterations =  2.0

     negative rho (up, down):  4.412E-07 0.000E+00

     total cpu time spent up to now is       29.8 secs

     total energy              =    -329.49070104 Ry
     Harris-Foulkes estimate   =    -329.49080109 Ry
     estimated scf accuracy    <       0.00020676 Ry

     iteration #  3     ecut=    30.00 Ry     beta=0.70
     Davidson diagonalization with overlap
     ethr =  3.76E-07,  avg # of iterations =  2.0

     negative rho (up, down):  1.230E-08 0.000E+00

     total cpu time spent up to now is       30.1 secs

     total energy              =    -329.49074167 Ry
     Harris-Foulkes estimate   =    -329.49075813 Ry
     estimated scf accuracy    <       0.00004073 Ry

     iteration #  4     ecut=    30.00 Ry     beta=0.70
     Davidson diagonalization with overlap
     ethr =  7.41E-08,  avg # of iterations =  2.0

     total cpu time spent up to now is       30.4 secs

     total energy              =    -329.49075213 Ry
     Harris-Foulkes estimate   =    -329.49075475 Ry
     estimated scf accuracy    <       0.00001031 Ry

     iteration #  5     ecut=    30.00 Ry     beta=0.70
     Davidson diagonalization with overlap
     ethr =  1.87E-08,  avg # of iterations =  2.0

     total cpu time spent up to now is       30.6 secs

     total energy              =    -329.49075357 Ry
     Harris-Foulkes estimate   =    -329.49075391 Ry
     estimated scf accuracy    <       0.00000035 Ry

     iteration #  6     ecut=    30.00 Ry     beta=0.70
     Davidson diagonalization with overlap
     ethr =  6.44E-10,  avg # of iterations =  3.0

     total cpu time spent up to now is       30.9 secs

     total energy              =    -329.49075372 Ry
     Harris-Foulkes estimate   =    -329.49075372 Ry
     estimated scf accuracy    <       0.00000008 Ry

     iteration #  7     ecut=    30.00 Ry     beta=0.70
     Davidson diagonalization with overlap
     ethr =  1.36E-10,  avg # of iterations =  3.0

     total cpu time spent up to now is       31.2 secs

     total energy              =    -329.49075374 Ry
     Harris-Foulkes estimate   =    -329.49075375 Ry
     estimated scf accuracy    <       0.00000002 Ry

     iteration #  8     ecut=    30.00 Ry     beta=0.70
     Davidson diagonalization with overlap
     ethr =  3.96E-11,  avg # of iterations =  2.0

     total cpu time spent up to now is       31.6 secs

     total energy              =    -329.49075379 Ry
     Harris-Foulkes estimate   =    -329.49075374 Ry
     estimated scf accuracy    <          5.2E-09 Ry

     iteration #  9     ecut=    30.00 Ry     beta=0.70
     Davidson diagonalization with overlap
     ethr =  9.38E-12,  avg # of iterations =  2.0

     total cpu time spent up to now is       31.9 secs

     total energy              =    -329.49075377 Ry
     Harris-Foulkes estimate   =    -329.49075379 Ry
     estimated scf accuracy    <          7.1E-10 Ry

     iteration # 10     ecut=    30.00 Ry     beta=0.70
     Davidson diagonalization with overlap
     ethr =  1.29E-12,  avg # of iterations =  2.0

     total cpu time spent up to now is       32.3 secs

     End of self-consistent calculation

          k = 0.0000 0.0000 0.0000 ( 22119 PWs)   bands (ev):

    -8.4807  -7.7762  -7.6588  -7.2463  -6.9433  -6.7806  -6.6398  -6.4964
    -6.2735  -6.0382  -5.9828  -5.7485  -5.7175  -5.6870  -5.4353  -5.4154
    -5.3225  -5.2336  -5.2212  -5.1857  -5.1663  -5.1155  -5.0073  -4.9553
    -4.8643  -4.6498  -4.4909  -3.7492  -2.4590  -2.2265  -0.5219  -0.1539
     0.4282   0.7123

     the Fermi energy is    -3.7132 ev

!    total energy              =    -329.49075378 Ry
     Harris-Foulkes estimate   =    -329.49075377 Ry
     estimated scf accuracy    <          4.6E-11 Ry

     The total energy is the sum of the following terms:

     one-electron contribution =    -607.56563858 Ry
     hartree contribution      =     325.21213367 Ry
     xc contribution           =     -51.39810031 Ry
     ewald contribution        =       4.26593022 Ry
     smearing contrib. (-TS)   =      -0.00507878 Ry

     convergence has been achieved in  10 iterations

     Forces acting on atoms (Ry/au):

     atom    1 type  1   force =     0.00307134   -0.00187250   -0.00035014
     atom    2 type  1   force =    -0.00136463    0.00394215    0.00243206
     atom    3 type  1   force =    -0.00076917   -0.00236564   -0.00148646
     atom    4 type  1   force =    -0.00022231   -0.00159365    0.00048332
     atom    5 type  1   force =    -0.00071522    0.00188965   -0.00107878

     Total force =     0.007270     Total SCF correction =     0.000028

     number of scf cycles    =   9
     number of bfgs steps    =   8

     energy   old            =    -329.4905885825 Ry
     energy   new            =    -329.4907537807 Ry

     CASE: energy  _new < energy  _old

     new trust radius        =       0.0446495016 bohr
     new conv_thr            =       0.0000000002 Ry


ATOMIC_POSITIONS (bohr)
Au      -1.540211740   1.649050029  -1.218077593
Au      -0.778065666   3.461972715   3.563865140
Au       3.183435498   1.419798898   0.718076936
Au       3.956102201   4.094796938   5.534602438
Au       7.584465707   1.280542420   3.174310080



     Writing output data file pwscf.save
     Check: negative starting charge=   -0.006285
     NEW-OLD atomic charge density approx. for the potential
     Check: negative starting charge=   -0.006306

     negative rho (up, down):  5.175E-04 0.000E+00

     total cpu time spent up to now is       32.7 secs

     per-process dynamical memory:    50.7 Mb

     Self-consistent Calculation

     iteration #  1     ecut=    30.00 Ry     beta=0.70
     Davidson diagonalization with overlap
     ethr =  1.00E-06,  avg # of iterations =  5.0

     negative rho (up, down):  2.013E-05 0.000E+00

     total cpu time spent up to now is       33.4 secs

     total energy              =    -329.49075561 Ry
     Harris-Foulkes estimate   =    -329.49070226 Ry
     estimated scf accuracy    <       0.00047643 Ry

     iteration #  2     ecut=    30.00 Ry     beta=0.70
     Davidson diagonalization with overlap
     ethr =  8.66E-07,  avg # of iterations =  4.0

     negative rho (up, down):  2.846E-06 0.000E+00

     total cpu time spent up to now is       33.8 secs

     total energy              =    -329.49084396 Ry
     Harris-Foulkes estimate   =    -329.49103306 Ry
     estimated scf accuracy    <       0.00039370 Ry

     iteration #  3     ecut=    30.00 Ry     beta=0.70
     Davidson diagonalization with overlap
     ethr =  7.16E-07,  avg # of iterations =  2.0

     negative rho (up, down):  1.116E-07 0.000E+00

     total cpu time spent up to now is       34.2 secs

     total energy              =    -329.49091923 Ry
     Harris-Foulkes estimate   =    -329.49094749 Ry
     estimated scf accuracy    <       0.00006487 Ry

     iteration #  4     ecut=    30.00 Ry     beta=0.70
     Davidson diagonalization with overlap
     ethr =  1.18E-07,  avg # of iterations =  2.0

     total cpu time spent up to now is       34.5 secs

     total energy              =    -329.49093567 Ry
     Harris-Foulkes estimate   =    -329.49094407 Ry
     estimated scf accuracy    <       0.00002656 Ry

     iteration #  5     ecut=    30.00 Ry     beta=0.70
     Davidson diagonalization with overlap
     ethr =  4.83E-08,  avg # of iterations =  2.0

     total cpu time spent up to now is       34.7 secs

     total energy              =    -329.49093997 Ry
     Harris-Foulkes estimate   =    -329.49094007 Ry
     estimated scf accuracy    <       0.00000073 Ry

     iteration #  6     ecut=    30.00 Ry     beta=0.70
     Davidson diagonalization with overlap
     ethr =  1.32E-09,  avg # of iterations =  3.0

     total cpu time spent up to now is       35.0 secs

     total energy              =    -329.49094038 Ry
     Harris-Foulkes estimate   =    -329.49094033 Ry
     estimated scf accuracy    <       0.00000024 Ry

     iteration #  7     ecut=    30.00 Ry     beta=0.70
     Davidson diagonalization with overlap
     ethr =  4.41E-10,  avg # of iterations =  2.0

     total cpu time spent up to now is       35.3 secs

     total energy              =    -329.49094052 Ry
     Harris-Foulkes estimate   =    -329.49094046 Ry
     estimated scf accuracy    <       0.00000006 Ry

     iteration #  8     ecut=    30.00 Ry     beta=0.70
     Davidson diagonalization with overlap
     ethr =  1.04E-10,  avg # of iterations =  2.0

     total cpu time spent up to now is       35.7 secs

     total energy              =    -329.49094057 Ry
     Harris-Foulkes estimate   =    -329.49094053 Ry
     estimated scf accuracy    <          9.6E-09 Ry

     iteration #  9     ecut=    30.00 Ry     beta=0.70
     Davidson diagonalization with overlap
     ethr =  1.74E-11,  avg # of iterations =  2.0

     total cpu time spent up to now is       36.0 secs

     total energy              =    -329.49094059 Ry
     Harris-Foulkes estimate   =    -329.49094058 Ry
     estimated scf accuracy    <          1.5E-09 Ry

     iteration # 10     ecut=    30.00 Ry     beta=0.70
     Davidson diagonalization with overlap
     ethr =  2.64E-12,  avg # of iterations =  2.0

     total cpu time spent up to now is       36.3 secs

     End of self-consistent calculation

          k = 0.0000 0.0000 0.0000 ( 22119 PWs)   bands (ev):

    -8.4761  -7.7685  -7.6626  -7.2377  -6.9234  -6.7780  -6.6192  -6.4955
    -6.2766  -6.0444  -5.9672  -5.7460  -5.7144  -5.6837  -5.4437  -5.4042
    -5.3217  -5.2387  -5.2190  -5.1878  -5.1626  -5.1157  -5.0083  -4.9532
    -4.8606  -4.6652  -4.4955  -3.7563  -2.4600  -2.2307  -0.5251  -0.1541
     0.4264   0.7283

     the Fermi energy is    -3.7205 ev

!    total energy              =    -329.49094059 Ry
     Harris-Foulkes estimate   =    -329.49094059 Ry
     estimated scf accuracy    <          1.3E-10 Ry

     The total energy is the sum of the following terms:

     one-electron contribution =    -606.91436448 Ry
     hartree contribution      =     324.88894212 Ry
     xc contribution           =     -51.39537292 Ry
     ewald contribution        =       3.93492328 Ry
     smearing contrib. (-TS)   =      -0.00506859 Ry

     convergence has been achieved in  10 iterations

     Forces acting on atoms (Ry/au):

     atom    1 type  1   force =     0.00521278   -0.00059362    0.00245494
     atom    2 type  1   force =    -0.00147518    0.00302648    0.00025039
     atom    3 type  1   force =    -0.00314371   -0.00274095   -0.00225216
     atom    4 type  1   force =    -0.00021997   -0.00150387    0.00035712
     atom    5 type  1   force =    -0.00037391    0.00181196   -0.00081029

     Total force =     0.008599     Total SCF correction =     0.000049

     number of scf cycles    =  10
     number of bfgs steps    =   9

     energy   old            =    -329.4907537807 Ry
     energy   new            =    -329.4909405873 Ry

     CASE: energy  _new < energy  _old

     new trust radius        =       0.0491144518 bohr
     new conv_thr            =       0.0000000002 Ry


ATOMIC_POSITIONS (bohr)
Au      -1.535552873   1.620465416  -1.231791194
Au      -0.787156252   3.509011552   3.553051332
Au       3.179583508   1.414006667   0.743166362
Au       3.949479421   4.068253924   5.546366354
Au       7.599372195   1.294423441   3.161984145



     Writing output data file pwscf.save
     Check: negative starting charge=   -0.006306
     NEW-OLD atomic charge density approx. for the potential
     Check: negative starting charge=   -0.006333

     negative rho (up, down):  5.896E-04 0.000E+00

     total cpu time spent up to now is       36.6 secs

     per-process dynamical memory:    50.7 Mb

     Self-consistent Calculation

     iteration #  1     ecut=    30.00 Ry     beta=0.70
     Davidson diagonalization with overlap
     ethr =  1.00E-06,  avg # of iterations =  5.0

     negative rho (up, down):  2.534E-05 0.000E+00

     total cpu time spent up to now is       37.2 secs

     total energy              =    -329.49091952 Ry
     Harris-Foulkes estimate   =    -329.49083146 Ry
     estimated scf accuracy    <       0.00053957 Ry

     iteration #  2     ecut=    30.00 Ry     beta=0.70
     Davidson diagonalization with overlap
     ethr =  9.81E-07,  avg # of iterations =  4.0

     negative rho (up, down):  3.523E-06 0.000E+00

     total cpu time spent up to now is       37.6 secs

     total energy              =    -329.49103164 Ry
     Harris-Foulkes estimate   =    -329.49122429 Ry
     estimated scf accuracy    <       0.00040057 Ry

     iteration #  3     ecut=    30.00 Ry     beta=0.70
     Davidson diagonalization with overlap
     ethr =  7.28E-07,  avg # of iterations =  2.0

     negative rho (up, down):  4.668E-08 0.000E+00

     total cpu time spent up to now is       38.0 secs

     total energy              =    -329.49110962 Ry
     Harris-Foulkes estimate   =    -329.49112806 Ry
     estimated scf accuracy    <       0.00004005 Ry

     iteration #  4     ecut=    30.00 Ry     beta=0.70
     Davidson diagonalization with overlap
     ethr =  7.28E-08,  avg # of iterations =  3.0

     total cpu time spent up to now is       38.4 secs

     total energy              =    -329.49111856 Ry
     Harris-Foulkes estimate   =    -329.49113280 Ry
     estimated scf accuracy    <       0.00004177 Ry

     iteration #  5     ecut=    30.00 Ry     beta=0.70
     Davidson diagonalization with overlap
     ethr =  7.28E-08,  avg # of iterations =  2.0

     total cpu time spent up to now is       38.7 secs

     total energy              =    -329.49112482 Ry
     Harris-Foulkes estimate   =    -329.49112531 Ry
     estimated scf accuracy    <       0.00000059 Ry

     iteration #  6     ecut=    30.00 Ry     beta=0.70
     Davidson diagonalization with overlap
     ethr =  1.07E-09,  avg # of iterations =  4.0

     total cpu time spent up to now is       39.2 secs

     total energy              =    -329.49112503 Ry
     Harris-Foulkes estimate   =    -329.49112515 Ry
     estimated scf accuracy    <       0.00000019 Ry

     iteration #  7     ecut=    30.00 Ry     beta=0.70
     Davidson diagonalization with overlap
     ethr =  3.41E-10,  avg # of iterations =  2.0

     total cpu time spent up to now is       39.6 secs

     total energy              =    -329.49112505 Ry
     Harris-Foulkes estimate   =    -329.49112508 Ry
     estimated scf accuracy    <       0.00000005 Ry

     iteration #  8     ecut=    30.00 Ry     beta=0.70
     Davidson diagonalization with overlap
     ethr =  8.65E-11,  avg # of iterations =  2.0

     total cpu time spent up to now is       39.8 secs

     total energy              =    -329.49112501 Ry
     Harris-Foulkes estimate   =    -329.49112506 Ry
     estimated scf accuracy    <       0.00000001 Ry

     iteration #  9     ecut=    30.00 Ry     beta=0.70
     Davidson diagonalization with overlap
     ethr =  2.17E-11,  avg # of iterations =  2.0

     total cpu time spent up to now is       40.2 secs

     total energy              =    -329.49112497 Ry
     Harris-Foulkes estimate   =    -329.49112501 Ry
     estimated scf accuracy    <          1.8E-09 Ry

     iteration # 10     ecut=    30.00 Ry     beta=0.70
     Davidson diagonalization with overlap
     ethr =  3.23E-12,  avg # of iterations =  2.0

     total cpu time spent up to now is       40.6 secs

     total energy              =    -329.49112497 Ry
     Harris-Foulkes estimate   =    -329.49112497 Ry
     estimated scf accuracy    <          2.4E-10 Ry

     iteration # 11     ecut=    30.00 Ry     beta=0.70
     Davidson diagonalization with overlap
     ethr =  4.43E-13,  avg # of iterations =  2.0

     total cpu time spent up to now is       40.8 secs

     End of self-consistent calculation

          k = 0.0000 0.0000 0.0000 ( 22119 PWs)   bands (ev):

    -8.4746  -7.7616  -7.6654  -7.2277  -6.9033  -6.7778  -6.5984  -6.4938
    -6.2794  -6.0519  -5.9516  -5.7458  -5.7117  -5.6821  -5.4499  -5.3929
    -5.3207  -5.2439  -5.2165  -5.1894  -5.1594  -5.1164  -5.0078  -4.9513
    -4.8562  -4.6805  -4.4992  -3.7635  -2.4590  -2.2357  -0.5282  -0.1545
     0.4260   0.7457

     the Fermi energy is    -3.7277 ev

!    total energy              =    -329.49112496 Ry
     Harris-Foulkes estimate   =    -329.49112497 Ry
     estimated scf accuracy    <          3.0E-11 Ry

     The total energy is the sum of the following terms:

     one-electron contribution =    -606.32640539 Ry
     hartree contribution      =     324.59747742 Ry
     xc contribution           =     -51.39313304 Ry
     ewald contribution        =       3.63597301 Ry
     smearing contrib. (-TS)   =      -0.00503696 Ry

     convergence has been achieved in  11 iterations

     Forces acting on atoms (Ry/au):

     atom    1 type  1   force =     0.00658173    0.00042693    0.00462408
     atom    2 type  1   force =    -0.00125010    0.00269391   -0.00159138
     atom    3 type  1   force =    -0.00462551   -0.00306986   -0.00259822
     atom    4 type  1   force =    -0.00036451   -0.00171867    0.00011326
     atom    5 type  1   force =    -0.00034161    0.00166769   -0.00054773

     Total force =     0.010959     Total SCF correction =     0.000026

     number of scf cycles    =  11
     number of bfgs steps    =  10

     energy   old            =    -329.4909405873 Ry
     energy   new            =    -329.4911249631 Ry

     CASE: energy  _new < energy  _old

     new trust radius        =       0.0736716776 bohr
     new conv_thr            =       0.0000000002 Ry


ATOMIC_POSITIONS (bohr)
Au      -1.525431537   1.579382317  -1.248594633
Au      -0.800620534   3.579126886   3.534883529
Au       3.171331355   1.404103515   0.779173672
Au       3.939341341   4.028231408   5.563485435
Au       7.621105375   1.315316873   3.143828997



     Writing output data file pwscf.save
     Check: negative starting charge=   -0.006333
     NEW-OLD atomic charge density approx. for the potential
     Check: negative starting charge=   -0.006375

     negative rho (up, down):  1.173E-03 0.000E+00

     total cpu time spent up to now is       41.2 secs

     per-process dynamical memory:    50.7 Mb

     Self-consistent Calculation

     iteration #  1     ecut=    30.00 Ry     beta=0.70
     Davidson diagonalization with overlap
     ethr =  1.00E-06,  avg # of iterations = 10.0

     negative rho (up, down):  8.199E-05 0.000E+00

     total cpu time spent up to now is       41.8 secs

     total energy              =    -329.49087179 Ry
     Harris-Foulkes estimate   =    -329.49042854 Ry
     estimated scf accuracy    <       0.00118238 Ry

     iteration #  2     ecut=    30.00 Ry     beta=0.70
     Davidson diagonalization with overlap
     ethr =  2.15E-06,  avg # of iterations =  5.0

     negative rho (up, down):  1.709E-05 0.000E+00

     total cpu time spent up to now is       42.2 secs

     total energy              =    -329.49113383 Ry
     Harris-Foulkes estimate   =    -329.49153292 Ry
     estimated scf accuracy    <       0.00085363 Ry

     iteration #  3     ecut=    30.00 Ry     beta=0.70
     Davidson diagonalization with overlap
     ethr =  1.55E-06,  avg # of iterations =  2.0

     negative rho (up, down):  1.976E-07 0.000E+00

     total cpu time spent up to now is       42.4 secs

     total energy              =    -329.49130597 Ry
     Harris-Foulkes estimate   =    -329.49132900 Ry
     estimated scf accuracy    <       0.00005650 Ry

     iteration #  4     ecut=    30.00 Ry     beta=0.70
     Davidson diagonalization with overlap
     ethr =  1.03E-07,  avg # of iterations =  3.0

     total cpu time spent up to now is       42.7 secs

     total energy              =    -329.49131561 Ry
     Harris-Foulkes estimate   =    -329.49134810 Ry
     estimated scf accuracy    <       0.00009619 Ry

     iteration #  5     ecut=    30.00 Ry     beta=0.70
     Davidson diagonalization with overlap
     ethr =  1.03E-07,  avg # of iterations =  2.0

     total cpu time spent up to now is       42.9 secs

     total energy              =    -329.49133064 Ry
     Harris-Foulkes estimate   =    -329.49133151 Ry
     estimated scf accuracy    <       0.00000143 Ry

     iteration #  6     ecut=    30.00 Ry     beta=0.70
     Davidson diagonalization with overlap
     ethr =  2.60E-09,  avg # of iterations =  4.0

     total cpu time spent up to now is       43.3 secs

     total energy              =    -329.49133121 Ry
     Harris-Foulkes estimate   =    -329.49133124 Ry
     estimated scf accuracy    <       0.00000034 Ry

     iteration #  7     ecut=    30.00 Ry     beta=0.70
     Davidson diagonalization with overlap
     ethr =  6.17E-10,  avg # of iterations =  3.0

     total cpu time spent up to now is       43.5 secs

     total energy              =    -329.49133130 Ry
     Harris-Foulkes estimate   =    -329.49133132 Ry
     estimated scf accuracy    <       0.00000011 Ry

     iteration #  8     ecut=    30.00 Ry     beta=0.70
     Davidson diagonalization with overlap
     ethr =  2.05E-10,  avg # of iterations =  2.0

     total cpu time spent up to now is       43.8 secs

     total energy              =    -329.49133121 Ry
     Harris-Foulkes estimate   =    -329.49133133 Ry
     estimated scf accuracy    <       0.00000002 Ry

     iteration #  9     ecut=    30.00 Ry     beta=0.70
     Davidson diagonalization with overlap
     ethr =  3.22E-11,  avg # of iterations =  2.0

     total cpu time spent up to now is       44.1 secs

     total energy              =    -329.49133120 Ry
     Harris-Foulkes estimate   =    -329.49133122 Ry
     estimated scf accuracy    <          3.1E-09 Ry

     iteration # 10     ecut=    30.00 Ry     beta=0.70
     Davidson diagonalization with overlap
     ethr =  5.70E-12,  avg # of iterations =  2.0

     total cpu time spent up to now is       44.4 secs

     total energy              =    -329.49133122 Ry
     Harris-Foulkes estimate   =    -329.49133121 Ry
     estimated scf accuracy    <          7.4E-10 Ry

     iteration # 11     ecut=    30.00 Ry     beta=0.70
     Davidson diagonalization with overlap
     ethr =  1.35E-12,  avg # of iterations =  2.0

     total cpu time spent up to now is       44.7 secs

     End of self-consistent calculation

          k = 0.0000 0.0000 0.0000 ( 22119 PWs)   bands (ev):

    -8.4753  -7.7532  -7.6689  -7.2124  -6.8742  -6.7793  -6.5686  -6.4920
    -6.2822  -6.0637  -5.9298  -5.7475  -5.7087  -5.6807  -5.4574  -5.3776
    -5.3194  -5.2517  -5.2128  -5.1905  -5.1558  -5.1178  -5.0064  -4.9496
    -4.8481  -4.7014  -4.5048  -3.7725  -2.4561  -2.2441  -0.5319  -0.1544
     0.4269   0.7709

     the Fermi energy is    -3.7370 ev

!    total energy              =    -329.49133121 Ry
     Harris-Foulkes estimate   =    -329.49133122 Ry
     estimated scf accuracy    <          3.7E-11 Ry

     The total energy is the sum of the following terms:

     one-electron contribution =    -605.56165052 Ry
     hartree contribution      =     324.21866363 Ry
     xc contribution           =     -51.39039484 Ry
     ewald contribution        =       3.24706011 Ry
     smearing contrib. (-TS)   =      -0.00500959 Ry

     convergence has been achieved in  11 iterations

     Forces acting on atoms (Ry/au):

     atom    1 type  1   force =     0.00770134    0.00195512    0.00741271
     atom    2 type  1   force =    -0.00067296    0.00082258   -0.00418095
     atom    3 type  1   force =    -0.00587983   -0.00265464   -0.00311970
     atom    4 type  1   force =    -0.00049532   -0.00227365   -0.00020339
     atom    5 type  1   force =    -0.00065322    0.00215059    0.00009133

     Total force =     0.014091     Total SCF correction =     0.000027

     number of scf cycles    =  12
     number of bfgs steps    =  11

     energy   old            =    -329.4911249631 Ry
     energy   new            =    -329.4913312067 Ry

     CASE: energy  _new < energy  _old

     new trust radius        =       0.0548121702 bohr
     new conv_thr            =       0.0000000002 Ry


ATOMIC_POSITIONS (bohr)
Au      -1.509342449   1.551523746  -1.254037101
Au      -0.810573809   3.631373884   3.521633717
Au       3.160930795   1.392634438   0.799359938
Au       3.931255475   3.996911689   5.575198137
Au       7.633455989   1.333717244   3.130622310



     Writing output data file pwscf.save
     Check: negative starting charge=   -0.006375
     NEW-OLD atomic charge density approx. for the potential
     Check: negative starting charge=   -0.006396

     negative rho (up, down):  6.814E-04 0.000E+00

     total cpu time spent up to now is       44.9 secs

     per-process dynamical memory:    50.7 Mb

     Self-consistent Calculation

     iteration #  1     ecut=    30.00 Ry     beta=0.70
     Davidson diagonalization with overlap
     ethr =  1.00E-06,  avg # of iterations =  5.0

     negative rho (up, down):  3.334E-05 0.000E+00

     total cpu time spent up to now is       45.4 secs

     total energy              =    -329.49130730 Ry
     Harris-Foulkes estimate   =    -329.49116786 Ry
     estimated scf accuracy    <       0.00063366 Ry

     iteration #  2     ecut=    30.00 Ry     beta=0.70
     Davidson diagonalization with overlap
     ethr =  1.15E-06,  avg # of iterations =  4.0

     negative rho (up, down):  5.128E-06 0.000E+00

     total cpu time spent up to now is       45.8 secs

     total energy              =    -329.49144892 Ry
     Harris-Foulkes estimate   =    -329.49165969 Ry
     estimated scf accuracy    <       0.00044399 Ry

     iteration #  3     ecut=    30.00 Ry     beta=0.70
     Davidson diagonalization with overlap
     ethr =  8.07E-07,  avg # of iterations =  2.0

     total cpu time spent up to now is       46.1 secs

     total energy              =    -329.49153818 Ry
     Harris-Foulkes estimate   =    -329.49154673 Ry
     estimated scf accuracy    <       0.00001964 Ry

     iteration #  4     ecut=    30.00 Ry     beta=0.70
     Davidson diagonalization with overlap
     ethr =  3.57E-08,  avg # of iterations =  3.0

[...]
     number of bfgs steps    =  29

     energy   old            =    -329.4925610903 Ry
     energy   new            =    -329.4925856165 Ry

     CASE: energy  _new < energy  _old

     new trust radius        =       0.0141906614 bohr
     new conv_thr            =            1.0E-10 Ry


ATOMIC_POSITIONS (bohr)
Au      -1.475292906   1.469138174  -1.146363349
Au      -0.828839449   3.872362057   3.392351901
Au       3.176634123   1.326842308   0.819884602
Au       3.854738800   3.826307852   5.591465279
Au       7.678485433   1.411510609   3.115438568



     Writing output data file pwscf.save
     Check: negative starting charge=   -0.006410
     NEW-OLD atomic charge density approx. for the potential
     Check: negative starting charge=   -0.006406

     negative rho (up, down):  3.917E-05 0.000E+00

     total cpu time spent up to now is      126.9 secs

     per-process dynamical memory:    50.7 Mb

     Self-consistent Calculation

     iteration #  1     ecut=    30.00 Ry     beta=0.70
     Davidson diagonalization with overlap
     ethr =  1.00E-06,  avg # of iterations =  4.0

     negative rho (up, down):  1.206E-07 0.000E+00

     total cpu time spent up to now is      127.6 secs

     total energy              =    -329.49258929 Ry
     Harris-Foulkes estimate   =    -329.49261638 Ry
     estimated scf accuracy    <       0.00006767 Ry

     iteration #  2     ecut=    30.00 Ry     beta=0.70
     Davidson diagonalization with overlap
     ethr =  1.23E-07,  avg # of iterations =  2.0

     total cpu time spent up to now is      128.0 secs

     total energy              =    -329.49260225 Ry
     Harris-Foulkes estimate   =    -329.49262729 Ry
     estimated scf accuracy    <       0.00005032 Ry

     iteration #  3     ecut=    30.00 Ry     beta=0.70
     Davidson diagonalization with overlap
     ethr =  9.15E-08,  avg # of iterations =  2.0

     total cpu time spent up to now is      128.4 secs

     total energy              =    -329.49261212 Ry
     Harris-Foulkes estimate   =    -329.49261344 Ry
     estimated scf accuracy    <       0.00000151 Ry

     iteration #  4     ecut=    30.00 Ry     beta=0.70
     Davidson diagonalization with overlap
     ethr =  2.75E-09,  avg # of iterations =  3.0

     total cpu time spent up to now is      128.9 secs

     total energy              =    -329.49261184 Ry
     Harris-Foulkes estimate   =    -329.49261312 Ry
     estimated scf accuracy    <       0.00000228 Ry

     iteration #  5     ecut=    30.00 Ry     beta=0.70
     Davidson diagonalization with overlap
     ethr =  2.75E-09,  avg # of iterations =  3.0

     total cpu time spent up to now is      129.3 secs

     total energy              =    -329.49261201 Ry
     Harris-Foulkes estimate   =    -329.49261233 Ry
     estimated scf accuracy    <       0.00000018 Ry

     iteration #  6     ecut=    30.00 Ry     beta=0.70
     Davidson diagonalization with overlap
     ethr =  3.28E-10,  avg # of iterations =  2.0

     total cpu time spent up to now is      129.7 secs

     total energy              =    -329.49261197 Ry
     Harris-Foulkes estimate   =    -329.49261205 Ry
     estimated scf accuracy    <       0.00000001 Ry

     iteration #  7     ecut=    30.00 Ry     beta=0.70
     Davidson diagonalization with overlap
     ethr =  2.16E-11,  avg # of iterations =  3.0

     total cpu time spent up to now is      130.1 secs

     total energy              =    -329.49261195 Ry
     Harris-Foulkes estimate   =    -329.49261198 Ry
     estimated scf accuracy    <          6.7E-09 Ry

     iteration #  8     ecut=    30.00 Ry     beta=0.70
     Davidson diagonalization with overlap
     ethr =  1.23E-11,  avg # of iterations =  2.0

     total cpu time spent up to now is      130.5 secs

     total energy              =    -329.49261194 Ry
     Harris-Foulkes estimate   =    -329.49261195 Ry
     estimated scf accuracy    <          4.3E-10 Ry

     iteration #  9     ecut=    30.00 Ry     beta=0.70
     Davidson diagonalization with overlap
     ethr =  7.82E-13,  avg # of iterations =  3.0

     total cpu time spent up to now is      130.9 secs

     End of self-consistent calculation

          k = 0.0000 0.0000 0.0000 ( 22119 PWs)   bands (ev):

    -8.5173  -7.7889  -7.6701  -7.2415  -6.8478  -6.8193  -6.6094  -6.4886
    -6.3157  -6.0821  -5.9503  -5.7704  -5.7287  -5.6881  -5.4663  -5.3613
    -5.3146  -5.2537  -5.1953  -5.1803  -5.1739  -5.1189  -5.0001  -4.9216
    -4.8280  -4.7386  -4.4798  -3.7718  -2.4549  -2.2057  -0.5442  -0.1572
     0.4645   0.8397

     the Fermi energy is    -3.7381 ev

!    total energy              =    -329.49261197 Ry
     Harris-Foulkes estimate   =    -329.49261194 Ry
     estimated scf accuracy    <          4.9E-11 Ry

     The total energy is the sum of the following terms:

     one-electron contribution =    -607.78947385 Ry
     hartree contribution      =     325.32336288 Ry
     xc contribution           =     -51.40052075 Ry
     ewald contribution        =       4.37861377 Ry
     smearing contrib. (-TS)   =      -0.00459401 Ry

     convergence has been achieved in   9 iterations

     Forces acting on atoms (Ry/au):

     atom    1 type  1   force =     0.00106960   -0.00067751    0.00073494
     atom    2 type  1   force =    -0.00055828    0.00030356   -0.00002576
     atom    3 type  1   force =    -0.00050800    0.00060069   -0.00048778
     atom    4 type  1   force =     0.00021240    0.00072200    0.00062733
     atom    5 type  1   force =    -0.00021572   -0.00094874   -0.00084873

     Total force =     0.002456     Total SCF correction =     0.000033

     number of scf cycles    =  31
     number of bfgs steps    =  30

     energy   old            =    -329.4925856165 Ry
     energy   new            =    -329.4926119650 Ry

     CASE: energy  _new < energy  _old

     new trust radius        =       0.0075828787 bohr
     new conv_thr            =            1.0E-10 Ry


ATOMIC_POSITIONS (bohr)
Au      -1.477265080   1.464821104  -1.142129354
Au      -0.827927431   3.878037761   3.391734812
Au       3.179445994   1.330433418   0.813941791
Au       3.854980566   3.828359358   5.591667844
Au       7.676491951   1.404509358   3.117561907



     Writing output data file pwscf.save
     Check: negative starting charge=   -0.006406
     NEW-OLD atomic charge density approx. for the potential
     Check: negative starting charge=   -0.006404

     negative rho (up, down):  3.955E-06 0.000E+00

     total cpu time spent up to now is      131.4 secs

     per-process dynamical memory:    50.7 Mb

     Self-consistent Calculation

     iteration #  1     ecut=    30.00 Ry     beta=0.70
     Davidson diagonalization with overlap
     ethr =  1.00E-06,  avg # of iterations =  4.0

     Threshold (ethr) on eigenvalues was too large:
     Diagonalizing with lowered threshold

     Davidson diagonalization with overlap
     ethr =  3.76E-08,  avg # of iterations =  1.0

     total cpu time spent up to now is      132.3 secs

     total energy              =    -329.49261792 Ry
     Harris-Foulkes estimate   =    -329.49263159 Ry
     estimated scf accuracy    <       0.00002183 Ry

     iteration #  2     ecut=    30.00 Ry     beta=0.70
     Davidson diagonalization with overlap
     ethr =  3.97E-08,  avg # of iterations =  2.0

     total cpu time spent up to now is      132.7 secs

     total energy              =    -329.49262206 Ry
     Harris-Foulkes estimate   =    -329.49263056 Ry
     estimated scf accuracy    <       0.00001744 Ry

     iteration #  3     ecut=    30.00 Ry     beta=0.70
     Davidson diagonalization with overlap
     ethr =  3.17E-08,  avg # of iterations =  2.0

     total cpu time spent up to now is      133.1 secs

     total energy              =    -329.49262457 Ry
     Harris-Foulkes estimate   =    -329.49262597 Ry
     estimated scf accuracy    <       0.00000075 Ry

     iteration #  4     ecut=    30.00 Ry     beta=0.70
     Davidson diagonalization with overlap
     ethr =  1.36E-09,  avg # of iterations =  3.0

     total cpu time spent up to now is      133.5 secs

     total energy              =    -329.49262412 Ry
     Harris-Foulkes estimate   =    -329.49262516 Ry
     estimated scf accuracy    <       0.00000143 Ry

     iteration #  5     ecut=    30.00 Ry     beta=0.70
     Davidson diagonalization with overlap
     ethr =  1.36E-09,  avg # of iterations =  3.0

     total cpu time spent up to now is      133.9 secs

     total energy              =    -329.49262440 Ry
     Harris-Foulkes estimate   =    -329.49262438 Ry
     estimated scf accuracy    <       0.00000005 Ry

     iteration #  6     ecut=    30.00 Ry     beta=0.70
     Davidson diagonalization with overlap
     ethr =  8.95E-11,  avg # of iterations =  2.0

     total cpu time spent up to now is      134.4 secs

     total energy              =    -329.49262441 Ry
     Harris-Foulkes estimate   =    -329.49262442 Ry
     estimated scf accuracy    <          6.0E-09 Ry

     iteration #  7     ecut=    30.00 Ry     beta=0.70
     Davidson diagonalization with overlap
     ethr =  1.09E-11,  avg # of iterations =  3.0

     total cpu time spent up to now is      134.8 secs

     total energy              =    -329.49262442 Ry
     Harris-Foulkes estimate   =    -329.49262441 Ry
     estimated scf accuracy    <          2.4E-09 Ry

     iteration #  8     ecut=    30.00 Ry     beta=0.70
     Davidson diagonalization with overlap
     ethr =  4.30E-12,  avg # of iterations =  2.0

     total cpu time spent up to now is      135.2 secs

     total energy              =    -329.49262443 Ry
     Harris-Foulkes estimate   =    -329.49262442 Ry
     estimated scf accuracy    <          2.9E-10 Ry

     iteration #  9     ecut=    30.00 Ry     beta=0.70
     Davidson diagonalization with overlap
     ethr =  5.19E-13,  avg # of iterations =  3.0

     total cpu time spent up to now is      135.6 secs

     End of self-consistent calculation

          k = 0.0000 0.0000 0.0000 ( 22119 PWs)   bands (ev):

    -8.5139  -7.7850  -7.6663  -7.2382  -6.8482  -6.8177  -6.6079  -6.4854
    -6.3142  -6.0804  -5.9500  -5.7700  -5.7282  -5.6874  -5.4639  -5.3619
    -5.3150  -5.2526  -5.1955  -5.1801  -5.1738  -5.1194  -4.9996  -4.9215
    -4.8295  -4.7388  -4.4793  -3.7731  -2.4549  -2.2064  -0.5434  -0.1584
     0.4646   0.8398

     the Fermi energy is    -3.7398 ev

!    total energy              =    -329.49262442 Ry
     Harris-Foulkes estimate   =    -329.49262443 Ry
     estimated scf accuracy    <          9.6E-11 Ry

     The total energy is the sum of the following terms:

     one-electron contribution =    -607.61134204 Ry
     hartree contribution      =     325.23584791 Ry
     xc contribution           =     -51.40002689 Ry
     ewald contribution        =       4.28743737 Ry
     smearing contrib. (-TS)   =      -0.00454077 Ry

     convergence has been achieved in   9 iterations

     Forces acting on atoms (Ry/au):

     atom    1 type  1   force =     0.00110829   -0.00059519    0.00067782
     atom    2 type  1   force =    -0.00038244    0.00013701   -0.00019468
     atom    3 type  1   force =    -0.00072745    0.00065515   -0.00002115
     atom    4 type  1   force =     0.00026561    0.00046632    0.00036718
     atom    5 type  1   force =    -0.00026401   -0.00066329   -0.00082917

     Total force =     0.002196     Total SCF correction =     0.000031

     number of scf cycles    =  32
     number of bfgs steps    =  31

     energy   old            =    -329.4926119650 Ry
     energy   new            =    -329.4926244163 Ry

     CASE: energy  _new < energy  _old

     new trust radius        =       0.0083411665 bohr
     new conv_thr            =            1.0E-10 Ry


ATOMIC_POSITIONS (bohr)
Au      -1.476554766   1.457809109  -1.137668139
Au      -0.828166417   3.886086346   3.390595813
Au       3.180558600   1.335016869   0.809232629
Au       3.856042050   3.830503458   5.592900369
Au       7.673846534   1.396745219   3.117716329



     Writing output data file pwscf.save
     Check: negative starting charge=   -0.006404
     NEW-OLD atomic charge density approx. for the potential
     Check: negative starting charge=   -0.006402

     negative rho (up, down):  7.938E-06 0.000E+00

     total cpu time spent up to now is      136.0 secs

     per-process dynamical memory:    50.7 Mb

     Self-consistent Calculation

     iteration #  1     ecut=    30.00 Ry     beta=0.70
     Davidson diagonalization with overlap
     ethr =  1.00E-06,  avg # of iterations =  4.0

     Threshold (ethr) on eigenvalues was too large:
     Diagonalizing with lowered threshold

     Davidson diagonalization with overlap
     ethr =  4.72E-08,  avg # of iterations =  1.0

     total cpu time spent up to now is      136.9 secs

     total energy              =    -329.49263075 Ry
     Harris-Foulkes estimate   =    -329.49264694 Ry
     estimated scf accuracy    <       0.00002744 Ry

     iteration #  2     ecut=    30.00 Ry     beta=0.70
     Davidson diagonalization with overlap
     ethr =  4.99E-08,  avg # of iterations =  2.0

     total cpu time spent up to now is      137.3 secs

     total energy              =    -329.49263516 Ry
     Harris-Foulkes estimate   =    -329.49264683 Ry
     estimated scf accuracy    <       0.00002309 Ry

     iteration #  3     ecut=    30.00 Ry     beta=0.70
     Davidson diagonalization with overlap
     ethr =  4.20E-08,  avg # of iterations =  2.0

     total cpu time spent up to now is      137.7 secs

     total energy              =    -329.49263912 Ry
     Harris-Foulkes estimate   =    -329.49264051 Ry
     estimated scf accuracy    <       0.00000154 Ry

     iteration #  4     ecut=    30.00 Ry     beta=0.70
     Davidson diagonalization with overlap
     ethr =  2.80E-09,  avg # of iterations =  3.0

     total cpu time spent up to now is      138.0 secs

     total energy              =    -329.49263896 Ry
     Harris-Foulkes estimate   =    -329.49264016 Ry
     estimated scf accuracy    <       0.00000228 Ry

     iteration #  5     ecut=    30.00 Ry     beta=0.70
     Davidson diagonalization with overlap
     ethr =  2.80E-09,  avg # of iterations =  2.0

     total cpu time spent up to now is      138.4 secs

     total energy              =    -329.49263939 Ry
     Harris-Foulkes estimate   =    -329.49263936 Ry
     estimated scf accuracy    <       0.00000006 Ry

     iteration #  6     ecut=    30.00 Ry     beta=0.70
     Davidson diagonalization with overlap
     ethr =  1.04E-10,  avg # of iterations =  3.0

     total cpu time spent up to now is      138.8 secs

     total energy              =    -329.49263930 Ry
     Harris-Foulkes estimate   =    -329.49263941 Ry
     estimated scf accuracy    <       0.00000001 Ry

     iteration #  7     ecut=    30.00 Ry     beta=0.70
     Davidson diagonalization with overlap
     ethr =  1.84E-11,  avg # of iterations =  3.0

     total cpu time spent up to now is      139.3 secs

     total energy              =    -329.49263927 Ry
     Harris-Foulkes estimate   =    -329.49263931 Ry
     estimated scf accuracy    <          3.3E-09 Ry

     iteration #  8     ecut=    30.00 Ry     beta=0.70
     Davidson diagonalization with overlap
     ethr =  5.97E-12,  avg # of iterations =  2.0

     total cpu time spent up to now is      139.7 secs

     total energy              =    -329.49263926 Ry
     Harris-Foulkes estimate   =    -329.49263927 Ry
     estimated scf accuracy    <          6.2E-10 Ry

     iteration #  9     ecut=    30.00 Ry     beta=0.70
     Davidson diagonalization with overlap
     ethr =  1.12E-12,  avg # of iterations =  2.0

     total cpu time spent up to now is      140.0 secs

     End of self-consistent calculation

          k = 0.0000 0.0000 0.0000 ( 22119 PWs)   bands (ev):

    -8.5133  -7.7820  -7.6617  -7.2328  -6.8474  -6.8182  -6.6057  -6.4821
    -6.3107  -6.0806  -5.9494  -5.7702  -5.7289  -5.6867  -5.4611  -5.3619
    -5.3150  -5.2519  -5.1958  -5.1795  -5.1737  -5.1199  -4.9977  -4.9224
    -4.8314  -4.7380  -4.4794  -3.7745  -2.4529  -2.2086  -0.5424  -0.1596
     0.4655   0.8401

     the Fermi energy is    -3.7413 ev

!    total energy              =    -329.49263926 Ry
     Harris-Foulkes estimate   =    -329.49263926 Ry
     estimated scf accuracy    <          9.8E-11 Ry

     The total energy is the sum of the following terms:

     one-electron contribution =    -607.44442305 Ry
     hartree contribution      =     325.15391476 Ry
     xc contribution           =     -51.39959940 Ry
     ewald contribution        =       4.20197084 Ry
     smearing contrib. (-TS)   =      -0.00450241 Ry

     convergence has been achieved in   9 iterations

     Forces acting on atoms (Ry/au):

     atom    1 type  1   force =     0.00073490   -0.00042154    0.00050284
     atom    2 type  1   force =    -0.00004112   -0.00004665   -0.00031684
     atom    3 type  1   force =    -0.00060281    0.00062645    0.00053149
     atom    4 type  1   force =     0.00021534    0.00016584   -0.00001610
     atom    5 type  1   force =    -0.00030631   -0.00032409   -0.00070139

     Total force =     0.001697     Total SCF correction =     0.000039

     bfgs converged in  33 scf cycles and  32 bfgs steps
     (criteria: energy <  1.0E-04, force <  1.0E-03)

     End of BFGS Geometry Optimization

     Final energy   =    -329.4926392575 Ry
Begin final coordinates

ATOMIC_POSITIONS (bohr)
Au      -1.476554766   1.457809109  -1.137668139
Au      -0.828166417   3.886086346   3.390595813
Au       3.180558600   1.335016869   0.809232629
Au       3.856042050   3.830503458   5.592900369
Au       7.673846534   1.396745219   3.117716329
End final coordinates



     Writing output data file pwscf.save
 
     init_run     :      0.24s CPU      0.27s WALL (       1 calls)
     electrons    :    122.34s CPU    129.71s WALL (      33 calls)
     update_pot   :      3.71s CPU      4.53s WALL (      32 calls)
     forces       :      1.93s CPU      2.00s WALL (      33 calls)

     Called by init_run:
     wfcinit      :      0.11s CPU      0.13s WALL (       1 calls)
     potinit      :      0.03s CPU      0.03s WALL (       1 calls)

     Called by electrons:
     c_bands      :     92.28s CPU     94.35s WALL (     339 calls)
     sum_band     :     11.78s CPU     12.08s WALL (     339 calls)
     v_of_rho     :     10.08s CPU     10.31s WALL (     358 calls)
     mix_rho      :      4.34s CPU      6.97s WALL (     339 calls)

     Called by c_bands:
     init_us_2    :      1.05s CPU      1.10s WALL (     679 calls)
     cegterg      :     85.34s CPU     87.21s WALL (     339 calls)

     Called by sum_band:

     Called by *egterg:
     h_psi        :     65.35s CPU     66.66s WALL (    1195 calls)
     g_psi        :      0.39s CPU      0.39s WALL (     855 calls)
     cdiaghg      :      5.08s CPU      5.21s WALL (    1148 calls)

     Called by h_psi:
     h_psi:pot    :     64.78s CPU     66.08s WALL (    1195 calls)
     h_psi:calbec :      8.19s CPU      8.45s WALL (    1195 calls)
     vloc_psi     :     54.13s CPU     55.17s WALL (    1195 calls)
     add_vuspsi   :      2.45s CPU      2.46s WALL (    1195 calls)

     General routines
     calbec       :      8.76s CPU      9.06s WALL (    1327 calls)
     fft          :      7.34s CPU      7.59s WALL (    4031 calls)
     fftw         :     59.11s CPU     60.54s WALL (   75608 calls)
     davcio       :      0.43s CPU      2.37s WALL (    3438 calls)
 
     Parallel routines
     fft_scatter  :     36.00s CPU     36.82s WALL (   79639 calls)
 
     PWSCF        :  2m10.05s CPU     2m20.40s WALL

 
   This run was terminated on:   1:33:37  29Jul2017            

=------------------------------------------------------------------------------=
   JOB DONE.
=------------------------------------------------------------------------------=
