
     Program PWSCF v.6.0 (svn rev. 13079) starts on  6Feb2018 at 19:50:59 

     This program is part of the open-source Quantum ESPRESSO suite
     for quantum simulation of materials; please cite
         "P. Giannozzi et al., J. Phys.:Condens. Matter 21 395502 (2009);
          URL http://www.quantum-espresso.org", 
     in publications or presentations arising from this work. More details at
     http://www.quantum-espresso.org/quote

     Parallel version (MPI), running on    28 processors
     R & G space division:  proc/nbgrp/npool/nimage =      28
     Reading input from inputs/rand-water-1/1894.in
Warning: card &IONS ignored
Warning: card     POT_EXTRAPOLATION='SECOND-ORDER' ignored
Warning: card     WFC_EXTRAPOLATION='SECOND-ORDER' ignored
Warning: card     ION_TEMPERATURE = 'ANDERSEN' ignored
Warning: card     TEMPW = 1000 ignored
Warning: card / ignored

     Current dimensions of program PWSCF are:
     Max number of different atomic species (ntypx) = 10
     Max number of k-points (npk) =  40000
     Max angular momentum in pseudopotentials (lmaxx) =  3

     Subspace diagonalization in iterative solution of the eigenvalue problem:
     a serial algorithm will be used

 
     Parallelization info
     --------------------
     sticks:   dense  smooth     PW     G-vecs:    dense   smooth      PW
     Min         136     136     33                 6338     6338     787
     Max         137     137     34                 6341     6341     792
     Sum        3809    3809    949               177509   177509   22119
 


     bravais-lattice index     =            1
     lattice parameter (alat)  =      20.0000  a.u.
     unit-cell volume          =    8000.0000 (a.u.)^3
     number of atoms/cell      =            3
     number of atomic types    =            2
     number of electrons       =         8.00
     number of Kohn-Sham states=            8
     kinetic-energy cutoff     =      30.0000  Ry
     charge density cutoff     =     120.0000  Ry
     convergence threshold     =      1.0E-08
     mixing beta               =       0.7000
     number of iterations used =            8  plain     mixing
     Exchange-correlation      = BLYP ( 1  3  1  3 0 0)

     celldm(1)=  20.000000  celldm(2)=   0.000000  celldm(3)=   0.000000
     celldm(4)=   0.000000  celldm(5)=   0.000000  celldm(6)=   0.000000

     crystal axes: (cart. coord. in units of alat)
               a(1) = (   1.000000   0.000000   0.000000 )  
               a(2) = (   0.000000   1.000000   0.000000 )  
               a(3) = (   0.000000   0.000000   1.000000 )  

     reciprocal axes: (cart. coord. in units 2 pi/alat)
               b(1) = (  1.000000  0.000000  0.000000 )  
               b(2) = (  0.000000  1.000000  0.000000 )  
               b(3) = (  0.000000  0.000000  1.000000 )  


     PseudoPot. # 1 for  H read from file:
     ./H.blyp-hgh.UPF
     MD5 check sum: c576e69559cde411e611be972c763230
     Pseudo is Norm-conserving, Zval =  1.0
     Generated in analytical, separable form
     Using radial grid of  929 points,  0 beta functions with: 

     PseudoPot. # 2 for  O read from file:
     ./O.blyp-hgh.UPF
     MD5 check sum: d0b7156309aa9befef28faac7bc56342
     Pseudo is Norm-conserving, Zval =  6.0
     Generated in analytical, separable form
     Using radial grid of 1095 points,  1 beta functions with: 
                l(1) =   0

     atomic species   valence    mass     pseudopotential
        H              1.00     1.01000      H( 1.00)
        O              6.00    16.00000      O( 1.00)

     No symmetry found



   Cartesian axes

     site n.     atom                  positions (alat units)
         1           H   tau(   1) = (   0.1309007   0.3738463   0.0353017  )
         2           H   tau(   2) = (   0.5005848   0.3462966   0.6412608  )
         3           O   tau(   3) = (   0.9819263   0.7213565   0.6808519  )

     number of k points=     1  Marzari-Vanderbilt smearing, width (Ry)=  0.0250
                       cart. coord. in units 2pi/alat
        k(    1) = (   0.0000000   0.0000000   0.0000000), wk =   2.0000000

     Dense  grid:   177509 G-vectors     FFT dimensions: (  72,  72,  72)

     Estimated max dynamical RAM per process >       6.09Mb

     Estimated total allocated dynamical RAM >     170.64Mb

     Initial potential from superposition of free atoms
     Check: negative starting charge=   -0.349950

     starting charge    7.99998, renormalised to    8.00000

     negative rho (up, down):  3.500E-01 0.000E+00
     Starting wfc are    6 randomized atomic wfcs +    2 random wfc

     total cpu time spent up to now is        0.3 secs

     per-process dynamical memory:    18.8 Mb

     Self-consistent Calculation

     iteration #  1     ecut=    30.00 Ry     beta=0.70
     Davidson diagonalization with overlap
     ethr =  1.00E-02,  avg # of iterations =  7.0

     negative rho (up, down):  8.382E-02 0.000E+00

     total cpu time spent up to now is        0.4 secs

     total energy              =     -28.06084015 Ry
     Harris-Foulkes estimate   =     -32.08693242 Ry
     estimated scf accuracy    <       4.61434999 Ry

     iteration #  2     ecut=    30.00 Ry     beta=0.70
     Davidson diagonalization with overlap
     ethr =  1.00E-02,  avg # of iterations =  4.0

     negative rho (up, down):  9.147E+00 0.000E+00

     total cpu time spent up to now is        0.4 secs

     total energy              =     -32.79554984 Ry
     Harris-Foulkes estimate   =     -37.98178156 Ry
     estimated scf accuracy    <      12.95870841 Ry

     iteration #  3     ecut=    30.00 Ry     beta=0.70
     Davidson diagonalization with overlap
     ethr =  1.00E-02,  avg # of iterations = 10.0

     negative rho (up, down):  5.078E+00 0.000E+00

     total cpu time spent up to now is        0.5 secs

     total energy              =     -28.46911523 Ry
     Harris-Foulkes estimate   =     -36.98903007 Ry
     estimated scf accuracy    <      18.84361938 Ry

     iteration #  4     ecut=    30.00 Ry     beta=0.70
     Davidson diagonalization with overlap
     ethr =  1.00E-02,  avg # of iterations =  7.0

     negative rho (up, down):  3.286E+00 0.000E+00

     total cpu time spent up to now is        0.6 secs

     total energy              =     -34.85492800 Ry
     Harris-Foulkes estimate   =     -34.31334316 Ry
     estimated scf accuracy    <       8.08351972 Ry

     iteration #  5     ecut=    30.00 Ry     beta=0.70
     Davidson diagonalization with overlap
     ethr =  1.00E-02,  avg # of iterations =  1.0

     negative rho (up, down):  9.710E-01 0.000E+00

     total cpu time spent up to now is        0.6 secs

     total energy              =     -35.40386103 Ry
     Harris-Foulkes estimate   =     -34.86869235 Ry
     estimated scf accuracy    <       8.62511487 Ry

     iteration #  6     ecut=    30.00 Ry     beta=0.70
     Davidson diagonalization with overlap
     ethr =  1.00E-02,  avg # of iterations =  2.0

     negative rho (up, down):  2.342E-01 0.000E+00

     total cpu time spent up to now is        0.7 secs

     total energy              =     -34.12630246 Ry
     Harris-Foulkes estimate   =     -35.42227622 Ry
     estimated scf accuracy    <       9.00783929 Ry

     iteration #  7     ecut=    30.00 Ry     beta=0.70
     Davidson diagonalization with overlap
     ethr =  1.00E-02,  avg # of iterations =  1.0

     negative rho (up, down):  3.719E-02 0.000E+00

     total cpu time spent up to now is        0.7 secs

     total energy              =     -31.69908239 Ry
     Harris-Foulkes estimate   =     -34.13914819 Ry
     estimated scf accuracy    <       6.94808098 Ry

     iteration #  8     ecut=    30.00 Ry     beta=0.70
     Davidson diagonalization with overlap
     ethr =  1.00E-02,  avg # of iterations =  2.0

     negative rho (up, down):  3.484E-02 0.000E+00

     total cpu time spent up to now is        0.8 secs

     total energy              =     -31.26741660 Ry
     Harris-Foulkes estimate   =     -31.80255629 Ry
     estimated scf accuracy    <       3.22856336 Ry

     iteration #  9     ecut=    30.00 Ry     beta=0.70
     Davidson diagonalization with overlap
     ethr =  1.00E-02,  avg # of iterations =  1.0

     negative rho (up, down):  2.086E-03 0.000E+00

     total cpu time spent up to now is        0.8 secs

     total energy              =     -30.53013641 Ry
     Harris-Foulkes estimate   =     -31.72435545 Ry
     estimated scf accuracy    <       4.13837396 Ry

     iteration # 10     ecut=    30.00 Ry     beta=0.70
     Davidson diagonalization with overlap
     ethr =  1.00E-02,  avg # of iterations =  1.0

     negative rho (up, down):  7.666E-04 0.000E+00

     total cpu time spent up to now is        0.8 secs

     total energy              =     -31.37647492 Ry
     Harris-Foulkes estimate   =     -32.47165417 Ry
     estimated scf accuracy    <       4.24603264 Ry

     iteration # 11     ecut=    30.00 Ry     beta=0.70
     Davidson diagonalization with overlap
     ethr =  1.00E-02,  avg # of iterations =  1.0

     negative rho (up, down):  6.338E-04 0.000E+00

     total cpu time spent up to now is        0.9 secs

     total energy              =     -31.34095733 Ry
     Harris-Foulkes estimate   =     -31.51257460 Ry
     estimated scf accuracy    <       2.57398144 Ry

     iteration # 12     ecut=    30.00 Ry     beta=0.70
     Davidson diagonalization with overlap
     ethr =  1.00E-02,  avg # of iterations =  1.0

     negative rho (up, down):  3.066E-04 0.000E+00

     total cpu time spent up to now is        0.9 secs

     total energy              =     -31.45367327 Ry
     Harris-Foulkes estimate   =     -31.58983509 Ry
     estimated scf accuracy    <       2.82922059 Ry

     iteration # 13     ecut=    30.00 Ry     beta=0.70
     Davidson diagonalization with overlap
     ethr =  1.00E-02,  avg # of iterations =  1.0

     negative rho (up, down):  3.352E-04 0.000E+00

     total cpu time spent up to now is        0.9 secs

     total energy              =     -31.48870987 Ry
     Harris-Foulkes estimate   =     -31.49230694 Ry
     estimated scf accuracy    <       0.11987091 Ry

     iteration # 14     ecut=    30.00 Ry     beta=0.70
     Davidson diagonalization with overlap
     ethr =  1.50E-03,  avg # of iterations =  1.0

     negative rho (up, down):  1.814E-04 0.000E+00

     total cpu time spent up to now is        1.0 secs

     total energy              =     -31.48740853 Ry
     Harris-Foulkes estimate   =     -31.49825573 Ry
     estimated scf accuracy    <       0.65122330 Ry

     iteration # 15     ecut=    30.00 Ry     beta=0.70
     Davidson diagonalization with overlap
     ethr =  1.50E-03,  avg # of iterations =  1.0

     negative rho (up, down):  6.954E-05 0.000E+00

     total cpu time spent up to now is        1.0 secs

     total energy              =     -31.47765955 Ry
     Harris-Foulkes estimate   =     -31.49091396 Ry
     estimated scf accuracy    <       0.06267661 Ry

     iteration # 16     ecut=    30.00 Ry     beta=0.70
     Davidson diagonalization with overlap
     ethr =  7.83E-04,  avg # of iterations =  1.0

     negative rho (up, down):  7.574E-04 0.000E+00

     total cpu time spent up to now is        1.0 secs

     total energy              =     -31.50923842 Ry
     Harris-Foulkes estimate   =     -31.56087583 Ry
     estimated scf accuracy    <       4.86610831 Ry

     iteration # 17     ecut=    30.00 Ry     beta=0.70
     Davidson diagonalization with overlap
     ethr =  7.83E-04,  avg # of iterations =  1.0

     negative rho (up, down):  7.464E-04 0.000E+00

     total cpu time spent up to now is        1.1 secs

     total energy              =     -31.41356823 Ry
     Harris-Foulkes estimate   =     -31.51462635 Ry
     estimated scf accuracy    <       2.49957051 Ry

     iteration # 18     ecut=    30.00 Ry     beta=0.70
     Davidson diagonalization with overlap
     ethr =  7.83E-04,  avg # of iterations =  1.0

     negative rho (up, down):  4.243E-04 0.000E+00

     total cpu time spent up to now is        1.1 secs

     total energy              =     -31.51756110 Ry
     Harris-Foulkes estimate   =     -31.51842661 Ry
     estimated scf accuracy    <       1.89938877 Ry

     iteration # 19     ecut=    30.00 Ry     beta=0.70
     Davidson diagonalization with overlap
     ethr =  7.83E-04,  avg # of iterations =  1.0

     negative rho (up, down):  2.009E-04 0.000E+00

     total cpu time spent up to now is        1.1 secs

     total energy              =     -31.47719376 Ry
     Harris-Foulkes estimate   =     -31.51757789 Ry
     estimated scf accuracy    <       1.86889433 Ry

     iteration # 20     ecut=    30.00 Ry     beta=0.70
     Davidson diagonalization with overlap
     ethr =  7.83E-04,  avg # of iterations =  1.0

     negative rho (up, down):  3.347E-05 0.000E+00

     total cpu time spent up to now is        1.2 secs

     total energy              =     -31.49061466 Ry
     Harris-Foulkes estimate   =     -31.49114982 Ry
     estimated scf accuracy    <       0.07547148 Ry

     iteration # 21     ecut=    30.00 Ry     beta=0.70
     Davidson diagonalization with overlap
     ethr =  7.83E-04,  avg # of iterations =  1.0

     negative rho (up, down):  2.295E-06 0.000E+00

     total cpu time spent up to now is        1.2 secs

     total energy              =     -31.49040554 Ry
     Harris-Foulkes estimate   =     -31.49069421 Ry
     estimated scf accuracy    <       0.03751575 Ry

     iteration # 22     ecut=    30.00 Ry     beta=0.70
     Davidson diagonalization with overlap
     ethr =  4.69E-04,  avg # of iterations =  1.0

     negative rho (up, down):  3.784E-05 0.000E+00

     total cpu time spent up to now is        1.2 secs

     total energy              =     -31.49032844 Ry
     Harris-Foulkes estimate   =     -31.49046418 Ry
     estimated scf accuracy    <       0.01455675 Ry

     iteration # 23     ecut=    30.00 Ry     beta=0.70
     Davidson diagonalization with overlap
     ethr =  1.82E-04,  avg # of iterations =  1.0

     negative rho (up, down):  4.780E-06 0.000E+00

     total cpu time spent up to now is        1.3 secs

     total energy              =     -31.49023274 Ry
     Harris-Foulkes estimate   =     -31.49036676 Ry
     estimated scf accuracy    <       0.00872146 Ry

     iteration # 24     ecut=    30.00 Ry     beta=0.70
     Davidson diagonalization with overlap
     ethr =  1.09E-04,  avg # of iterations =  1.0

     negative rho (up, down):  1.063E-05 0.000E+00

     total cpu time spent up to now is        1.3 secs

     total energy              =     -31.49028185 Ry
     Harris-Foulkes estimate   =     -31.49028943 Ry
     estimated scf accuracy    <       0.00028365 Ry

     iteration # 25     ecut=    30.00 Ry     beta=0.70
     Davidson diagonalization with overlap
     ethr =  3.55E-06,  avg # of iterations = 15.0

     negative rho (up, down):  7.305E-06 0.000E+00

     total cpu time spent up to now is        1.4 secs

     total energy              =     -31.49028814 Ry
     Harris-Foulkes estimate   =     -31.49028834 Ry
     estimated scf accuracy    <       0.00007338 Ry

     iteration # 26     ecut=    30.00 Ry     beta=0.70
     Davidson diagonalization with overlap
     ethr =  9.17E-07,  avg # of iterations =  1.0

     negative rho (up, down):  4.412E-07 0.000E+00

     total cpu time spent up to now is        1.4 secs

     total energy              =     -31.49028687 Ry
     Harris-Foulkes estimate   =     -31.49028818 Ry
     estimated scf accuracy    <       0.00004771 Ry

     iteration # 27     ecut=    30.00 Ry     beta=0.70
     Davidson diagonalization with overlap
     ethr =  5.96E-07,  avg # of iterations =  1.0

     negative rho (up, down):  3.017E-08 0.000E+00

     total cpu time spent up to now is        1.4 secs

     total energy              =     -31.49028769 Ry
     Harris-Foulkes estimate   =     -31.49028770 Ry
     estimated scf accuracy    <       0.00000482 Ry

     iteration # 28     ecut=    30.00 Ry     beta=0.70
     Davidson diagonalization with overlap
     ethr =  6.02E-08,  avg # of iterations =  1.0

     negative rho (up, down):  1.240E-08 0.000E+00

     total cpu time spent up to now is        1.5 secs

     total energy              =     -31.49028770 Ry
     Harris-Foulkes estimate   =     -31.49028770 Ry
     estimated scf accuracy    <       0.00000133 Ry

     iteration # 29     ecut=    30.00 Ry     beta=0.70
     Davidson diagonalization with overlap
     ethr =  1.67E-08,  avg # of iterations =  1.0

     total cpu time spent up to now is        1.5 secs

     End of self-consistent calculation

          k = 0.0000 0.0000 0.0000 ( 22119 PWs)   bands (ev):

   -23.6113  -7.0220  -7.0214  -7.0205  -6.9229  -6.9085  -0.2421   0.6220

     the Fermi energy is    -6.8864 ev

!    total energy              =     -31.49028776 Ry
     Harris-Foulkes estimate   =     -31.49028772 Ry
     estimated scf accuracy    <          7.0E-10 Ry

     The total energy is the sum of the following terms:

     one-electron contribution =     -39.30940024 Ry
     hartree contribution      =      20.92399573 Ry
     xc contribution           =      -7.06051893 Ry
     ewald contribution        =      -6.01065668 Ry
     smearing contrib. (-TS)   =      -0.03370763 Ry

     convergence has been achieved in  29 iterations

     Writing output data file pwscf.save
 
     init_run     :      0.10s CPU      0.12s WALL (       1 calls)
     electrons    :      0.91s CPU      1.31s WALL (       1 calls)

     Called by init_run:
     wfcinit      :      0.02s CPU      0.03s WALL (       1 calls)
     potinit      :      0.02s CPU      0.03s WALL (       1 calls)

     Called by electrons:
     c_bands      :      0.34s CPU      0.38s WALL (      29 calls)
     sum_band     :      0.08s CPU      0.08s WALL (      29 calls)
     v_of_rho     :      0.23s CPU      0.24s WALL (      30 calls)
     mix_rho      :      0.24s CPU      0.46s WALL (      29 calls)

     Called by c_bands:
     init_us_2    :      0.00s CPU      0.00s WALL (      59 calls)
     cegterg      :      0.33s CPU      0.34s WALL (      29 calls)

     Called by sum_band:

     Called by *egterg:
     h_psi        :      0.30s CPU      0.31s WALL (      99 calls)
     g_psi        :      0.00s CPU      0.00s WALL (      69 calls)
     cdiaghg      :      0.02s CPU      0.02s WALL (      98 calls)

     Called by h_psi:
     h_psi:pot    :      0.29s CPU      0.31s WALL (      99 calls)
     h_psi:calbec :      0.01s CPU      0.01s WALL (      99 calls)
     vloc_psi     :      0.29s CPU      0.30s WALL (      99 calls)
     add_vuspsi   :      0.00s CPU      0.00s WALL (      99 calls)

     General routines
     calbec       :      0.00s CPU      0.01s WALL (      99 calls)
     fft          :      0.15s CPU      0.17s WALL (     329 calls)
     fftw         :      0.31s CPU      0.33s WALL (    1408 calls)
     davcio       :      0.03s CPU      0.17s WALL (     488 calls)
 
     Parallel routines
     fft_scatter  :      0.20s CPU      0.23s WALL (    1737 calls)
 
     PWSCF        :     1.12s CPU         1.73s WALL

 
   This run was terminated on:  19:51: 1   6Feb2018            

=------------------------------------------------------------------------------=
   JOB DONE.
=------------------------------------------------------------------------------=
