
     Program PWSCF v.6.0 (svn rev. 13079) starts on  6Feb2018 at 20: 9:51 

     This program is part of the open-source Quantum ESPRESSO suite
     for quantum simulation of materials; please cite
         "P. Giannozzi et al., J. Phys.:Condens. Matter 21 395502 (2009);
          URL http://www.quantum-espresso.org", 
     in publications or presentations arising from this work. More details at
     http://www.quantum-espresso.org/quote

     Parallel version (MPI), running on    28 processors
     R & G space division:  proc/nbgrp/npool/nimage =      28
     Reading input from inputs/rand-water-1/2328.in
Warning: card &IONS ignored
Warning: card     POT_EXTRAPOLATION='SECOND-ORDER' ignored
Warning: card     WFC_EXTRAPOLATION='SECOND-ORDER' ignored
Warning: card     ION_TEMPERATURE = 'ANDERSEN' ignored
Warning: card     TEMPW = 1000 ignored
Warning: card / ignored

     Current dimensions of program PWSCF are:
     Max number of different atomic species (ntypx) = 10
     Max number of k-points (npk) =  40000
     Max angular momentum in pseudopotentials (lmaxx) =  3

     Subspace diagonalization in iterative solution of the eigenvalue problem:
     a serial algorithm will be used

 
     Parallelization info
     --------------------
     sticks:   dense  smooth     PW     G-vecs:    dense   smooth      PW
     Min         136     136     33                 6338     6338     787
     Max         137     137     34                 6341     6341     792
     Sum        3809    3809    949               177509   177509   22119
 


     bravais-lattice index     =            1
     lattice parameter (alat)  =      20.0000  a.u.
     unit-cell volume          =    8000.0000 (a.u.)^3
     number of atoms/cell      =            3
     number of atomic types    =            2
     number of electrons       =         8.00
     number of Kohn-Sham states=            8
     kinetic-energy cutoff     =      30.0000  Ry
     charge density cutoff     =     120.0000  Ry
     convergence threshold     =      1.0E-08
     mixing beta               =       0.7000
     number of iterations used =            8  plain     mixing
     Exchange-correlation      = BLYP ( 1  3  1  3 0 0)

     celldm(1)=  20.000000  celldm(2)=   0.000000  celldm(3)=   0.000000
     celldm(4)=   0.000000  celldm(5)=   0.000000  celldm(6)=   0.000000

     crystal axes: (cart. coord. in units of alat)
               a(1) = (   1.000000   0.000000   0.000000 )  
               a(2) = (   0.000000   1.000000   0.000000 )  
               a(3) = (   0.000000   0.000000   1.000000 )  

     reciprocal axes: (cart. coord. in units 2 pi/alat)
               b(1) = (  1.000000  0.000000  0.000000 )  
               b(2) = (  0.000000  1.000000  0.000000 )  
               b(3) = (  0.000000  0.000000  1.000000 )  


     PseudoPot. # 1 for  H read from file:
     ./H.blyp-hgh.UPF
     MD5 check sum: c576e69559cde411e611be972c763230
     Pseudo is Norm-conserving, Zval =  1.0
     Generated in analytical, separable form
     Using radial grid of  929 points,  0 beta functions with: 

     PseudoPot. # 2 for  O read from file:
     ./O.blyp-hgh.UPF
     MD5 check sum: d0b7156309aa9befef28faac7bc56342
     Pseudo is Norm-conserving, Zval =  6.0
     Generated in analytical, separable form
     Using radial grid of 1095 points,  1 beta functions with: 
                l(1) =   0

     atomic species   valence    mass     pseudopotential
        H              1.00     1.01000      H( 1.00)
        O              6.00    16.00000      O( 1.00)

     No symmetry found



   Cartesian axes

     site n.     atom                  positions (alat units)
         1           H   tau(   1) = (   0.0354481   0.4143031   0.3952828  )
         2           H   tau(   2) = (   0.3487468   0.8381614   0.6446938  )
         3           O   tau(   3) = (   0.5223682   0.3537860   0.5063207  )

     number of k points=     1  Marzari-Vanderbilt smearing, width (Ry)=  0.0250
                       cart. coord. in units 2pi/alat
        k(    1) = (   0.0000000   0.0000000   0.0000000), wk =   2.0000000

     Dense  grid:   177509 G-vectors     FFT dimensions: (  72,  72,  72)

     Estimated max dynamical RAM per process >       6.09Mb

     Estimated total allocated dynamical RAM >     170.64Mb

     Initial potential from superposition of free atoms
     Check: negative starting charge=   -0.348217

     starting charge    7.99998, renormalised to    8.00000

     negative rho (up, down):  3.482E-01 0.000E+00
     Starting wfc are    6 randomized atomic wfcs +    2 random wfc

     total cpu time spent up to now is        0.2 secs

     per-process dynamical memory:    18.8 Mb

     Self-consistent Calculation

     iteration #  1     ecut=    30.00 Ry     beta=0.70
     Davidson diagonalization with overlap
     ethr =  1.00E-02,  avg # of iterations =  7.0

     negative rho (up, down):  8.268E-02 0.000E+00

     total cpu time spent up to now is        0.3 secs

     total energy              =     -28.16800198 Ry
     Harris-Foulkes estimate   =     -32.07201395 Ry
     estimated scf accuracy    <       4.49441552 Ry

     iteration #  2     ecut=    30.00 Ry     beta=0.70
     Davidson diagonalization with overlap
     ethr =  1.00E-02,  avg # of iterations =  4.0

     negative rho (up, down):  6.056E-02 0.000E+00

     total cpu time spent up to now is        0.3 secs

     total energy              =     -32.59728681 Ry
     Harris-Foulkes estimate   =     -37.76742334 Ry
     estimated scf accuracy    <      12.62611281 Ry

     iteration #  3     ecut=    30.00 Ry     beta=0.70
     Davidson diagonalization with overlap
     ethr =  1.00E-02,  avg # of iterations =  2.0

     negative rho (up, down):  6.248E-02 0.000E+00

     total cpu time spent up to now is        0.4 secs

     total energy              =     -33.13624621 Ry
     Harris-Foulkes estimate   =     -32.93619333 Ry
     estimated scf accuracy    <       4.84590836 Ry

     iteration #  4     ecut=    30.00 Ry     beta=0.70
     Davidson diagonalization with overlap
     ethr =  1.00E-02,  avg # of iterations =  1.0

     negative rho (up, down):  2.466E-02 0.000E+00

     total cpu time spent up to now is        0.4 secs

     total energy              =     -30.23869208 Ry
     Harris-Foulkes estimate   =     -33.13681901 Ry
     estimated scf accuracy    <       5.14428671 Ry

     iteration #  5     ecut=    30.00 Ry     beta=0.70
     Davidson diagonalization with overlap
     ethr =  1.00E-02,  avg # of iterations =  5.0

     negative rho (up, down):  2.275E-02 0.000E+00

     total cpu time spent up to now is        0.5 secs

     total energy              =     -33.20387548 Ry
     Harris-Foulkes estimate   =     -33.23799923 Ry
     estimated scf accuracy    <      13.32956824 Ry

     iteration #  6     ecut=    30.00 Ry     beta=0.70
     Davidson diagonalization with overlap
     ethr =  1.00E-02,  avg # of iterations =  1.0

     negative rho (up, down):  3.855E-02 0.000E+00

     total cpu time spent up to now is        0.5 secs

     total energy              =     -33.07073838 Ry
     Harris-Foulkes estimate   =     -33.20999935 Ry
     estimated scf accuracy    <      13.16621757 Ry

     iteration #  7     ecut=    30.00 Ry     beta=0.70
     Davidson diagonalization with overlap
     ethr =  1.00E-02,  avg # of iterations =  1.0

     negative rho (up, down):  1.449E-02 0.000E+00

     total cpu time spent up to now is        0.5 secs

     total energy              =     -32.45242801 Ry
     Harris-Foulkes estimate   =     -33.08662906 Ry
     estimated scf accuracy    <       9.68794873 Ry

     iteration #  8     ecut=    30.00 Ry     beta=0.70
     Davidson diagonalization with overlap
     ethr =  1.00E-02,  avg # of iterations =  1.0

     negative rho (up, down):  1.869E-03 0.000E+00

     total cpu time spent up to now is        0.6 secs

     total energy              =     -32.25365103 Ry
     Harris-Foulkes estimate   =     -32.58914073 Ry
     estimated scf accuracy    <       5.38950846 Ry

     iteration #  9     ecut=    30.00 Ry     beta=0.70
     Davidson diagonalization with overlap
     ethr =  1.00E-02,  avg # of iterations =  1.0

     negative rho (up, down):  2.887E-02 0.000E+00

     total cpu time spent up to now is        0.6 secs

     total energy              =     -31.77286854 Ry
     Harris-Foulkes estimate   =     -32.26027230 Ry
     estimated scf accuracy    <       4.81350142 Ry

     iteration # 10     ecut=    30.00 Ry     beta=0.70
     Davidson diagonalization with overlap
     ethr =  1.00E-02,  avg # of iterations =  1.0

     negative rho (up, down):  2.878E-02 0.000E+00

     total cpu time spent up to now is        0.7 secs

     total energy              =     -31.63198342 Ry
     Harris-Foulkes estimate   =     -31.78374625 Ry
     estimated scf accuracy    <       3.98228077 Ry

     iteration # 11     ecut=    30.00 Ry     beta=0.70
     Davidson diagonalization with overlap
     ethr =  1.00E-02,  avg # of iterations =  1.0

     negative rho (up, down):  1.932E-02 0.000E+00

     total cpu time spent up to now is        0.7 secs

     total energy              =     -32.12348279 Ry
     Harris-Foulkes estimate   =     -31.63390924 Ry
     estimated scf accuracy    <       3.80076572 Ry

     iteration # 12     ecut=    30.00 Ry     beta=0.70
     Davidson diagonalization with overlap
     ethr =  1.00E-02,  avg # of iterations =  1.0

     negative rho (up, down):  8.740E-02 0.000E+00

     total cpu time spent up to now is        0.7 secs

     total energy              =     -30.86027258 Ry
     Harris-Foulkes estimate   =     -32.12631844 Ry
     estimated scf accuracy    <       4.50983862 Ry

     iteration # 13     ecut=    30.00 Ry     beta=0.70
     Davidson diagonalization with overlap
     ethr =  1.00E-02,  avg # of iterations =  1.0

     negative rho (up, down):  1.198E-01 0.000E+00

     total cpu time spent up to now is        0.8 secs

     total energy              =     -32.05057039 Ry
     Harris-Foulkes estimate   =     -31.99947121 Ry
     estimated scf accuracy    <       3.31926803 Ry

     iteration # 14     ecut=    30.00 Ry     beta=0.70
     Davidson diagonalization with overlap
     ethr =  1.00E-02,  avg # of iterations =  1.0

     negative rho (up, down):  6.655E-02 0.000E+00

     total cpu time spent up to now is        0.8 secs

     total energy              =     -32.14704290 Ry
     Harris-Foulkes estimate   =     -32.05514538 Ry
     estimated scf accuracy    <       3.47068710 Ry

     iteration # 15     ecut=    30.00 Ry     beta=0.70
     Davidson diagonalization with overlap
     ethr =  1.00E-02,  avg # of iterations =  1.0

     total cpu time spent up to now is        0.8 secs

     total energy              =     -31.43052015 Ry
     Harris-Foulkes estimate   =     -32.14770028 Ry
     estimated scf accuracy    <       3.62241771 Ry

     iteration # 16     ecut=    30.00 Ry     beta=0.70
     Davidson diagonalization with overlap
     ethr =  1.00E-02,  avg # of iterations =  1.0

     negative rho (up, down):  2.901E-03 0.000E+00

     total cpu time spent up to now is        0.9 secs

     total energy              =     -31.44526496 Ry
     Harris-Foulkes estimate   =     -31.49248521 Ry
     estimated scf accuracy    <       0.12082972 Ry

     iteration # 17     ecut=    30.00 Ry     beta=0.70
     Davidson diagonalization with overlap
     ethr =  1.51E-03,  avg # of iterations =  1.0

     negative rho (up, down):  1.318E-03 0.000E+00

     total cpu time spent up to now is        0.9 secs

     total energy              =     -31.66868290 Ry
     Harris-Foulkes estimate   =     -31.72353499 Ry
     estimated scf accuracy    <       2.87697003 Ry

     iteration # 18     ecut=    30.00 Ry     beta=0.70
     Davidson diagonalization with overlap
     ethr =  1.51E-03,  avg # of iterations =  1.0

     negative rho (up, down):  8.391E-05 0.000E+00

     total cpu time spent up to now is        0.9 secs

     total energy              =     -31.37748638 Ry
     Harris-Foulkes estimate   =     -31.66884154 Ry
     estimated scf accuracy    <       2.80911454 Ry

     iteration # 19     ecut=    30.00 Ry     beta=0.70
     Davidson diagonalization with overlap
     ethr =  1.51E-03,  avg # of iterations =  1.0

     negative rho (up, down):  1.667E-04 0.000E+00

     total cpu time spent up to now is        1.0 secs

     total energy              =     -31.35842201 Ry
     Harris-Foulkes estimate   =     -31.55490197 Ry
     estimated scf accuracy    <       4.63045196 Ry

     iteration # 20     ecut=    30.00 Ry     beta=0.70
     Davidson diagonalization with overlap
     ethr =  1.51E-03,  avg # of iterations =  1.0

     negative rho (up, down):  1.136E-04 0.000E+00

     total cpu time spent up to now is        1.0 secs

     total energy              =     -31.44620269 Ry
     Harris-Foulkes estimate   =     -31.52792696 Ry
     estimated scf accuracy    <       2.11532713 Ry

     iteration # 21     ecut=    30.00 Ry     beta=0.70
     Davidson diagonalization with overlap
     ethr =  1.51E-03,  avg # of iterations =  1.0

     negative rho (up, down):  2.014E-03 0.000E+00

     total cpu time spent up to now is        1.0 secs

     total energy              =     -31.34965690 Ry
     Harris-Foulkes estimate   =     -31.49729972 Ry
     estimated scf accuracy    <       0.62609431 Ry

     iteration # 22     ecut=    30.00 Ry     beta=0.70
     Davidson diagonalization with overlap
     ethr =  1.51E-03,  avg # of iterations =  1.0

     negative rho (up, down):  4.045E-04 0.000E+00

     total cpu time spent up to now is        1.1 secs

     total energy              =     -31.69230021 Ry
     Harris-Foulkes estimate   =     -31.77401559 Ry
     estimated scf accuracy    <       2.98285413 Ry

     iteration # 23     ecut=    30.00 Ry     beta=0.70
     Davidson diagonalization with overlap
     ethr =  1.51E-03,  avg # of iterations =  1.0

     negative rho (up, down):  3.385E-05 0.000E+00

     total cpu time spent up to now is        1.1 secs

     total energy              =     -31.63207329 Ry
     Harris-Foulkes estimate   =     -31.69257807 Ry
     estimated scf accuracy    <       2.86340579 Ry

     iteration # 24     ecut=    30.00 Ry     beta=0.70
     Davidson diagonalization with overlap
     ethr =  1.51E-03,  avg # of iterations =  1.0

     negative rho (up, down):  2.987E-04 0.000E+00

     total cpu time spent up to now is        1.1 secs

     total energy              =     -31.48609676 Ry
     Harris-Foulkes estimate   =     -31.63224421 Ry
     estimated scf accuracy    <       2.75864565 Ry

     iteration # 25     ecut=    30.00 Ry     beta=0.70
     Davidson diagonalization with overlap
     ethr =  1.51E-03,  avg # of iterations =  1.0

     negative rho (up, down):  2.175E-04 0.000E+00

     total cpu time spent up to now is        1.1 secs

     total energy              =     -31.51706650 Ry
     Harris-Foulkes estimate   =     -31.49964595 Ry
     estimated scf accuracy    <       0.62099111 Ry

     iteration # 26     ecut=    30.00 Ry     beta=0.70
     Davidson diagonalization with overlap
     ethr =  1.51E-03,  avg # of iterations =  1.0

     negative rho (up, down):  4.077E-05 0.000E+00

     total cpu time spent up to now is        1.2 secs

     total energy              =     -31.67723559 Ry
     Harris-Foulkes estimate   =     -31.52529937 Ry
     estimated scf accuracy    <       1.97619538 Ry

     iteration # 27     ecut=    30.00 Ry     beta=0.70
     Davidson diagonalization with overlap
     ethr =  1.51E-03,  avg # of iterations =  1.0

     negative rho (up, down):  3.336E-05 0.000E+00

     total cpu time spent up to now is        1.2 secs

     total energy              =     -31.74687781 Ry
     Harris-Foulkes estimate   =     -31.69828184 Ry
     estimated scf accuracy    <       2.86170661 Ry

     iteration # 28     ecut=    30.00 Ry     beta=0.70
     Davidson diagonalization with overlap
     ethr =  1.51E-03,  avg # of iterations =  1.0

     negative rho (up, down):  6.070E-05 0.000E+00

     total cpu time spent up to now is        1.2 secs

     total energy              =     -31.80982404 Ry
     Harris-Foulkes estimate   =     -31.74698846 Ry
     estimated scf accuracy    <       2.94251492 Ry

     iteration # 29     ecut=    30.00 Ry     beta=0.70
     Davidson diagonalization with overlap
     ethr =  1.51E-03,  avg # of iterations =  1.0

     negative rho (up, down):  6.259E-03 0.000E+00

     total cpu time spent up to now is        1.3 secs

     total energy              =     -32.56973537 Ry
     Harris-Foulkes estimate   =     -31.80997107 Ry
     estimated scf accuracy    <       3.04647846 Ry

     iteration # 30     ecut=    30.00 Ry     beta=0.70
     Davidson diagonalization with overlap
     ethr =  1.51E-03,  avg # of iterations =  3.0

     negative rho (up, down):  3.503E-03 0.000E+00

     total cpu time spent up to now is        1.3 secs

     total energy              =     -30.18260476 Ry
     Harris-Foulkes estimate   =     -32.59461701 Ry
     estimated scf accuracy    <       4.24373488 Ry

     iteration # 31     ecut=    30.00 Ry     beta=0.70
     Davidson diagonalization with overlap
     ethr =  1.51E-03,  avg # of iterations =  6.0

     negative rho (up, down):  2.813E-03 0.000E+00

     total cpu time spent up to now is        1.4 secs

     total energy              =     -31.75306616 Ry
     Harris-Foulkes estimate   =     -33.52663835 Ry
     estimated scf accuracy    <      12.42633104 Ry

     iteration # 32     ecut=    30.00 Ry     beta=0.70
     Davidson diagonalization with overlap
     ethr =  1.51E-03,  avg # of iterations =  3.0

     negative rho (up, down):  2.295E-05 0.000E+00

     total cpu time spent up to now is        1.4 secs

     total energy              =     -32.11900448 Ry
     Harris-Foulkes estimate   =     -32.20538176 Ry
     estimated scf accuracy    <       4.63456793 Ry

     iteration # 33     ecut=    30.00 Ry     beta=0.70
     Davidson diagonalization with overlap
     ethr =  1.51E-03,  avg # of iterations =  1.0

     negative rho (up, down):  3.622E-05 0.000E+00

     total cpu time spent up to now is        1.4 secs

     total energy              =     -31.49263155 Ry
     Harris-Foulkes estimate   =     -32.11958418 Ry
     estimated scf accuracy    <       4.49293606 Ry

     iteration # 34     ecut=    30.00 Ry     beta=0.70
     Davidson diagonalization with overlap
     ethr =  1.51E-03,  avg # of iterations =  2.0

     negative rho (up, down):  4.469E-05 0.000E+00

     total cpu time spent up to now is        1.5 secs

     total energy              =     -31.28715944 Ry
     Harris-Foulkes estimate   =     -31.50343647 Ry
     estimated scf accuracy    <       1.15686544 Ry

     iteration # 35     ecut=    30.00 Ry     beta=0.70
     Davidson diagonalization with overlap
     ethr =  1.51E-03,  avg # of iterations =  1.0

     negative rho (up, down):  2.786E-05 0.000E+00

     total cpu time spent up to now is        1.5 secs

     total energy              =     -31.76546339 Ry
     Harris-Foulkes estimate   =     -31.79064652 Ry
     estimated scf accuracy    <       3.00145750 Ry

     iteration # 36     ecut=    30.00 Ry     beta=0.70
     Davidson diagonalization with overlap
     ethr =  1.51E-03,  avg # of iterations =  1.0

     negative rho (up, down):  2.809E-06 0.000E+00

     total cpu time spent up to now is        1.5 secs

     total energy              =     -32.02185281 Ry
     Harris-Foulkes estimate   =     -31.76566011 Ry
     estimated scf accuracy    <       2.96304816 Ry

     iteration # 37     ecut=    30.00 Ry     beta=0.70
     Davidson diagonalization with overlap
     ethr =  1.51E-03,  avg # of iterations =  1.0

     negative rho (up, down):  5.468E-07 0.000E+00

     total cpu time spent up to now is        1.6 secs

     total energy              =     -31.94568088 Ry
     Harris-Foulkes estimate   =     -32.03552719 Ry
     estimated scf accuracy    <       3.36025145 Ry

     iteration # 38     ecut=    30.00 Ry     beta=0.70
     Davidson diagonalization with overlap
     ethr =  1.51E-03,  avg # of iterations =  1.0

     negative rho (up, down):  7.469E-08 0.000E+00

     total cpu time spent up to now is        1.6 secs

     total energy              =     -31.92248696 Ry
     Harris-Foulkes estimate   =     -31.93364223 Ry
     estimated scf accuracy    <       3.22994427 Ry

     iteration # 39     ecut=    30.00 Ry     beta=0.70
     Davidson diagonalization with overlap
     ethr =  1.51E-03,  avg # of iterations =  1.0

     negative rho (up, down):  4.994E-08 0.000E+00

     total cpu time spent up to now is        1.6 secs

     total energy              =     -31.55885349 Ry
     Harris-Foulkes estimate   =     -31.92251532 Ry
     estimated scf accuracy    <       3.20537784 Ry

     iteration # 40     ecut=    30.00 Ry     beta=0.70
     Davidson diagonalization with overlap
     ethr =  1.51E-03,  avg # of iterations =  1.0

     negative rho (up, down):  1.937E-06 0.000E+00

     total cpu time spent up to now is        1.7 secs

     total energy              =     -31.40953183 Ry
     Harris-Foulkes estimate   =     -31.56227832 Ry
     estimated scf accuracy    <       2.60294934 Ry

     iteration # 41     ecut=    30.00 Ry     beta=0.70
     Davidson diagonalization with overlap
     ethr =  1.51E-03,  avg # of iterations =  1.0

     negative rho (up, down):  9.362E-07 0.000E+00

     total cpu time spent up to now is        1.7 secs

     total energy              =     -31.53613829 Ry
     Harris-Foulkes estimate   =     -31.52266254 Ry
     estimated scf accuracy    <       2.43732056 Ry

     iteration # 42     ecut=    30.00 Ry     beta=0.70
     Davidson diagonalization with overlap
     ethr =  1.51E-03,  avg # of iterations =  1.0

     negative rho (up, down):  9.158E-05 0.000E+00

     total cpu time spent up to now is        1.7 secs

     total energy              =     -31.33608696 Ry
     Harris-Foulkes estimate   =     -31.53764225 Ry
     estimated scf accuracy    <       3.39202194 Ry

     iteration # 43     ecut=    30.00 Ry     beta=0.70
     Davidson diagonalization with overlap
     ethr =  1.51E-03,  avg # of iterations =  1.0

     negative rho (up, down):  5.824E-05 0.000E+00

     total cpu time spent up to now is        1.8 secs

     total energy              =     -31.59841522 Ry
     Harris-Foulkes estimate   =     -31.58099789 Ry
     estimated scf accuracy    <       2.51163741 Ry

     iteration # 44     ecut=    30.00 Ry     beta=0.70
     Davidson diagonalization with overlap
     ethr =  1.51E-03,  avg # of iterations =  1.0

     negative rho (up, down):  5.531E-05 0.000E+00

     total cpu time spent up to now is        1.8 secs

     total energy              =     -31.57746230 Ry
     Harris-Foulkes estimate   =     -31.59903686 Ry
     estimated scf accuracy    <       2.69265045 Ry

     iteration # 45     ecut=    30.00 Ry     beta=0.70
     Davidson diagonalization with overlap
     ethr =  1.51E-03,  avg # of iterations =  1.0

     negative rho (up, down):  4.009E-05 0.000E+00

     total cpu time spent up to now is        1.8 secs

     total energy              =     -31.45875078 Ry
     Harris-Foulkes estimate   =     -31.57754474 Ry
     estimated scf accuracy    <       2.60325149 Ry

     iteration # 46     ecut=    30.00 Ry     beta=0.70
     Davidson diagonalization with overlap
     ethr =  1.51E-03,  avg # of iterations =  1.0

     negative rho (up, down):  2.586E-05 0.000E+00

     total cpu time spent up to now is        1.9 secs

     total energy              =     -31.49279793 Ry
     Harris-Foulkes estimate   =     -31.51591960 Ry
     estimated scf accuracy    <       0.99026905 Ry

     iteration # 47     ecut=    30.00 Ry     beta=0.70
     Davidson diagonalization with overlap
     ethr =  1.51E-03,  avg # of iterations =  1.0

     negative rho (up, down):  3.105E-05 0.000E+00

     total cpu time spent up to now is        1.9 secs

     total energy              =     -31.48843251 Ry
     Harris-Foulkes estimate   =     -31.55392835 Ry
     estimated scf accuracy    <       2.26420898 Ry

     iteration # 48     ecut=    30.00 Ry     beta=0.70
     Davidson diagonalization with overlap
     ethr =  1.51E-03,  avg # of iterations =  1.0

     negative rho (up, down):  2.500E-05 0.000E+00

     total cpu time spent up to now is        2.0 secs

     total energy              =     -31.51537879 Ry
     Harris-Foulkes estimate   =     -31.51570185 Ry
     estimated scf accuracy    <       0.67805649 Ry

     iteration # 49     ecut=    30.00 Ry     beta=0.70
     Davidson diagonalization with overlap
     ethr =  1.51E-03,  avg # of iterations =  1.0

     negative rho (up, down):  5.216E-06 0.000E+00

     total cpu time spent up to now is        2.0 secs

     total energy              =     -31.51030619 Ry
     Harris-Foulkes estimate   =     -31.51601029 Ry
     estimated scf accuracy    <       0.63572774 Ry

     iteration # 50     ecut=    30.00 Ry     beta=0.70
     Davidson diagonalization with overlap
     ethr =  1.51E-03,  avg # of iterations =  1.0

     negative rho (up, down):  2.682E-06 0.000E+00

     total cpu time spent up to now is        2.0 secs

     total energy              =     -31.50161091 Ry
     Harris-Foulkes estimate   =     -31.51123255 Ry
     estimated scf accuracy    <       0.64820441 Ry

     iteration # 51     ecut=    30.00 Ry     beta=0.70
     Davidson diagonalization with overlap
     ethr =  1.51E-03,  avg # of iterations =  1.0

     negative rho (up, down):  2.212E-04 0.000E+00

     total cpu time spent up to now is        2.1 secs

     total energy              =     -31.58726641 Ry
     Harris-Foulkes estimate   =     -31.52714183 Ry
     estimated scf accuracy    <       1.79856723 Ry

     iteration # 52     ecut=    30.00 Ry     beta=0.70
     Davidson diagonalization with overlap
     ethr =  1.51E-03,  avg # of iterations =  1.0

     negative rho (up, down):  1.905E-03 0.000E+00

     total cpu time spent up to now is        2.1 secs

     total energy              =     -31.73111896 Ry
     Harris-Foulkes estimate   =     -31.60597165 Ry
     estimated scf accuracy    <       2.68635735 Ry

     iteration # 53     ecut=    30.00 Ry     beta=0.70
     Davidson diagonalization with overlap
     ethr =  1.51E-03,  avg # of iterations =  1.0

     negative rho (up, down):  5.019E-03 0.000E+00

     total cpu time spent up to now is        2.1 secs

     total energy              =     -31.88754525 Ry
     Harris-Foulkes estimate   =     -31.73151952 Ry
     estimated scf accuracy    <       2.88134688 Ry

     iteration # 54     ecut=    30.00 Ry     beta=0.70
     Davidson diagonalization with overlap
     ethr =  1.51E-03,  avg # of iterations =  1.0

     negative rho (up, down):  1.536E-08 0.000E+00

     total cpu time spent up to now is        2.2 secs

     total energy              =     -31.09265072 Ry
     Harris-Foulkes estimate   =     -31.88807778 Ry
     estimated scf accuracy    <       3.12152634 Ry

     iteration # 55     ecut=    30.00 Ry     beta=0.70
     Davidson diagonalization with overlap
     ethr =  1.51E-03,  avg # of iterations =  2.0

     total cpu time spent up to now is        2.2 secs

     total energy              =     -31.70789680 Ry
     Harris-Foulkes estimate   =     -31.94177359 Ry
     estimated scf accuracy    <       4.17660068 Ry

     iteration # 56     ecut=    30.00 Ry     beta=0.70
     Davidson diagonalization with overlap
     ethr =  1.51E-03,  avg # of iterations =  1.0

     total cpu time spent up to now is        2.3 secs

     total energy              =     -31.65558791 Ry
     Harris-Foulkes estimate   =     -31.70952015 Ry
     estimated scf accuracy    <       3.84982176 Ry

     iteration # 57     ecut=    30.00 Ry     beta=0.70
     Davidson diagonalization with overlap
     ethr =  1.51E-03,  avg # of iterations =  1.0

     total cpu time spent up to now is        2.3 secs

     total energy              =     -31.68984147 Ry
     Harris-Foulkes estimate   =     -31.65399356 Ry
     estimated scf accuracy    <       4.28062288 Ry

     iteration # 58     ecut=    30.00 Ry     beta=0.70
     Davidson diagonalization with overlap
     ethr =  1.51E-03,  avg # of iterations =  1.0

     total cpu time spent up to now is        2.3 secs

     total energy              =     -31.62732689 Ry
     Harris-Foulkes estimate   =     -31.68920487 Ry
     estimated scf accuracy    <       3.98954088 Ry

     iteration # 59     ecut=    30.00 Ry     beta=0.70
     Davidson diagonalization with overlap
     ethr =  1.51E-03,  avg # of iterations =  1.0

     total cpu time spent up to now is        2.4 secs

     total energy              =     -31.59511173 Ry
     Harris-Foulkes estimate   =     -31.62563838 Ry
     estimated scf accuracy    <       3.76500736 Ry

     iteration # 60     ecut=    30.00 Ry     beta=0.70
     Davidson diagonalization with overlap
     ethr =  1.51E-03,  avg # of iterations =  1.0

     negative rho (up, down):  3.348E-08 0.000E+00

     total cpu time spent up to now is        2.4 secs

     total energy              =     -31.52988200 Ry
     Harris-Foulkes estimate   =     -31.60117163 Ry
     estimated scf accuracy    <       1.93608014 Ry

     iteration # 61     ecut=    30.00 Ry     beta=0.70
     Davidson diagonalization with overlap
     ethr =  1.51E-03,  avg # of iterations =  1.0

     negative rho (up, down):  2.559E-08 0.000E+00

     total cpu time spent up to now is        2.4 secs

     total energy              =     -31.53211792 Ry
     Harris-Foulkes estimate   =     -31.58729067 Ry
     estimated scf accuracy    <       1.16667528 Ry

     iteration # 62     ecut=    30.00 Ry     beta=0.70
     Davidson diagonalization with overlap
     ethr =  1.51E-03,  avg # of iterations =  1.0

     total cpu time spent up to now is        2.5 secs

     total energy              =     -31.65301165 Ry
     Harris-Foulkes estimate   =     -31.68697109 Ry
     estimated scf accuracy    <       2.90621180 Ry

     iteration # 63     ecut=    30.00 Ry     beta=0.70
     Davidson diagonalization with overlap
     ethr =  1.51E-03,  avg # of iterations =  1.0

     total cpu time spent up to now is        2.5 secs

     total energy              =     -31.46815494 Ry
     Harris-Foulkes estimate   =     -31.65336633 Ry
     estimated scf accuracy    <       2.82369452 Ry

     iteration # 64     ecut=    30.00 Ry     beta=0.70
     Davidson diagonalization with overlap
     ethr =  1.51E-03,  avg # of iterations =  1.0

     total cpu time spent up to now is        2.5 secs

     total energy              =     -31.50980191 Ry
     Harris-Foulkes estimate   =     -31.50781829 Ry
     estimated scf accuracy    <       0.61875832 Ry

     iteration # 65     ecut=    30.00 Ry     beta=0.70
     Davidson diagonalization with overlap
     ethr =  1.51E-03,  avg # of iterations =  1.0

     total cpu time spent up to now is        2.6 secs

     total energy              =     -31.51506304 Ry
     Harris-Foulkes estimate   =     -31.51213489 Ry
     estimated scf accuracy    <       0.61768189 Ry

     iteration # 66     ecut=    30.00 Ry     beta=0.70
     Davidson diagonalization with overlap
     ethr =  1.51E-03,  avg # of iterations =  1.0

     total cpu time spent up to now is        2.6 secs

     total energy              =     -31.52289130 Ry
     Harris-Foulkes estimate   =     -31.51520456 Ry
     estimated scf accuracy    <       0.62993798 Ry

     iteration # 67     ecut=    30.00 Ry     beta=0.70
     Davidson diagonalization with overlap
     ethr =  1.51E-03,  avg # of iterations =  1.0

     total cpu time spent up to now is        2.6 secs

     total energy              =     -31.51009872 Ry
     Harris-Foulkes estimate   =     -31.52501307 Ry
     estimated scf accuracy    <       0.83954957 Ry

     iteration # 68     ecut=    30.00 Ry     beta=0.70
     Davidson diagonalization with overlap
     ethr =  1.51E-03,  avg # of iterations =  1.0

     total cpu time spent up to now is        2.7 secs

     total energy              =     -31.51271752 Ry
     Harris-Foulkes estimate   =     -31.51608276 Ry
     estimated scf accuracy    <       0.70848956 Ry

     iteration # 69     ecut=    30.00 Ry     beta=0.70
     Davidson diagonalization with overlap
     ethr =  1.51E-03,  avg # of iterations =  1.0

     negative rho (up, down):  8.815E-05 0.000E+00

     total cpu time spent up to now is        2.7 secs

     total energy              =     -31.48678250 Ry
     Harris-Foulkes estimate   =     -31.51305837 Ry
     estimated scf accuracy    <       0.62589473 Ry

     iteration # 70     ecut=    30.00 Ry     beta=0.70
     Davidson diagonalization with overlap
     ethr =  1.51E-03,  avg # of iterations =  1.0

     negative rho (up, down):  3.436E-07 0.000E+00

     total cpu time spent up to now is        2.8 secs

     total energy              =     -31.48397293 Ry
     Harris-Foulkes estimate   =     -31.49360345 Ry
     estimated scf accuracy    <       0.15005406 Ry

     iteration # 71     ecut=    30.00 Ry     beta=0.70
     Davidson diagonalization with overlap
     ethr =  1.51E-03,  avg # of iterations =  1.0

     total cpu time spent up to now is        2.8 secs

     total energy              =     -31.57793475 Ry
     Harris-Foulkes estimate   =     -31.62938998 Ry
     estimated scf accuracy    <       3.65871785 Ry

     iteration # 72     ecut=    30.00 Ry     beta=0.70
     Davidson diagonalization with overlap
     ethr =  1.51E-03,  avg # of iterations =  1.0

     total cpu time spent up to now is        2.8 secs

     total energy              =     -31.51042508 Ry
     Harris-Foulkes estimate   =     -31.58423648 Ry
     estimated scf accuracy    <       1.82145911 Ry

     iteration # 73     ecut=    30.00 Ry     beta=0.70
     Davidson diagonalization with overlap
     ethr =  1.51E-03,  avg # of iterations =  1.0

     total cpu time spent up to now is        2.9 secs

     total energy              =     -31.52724246 Ry
     Harris-Foulkes estimate   =     -31.53064818 Ry
     estimated scf accuracy    <       1.23334525 Ry

     iteration # 74     ecut=    30.00 Ry     beta=0.70
     Davidson diagonalization with overlap
     ethr =  1.51E-03,  avg # of iterations =  1.0

     total cpu time spent up to now is        2.9 secs

     total energy              =     -31.51790280 Ry
     Harris-Foulkes estimate   =     -31.52737988 Ry
     estimated scf accuracy    <       1.21053574 Ry

     iteration # 75     ecut=    30.00 Ry     beta=0.70
     Davidson diagonalization with overlap
     ethr =  1.51E-03,  avg # of iterations =  1.0

     total cpu time spent up to now is        2.9 secs

     total energy              =     -31.52161363 Ry
     Harris-Foulkes estimate   =     -31.51828381 Ry
     estimated scf accuracy    <       1.14158173 Ry

     iteration # 76     ecut=    30.00 Ry     beta=0.70
     Davidson diagonalization with overlap
     ethr =  1.51E-03,  avg # of iterations =  1.0

     total cpu time spent up to now is        3.0 secs

     total energy              =     -31.55131666 Ry
     Harris-Foulkes estimate   =     -31.52164191 Ry
     estimated scf accuracy    <       1.17788861 Ry

     iteration # 77     ecut=    30.00 Ry     beta=0.70
     Davidson diagonalization with overlap
     ethr =  1.51E-03,  avg # of iterations =  1.0

     total cpu time spent up to now is        3.0 secs

     total energy              =     -31.51523585 Ry
     Harris-Foulkes estimate   =     -31.55066600 Ry
     estimated scf accuracy    <       1.04359168 Ry

     iteration # 78     ecut=    30.00 Ry     beta=0.70
     Davidson diagonalization with overlap
     ethr =  1.51E-03,  avg # of iterations =  1.0

     negative rho (up, down):  7.202E-08 0.000E+00

     total cpu time spent up to now is        3.0 secs

     total energy              =     -31.19301460 Ry
     Harris-Foulkes estimate   =     -31.51345181 Ry
     estimated scf accuracy    <       0.95187811 Ry

     iteration # 79     ecut=    30.00 Ry     beta=0.70
     Davidson diagonalization with overlap
     ethr =  1.51E-03,  avg # of iterations =  2.0

     negative rho (up, down):  4.447E-07 0.000E+00

     total cpu time spent up to now is        3.1 secs

     total energy              =     -32.05818175 Ry
     Harris-Foulkes estimate   =     -31.78320263 Ry
     estimated scf accuracy    <       1.14061291 Ry

     iteration # 80     ecut=    30.00 Ry     beta=0.70
     Davidson diagonalization with overlap
     ethr =  1.51E-03,  avg # of iterations =  1.0

     negative rho (up, down):  4.047E-05 0.000E+00

     total cpu time spent up to now is        3.1 secs

     total energy              =     -32.58520747 Ry
     Harris-Foulkes estimate   =     -32.06382132 Ry
     estimated scf accuracy    <       1.44598863 Ry

     iteration # 81     ecut=    30.00 Ry     beta=0.70
     Davidson diagonalization with overlap
     ethr =  1.51E-03,  avg # of iterations =  3.0

     negative rho (up, down):  3.976E-08 0.000E+00

     total cpu time spent up to now is        3.1 secs

     total energy              =     -31.54182492 Ry
     Harris-Foulkes estimate   =     -32.59009240 Ry
     estimated scf accuracy    <       2.11697034 Ry

     iteration # 82     ecut=    30.00 Ry     beta=0.70
     Davidson diagonalization with overlap
     ethr =  1.51E-03,  avg # of iterations =  2.0

     total cpu time spent up to now is        3.2 secs

     total energy              =     -31.44210734 Ry
     Harris-Foulkes estimate   =     -31.56855325 Ry
     estimated scf accuracy    <       0.94034548 Ry

     iteration # 83     ecut=    30.00 Ry     beta=0.70
     Davidson diagonalization with overlap
     ethr =  1.51E-03,  avg # of iterations =  1.0

     negative rho (up, down):  3.044E-08 0.000E+00

     total cpu time spent up to now is        3.2 secs

     total energy              =     -31.58185109 Ry
     Harris-Foulkes estimate   =     -31.52252678 Ry
     estimated scf accuracy    <       1.32668066 Ry

     iteration # 84     ecut=    30.00 Ry     beta=0.70
     Davidson diagonalization with overlap
     ethr =  1.51E-03,  avg # of iterations =  1.0

     negative rho (up, down):  3.576E-08 0.000E+00

     total cpu time spent up to now is        3.3 secs

     total energy              =     -31.60359528 Ry
     Harris-Foulkes estimate   =     -31.57807312 Ry
     estimated scf accuracy    <       1.00991618 Ry

     iteration # 85     ecut=    30.00 Ry     beta=0.70
     Davidson diagonalization with overlap
     ethr =  1.51E-03,  avg # of iterations =  1.0

     negative rho (up, down):  3.446E-08 0.000E+00

     total cpu time spent up to now is        3.3 secs

     total energy              =     -31.57665077 Ry
     Harris-Foulkes estimate   =     -31.60380240 Ry
     estimated scf accuracy    <       1.05377366 Ry

     iteration # 86     ecut=    30.00 Ry     beta=0.70
     Davidson diagonalization with overlap
     ethr =  1.51E-03,  avg # of iterations =  1.0

     negative rho (up, down):  2.297E-08 0.000E+00

     total cpu time spent up to now is        3.3 secs

     total energy              =     -31.61639425 Ry
     Harris-Foulkes estimate   =     -31.57669077 Ry
     estimated scf accuracy    <       1.01379932 Ry

     iteration # 87     ecut=    30.00 Ry     beta=0.70
     Davidson diagonalization with overlap
     ethr =  1.51E-03,  avg # of iterations =  1.0

     negative rho (up, down):  2.156E-08 0.000E+00

     total cpu time spent up to now is        3.4 secs

     total energy              =     -31.62865148 Ry
     Harris-Foulkes estimate   =     -31.61659251 Ry
     estimated scf accuracy    <       1.10459917 Ry

     iteration # 88     ecut=    30.00 Ry     beta=0.70
     Davidson diagonalization with overlap
     ethr =  1.51E-03,  avg # of iterations =  1.0

     negative rho (up, down):  4.623E-06 0.000E+00

     total cpu time spent up to now is        3.4 secs

     total energy              =     -31.65788933 Ry
     Harris-Foulkes estimate   =     -31.62867435 Ry
     estimated scf accuracy    <       1.12686646 Ry

     iteration # 89     ecut=    30.00 Ry     beta=0.70
     Davidson diagonalization with overlap
     ethr =  1.51E-03,  avg # of iterations =  1.0

     negative rho (up, down):  2.132E-05 0.000E+00

     total cpu time spent up to now is        3.4 secs

     total energy              =     -31.65619613 Ry
     Harris-Foulkes estimate   =     -31.65826045 Ry
     estimated scf accuracy    <       1.25179451 Ry

     iteration # 90     ecut=    30.00 Ry     beta=0.70
     Davidson diagonalization with overlap
     ethr =  1.51E-03,  avg # of iterations =  1.0

     total cpu time spent up to now is        3.5 secs

     total energy              =     -31.46929424 Ry
     Harris-Foulkes estimate   =     -31.65622763 Ry
     estimated scf accuracy    <       1.23069501 Ry

     iteration # 91     ecut=    30.00 Ry     beta=0.70
     Davidson diagonalization with overlap
     ethr =  1.51E-03,  avg # of iterations =  1.0

     negative rho (up, down):  1.168E-01 0.000E+00

     total cpu time spent up to now is        3.6 secs

     WARNING: integrated charge=     8.00012321, expected=     8.00000000

     total energy              =     -31.40728760 Ry
     Harris-Foulkes estimate   =     -31.49274872 Ry
     estimated scf accuracy    <       0.10570684 Ry

     iteration # 92     ecut=    30.00 Ry     beta=0.70
     Davidson diagonalization with overlap
     ethr =  1.32E-03,  avg # of iterations =  4.0

     negative rho (up, down):  4.409E-02 0.000E+00

     total cpu time spent up to now is        3.8 secs

     WARNING: integrated charge=     8.06354386, expected=     8.00000000

 %%%%%%%%%%%%%%%%%%%%%%%%%%%%%%%%%%%%%%%%%%%%%%%%%%%%%%%%%%%%%%%%%%%%%%%%%%%%%%
     Error in routine electrons (1):
     charge is wrong

 %%%%%%%%%%%%%%%%%%%%%%%%%%%%%%%%%%%%%%%%%%%%%%%%%%%%%%%%%%%%%%%%%%%%%%%%%%%%%%
     Error in routine electrons (1):
     charge is wrong
 %%%%%%%%%%%%%%%%%%%%%%%%%%%%%%%%%%%%%%%%%%%%%%%%%%%%%%%%%%%%%%%%%%%%%%%%%%%%%%

     stopping ...

 %%%%%%%%%%%%%%%%%%%%%%%%%%%%%%%%%%%%%%%%%%%%%%%%%%%%%%%%%%%%%%%%%%%%%%%%%%%%%%
     Error in routine electrons (1):
     charge is wrong
 %%%%%%%%%%%%%%%%%%%%%%%%%%%%%%%%%%%%%%%%%%%%%%%%%%%%%%%%%%%%%%%%%%%%%%%%%%%%%%

     stopping ...

 %%%%%%%%%%%%%%%%%%%%%%%%%%%%%%%%%%%%%%%%%%%%%%%%%%%%%%%%%%%%%%%%%%%%%%%%%%%%%%
     Error in routine electrons (1):
     charge is wrong
 %%%%%%%%%%%%%%%%%%%%%%%%%%%%%%%%%%%%%%%%%%%%%%%%%%%%%%%%%%%%%%%%%%%%%%%%%%%%%%

     stopping ...

 %%%%%%%%%%%%%%%%%%%%%%%%%%%%%%%%%%%%%%%%%%%%%%%%%%%%%%%%%%%%%%%%%%%%%%%%%%%%%%
     Error in routine electrons (1):
     charge is wrong
 %%%%%%%%%%%%%%%%%%%%%%%%%%%%%%%%%%%%%%%%%%%%%%%%%%%%%%%%%%%%%%%%%%%%%%%%%%%%%%

     stopping ...

 %%%%%%%%%%%%%%%%%%%%%%%%%%%%%%%%%%%%%%%%%%%%%%%%%%%%%%%%%%%%%%%%%%%%%%%%%%%%%%
     Error in routine electrons (1):
     charge is wrong
 %%%%%%%%%%%%%%%%%%%%%%%%%%%%%%%%%%%%%%%%%%%%%%%%%%%%%%%%%%%%%%%%%%%%%%%%%%%%%%

     stopping ...

 %%%%%%%%%%%%%%%%%%%%%%%%%%%%%%%%%%%%%%%%%%%%%%%%%%%%%%%%%%%%%%%%%%%%%%%%%%%%%%
     Error in routine electrons (1):
     charge is wrong
 %%%%%%%%%%%%%%%%%%%%%%%%%%%%%%%%%%%%%%%%%%%%%%%%%%%%%%%%%%%%%%%%%%%%%%%%%%%%%%

     stopping ...

 %%%%%%%%%%%%%%%%%%%%%%%%%%%%%%%%%%%%%%%%%%%%%%%%%%%%%%%%%%%%%%%%%%%%%%%%%%%%%%
     Error in routine electrons (1):
     charge is wrong
 %%%%%%%%%%%%%%%%%%%%%%%%%%%%%%%%%%%%%%%%%%%%%%%%%%%%%%%%%%%%%%%%%%%%%%%%%%%%%%

     stopping ...

 %%%%%%%%%%%%%%%%%%%%%%%%%%%%%%%%%%%%%%%%%%%%%%%%%%%%%%%%%%%%%%%%%%%%%%%%%%%%%%
     Error in routine electrons (1):
     charge is wrong
 %%%%%%%%%%%%%%%%%%%%%%%%%%%%%%%%%%%%%%%%%%%%%%%%%%%%%%%%%%%%%%%%%%%%%%%%%%%%%%

     stopping ...

 %%%%%%%%%%%%%%%%%%%%%%%%%%%%%%%%%%%%%%%%%%%%%%%%%%%%%%%%%%%%%%%%%%%%%%%%%%%%%%
     Error in routine electrons (1):
     charge is wrong
 %%%%%%%%%%%%%%%%%%%%%%%%%%%%%%%%%%%%%%%%%%%%%%%%%%%%%%%%%%%%%%%%%%%%%%%%%%%%%%

     stopping ...

 %%%%%%%%%%%%%%%%%%%%%%%%%%%%%%%%%%%%%%%%%%%%%%%%%%%%%%%%%%%%%%%%%%%%%%%%%%%%%%
     Error in routine electrons (1):
     charge is wrong
 %%%%%%%%%%%%%%%%%%%%%%%%%%%%%%%%%%%%%%%%%%%%%%%%%%%%%%%%%%%%%%%%%%%%%%%%%%%%%%

     stopping ...

 %%%%%%%%%%%%%%%%%%%%%%%%%%%%%%%%%%%%%%%%%%%%%%%%%%%%%%%%%%%%%%%%%%%%%%%%%%%%%%
     Error in routine electrons (1):
     charge is wrong
 %%%%%%%%%%%%%%%%%%%%%%%%%%%%%%%%%%%%%%%%%%%%%%%%%%%%%%%%%%%%%%%%%%%%%%%%%%%%%%

     stopping ...

 %%%%%%%%%%%%%%%%%%%%%%%%%%%%%%%%%%%%%%%%%%%%%%%%%%%%%%%%%%%%%%%%%%%%%%%%%%%%%%
     Error in routine electrons (1):
     charge is wrong
 %%%%%%%%%%%%%%%%%%%%%%%%%%%%%%%%%%%%%%%%%%%%%%%%%%%%%%%%%%%%%%%%%%%%%%%%%%%%%%

     stopping ...

 %%%%%%%%%%%%%%%%%%%%%%%%%%%%%%%%%%%%%%%%%%%%%%%%%%%%%%%%%%%%%%%%%%%%%%%%%%%%%%
     Error in routine electrons (1):
     charge is wrong
 %%%%%%%%%%%%%%%%%%%%%%%%%%%%%%%%%%%%%%%%%%%%%%%%%%%%%%%%%%%%%%%%%%%%%%%%%%%%%%

     stopping ...
 %%%%%%%%%%%%%%%%%%%%%%%%%%%%%%%%%%%%%%%%%%%%%%%%%%%%%%%%%%%%%%%%%%%%%%%%%%%%%%

     stopping ...

 %%%%%%%%%%%%%%%%%%%%%%%%%%%%%%%%%%%%%%%%%%%%%%%%%%%%%%%%%%%%%%%%%%%%%%%%%%%%%%
     Error in routine electrons (1):
     charge is wrong
 %%%%%%%%%%%%%%%%%%%%%%%%%%%%%%%%%%%%%%%%%%%%%%%%%%%%%%%%%%%%%%%%%%%%%%%%%%%%%%

     stopping ...

 %%%%%%%%%%%%%%%%%%%%%%%%%%%%%%%%%%%%%%%%%%%%%%%%%%%%%%%%%%%%%%%%%%%%%%%%%%%%%%
     Error in routine electrons (1):
     charge is wrong
 %%%%%%%%%%%%%%%%%%%%%%%%%%%%%%%%%%%%%%%%%%%%%%%%%%%%%%%%%%%%%%%%%%%%%%%%%%%%%%

     stopping ...

 %%%%%%%%%%%%%%%%%%%%%%%%%%%%%%%%%%%%%%%%%%%%%%%%%%%%%%%%%%%%%%%%%%%%%%%%%%%%%%
     Error in routine electrons (1):
     charge is wrong
 %%%%%%%%%%%%%%%%%%%%%%%%%%%%%%%%%%%%%%%%%%%%%%%%%%%%%%%%%%%%%%%%%%%%%%%%%%%%%%

     stopping ...

 %%%%%%%%%%%%%%%%%%%%%%%%%%%%%%%%%%%%%%%%%%%%%%%%%%%%%%%%%%%%%%%%%%%%%%%%%%%%%%
     Error in routine electrons (1):
     charge is wrong
 %%%%%%%%%%%%%%%%%%%%%%%%%%%%%%%%%%%%%%%%%%%%%%%%%%%%%%%%%%%%%%%%%%%%%%%%%%%%%%

     stopping ...

 %%%%%%%%%%%%%%%%%%%%%%%%%%%%%%%%%%%%%%%%%%%%%%%%%%%%%%%%%%%%%%%%%%%%%%%%%%%%%%
     Error in routine electrons (1):
     charge is wrong
 %%%%%%%%%%%%%%%%%%%%%%%%%%%%%%%%%%%%%%%%%%%%%%%%%%%%%%%%%%%%%%%%%%%%%%%%%%%%%%

     stopping ...

 %%%%%%%%%%%%%%%%%%%%%%%%%%%%%%%%%%%%%%%%%%%%%%%%%%%%%%%%%%%%%%%%%%%%%%%%%%%%%%
     Error in routine electrons (1):
     charge is wrong
 %%%%%%%%%%%%%%%%%%%%%%%%%%%%%%%%%%%%%%%%%%%%%%%%%%%%%%%%%%%%%%%%%%%%%%%%%%%%%%

     stopping ...

 %%%%%%%%%%%%%%%%%%%%%%%%%%%%%%%%%%%%%%%%%%%%%%%%%%%%%%%%%%%%%%%%%%%%%%%%%%%%%%
     Error in routine electrons (1):
     charge is wrong
 %%%%%%%%%%%%%%%%%%%%%%%%%%%%%%%%%%%%%%%%%%%%%%%%%%%%%%%%%%%%%%%%%%%%%%%%%%%%%%

     stopping ...

 %%%%%%%%%%%%%%%%%%%%%%%%%%%%%%%%%%%%%%%%%%%%%%%%%%%%%%%%%%%%%%%%%%%%%%%%%%%%%%
     Error in routine electrons (1):
     charge is wrong
 %%%%%%%%%%%%%%%%%%%%%%%%%%%%%%%%%%%%%%%%%%%%%%%%%%%%%%%%%%%%%%%%%%%%%%%%%%%%%%

     stopping ...

 %%%%%%%%%%%%%%%%%%%%%%%%%%%%%%%%%%%%%%%%%%%%%%%%%%%%%%%%%%%%%%%%%%%%%%%%%%%%%%
     Error in routine electrons (1):
     charge is wrong
 %%%%%%%%%%%%%%%%%%%%%%%%%%%%%%%%%%%%%%%%%%%%%%%%%%%%%%%%%%%%%%%%%%%%%%%%%%%%%%

     stopping ...

 %%%%%%%%%%%%%%%%%%%%%%%%%%%%%%%%%%%%%%%%%%%%%%%%%%%%%%%%%%%%%%%%%%%%%%%%%%%%%%
     Error in routine electrons (1):
     charge is wrong
 %%%%%%%%%%%%%%%%%%%%%%%%%%%%%%%%%%%%%%%%%%%%%%%%%%%%%%%%%%%%%%%%%%%%%%%%%%%%%%

     stopping ...

 %%%%%%%%%%%%%%%%%%%%%%%%%%%%%%%%%%%%%%%%%%%%%%%%%%%%%%%%%%%%%%%%%%%%%%%%%%%%%%
     Error in routine electrons (1):
     charge is wrong
 %%%%%%%%%%%%%%%%%%%%%%%%%%%%%%%%%%%%%%%%%%%%%%%%%%%%%%%%%%%%%%%%%%%%%%%%%%%%%%

     stopping ...

 %%%%%%%%%%%%%%%%%%%%%%%%%%%%%%%%%%%%%%%%%%%%%%%%%%%%%%%%%%%%%%%%%%%%%%%%%%%%%%
     Error in routine electrons (1):
     charge is wrong
 %%%%%%%%%%%%%%%%%%%%%%%%%%%%%%%%%%%%%%%%%%%%%%%%%%%%%%%%%%%%%%%%%%%%%%%%%%%%%%

     stopping ...

 %%%%%%%%%%%%%%%%%%%%%%%%%%%%%%%%%%%%%%%%%%%%%%%%%%%%%%%%%%%%%%%%%%%%%%%%%%%%%%
     Error in routine electrons (1):
     charge is wrong
 %%%%%%%%%%%%%%%%%%%%%%%%%%%%%%%%%%%%%%%%%%%%%%%%%%%%%%%%%%%%%%%%%%%%%%%%%%%%%%

     stopping ...

 %%%%%%%%%%%%%%%%%%%%%%%%%%%%%%%%%%%%%%%%%%%%%%%%%%%%%%%%%%%%%%%%%%%%%%%%%%%%%%
     Error in routine electrons (1):
     charge is wrong
 %%%%%%%%%%%%%%%%%%%%%%%%%%%%%%%%%%%%%%%%%%%%%%%%%%%%%%%%%%%%%%%%%%%%%%%%%%%%%%

     stopping ...
