
     Program PWSCF v.6.0 (svn rev. 13079) starts on  6Feb2018 at 21:21: 2 

     This program is part of the open-source Quantum ESPRESSO suite
     for quantum simulation of materials; please cite
         "P. Giannozzi et al., J. Phys.:Condens. Matter 21 395502 (2009);
          URL http://www.quantum-espresso.org", 
     in publications or presentations arising from this work. More details at
     http://www.quantum-espresso.org/quote

     Parallel version (MPI), running on    28 processors
     R & G space division:  proc/nbgrp/npool/nimage =      28
     Reading input from inputs/rand-water-1/4027.in
Warning: card &IONS ignored
Warning: card     POT_EXTRAPOLATION='SECOND-ORDER' ignored
Warning: card     WFC_EXTRAPOLATION='SECOND-ORDER' ignored
Warning: card     ION_TEMPERATURE = 'ANDERSEN' ignored
Warning: card     TEMPW = 1000 ignored
Warning: card / ignored

     Current dimensions of program PWSCF are:
     Max number of different atomic species (ntypx) = 10
     Max number of k-points (npk) =  40000
     Max angular momentum in pseudopotentials (lmaxx) =  3

     Subspace diagonalization in iterative solution of the eigenvalue problem:
     a serial algorithm will be used

 
     Parallelization info
     --------------------
     sticks:   dense  smooth     PW     G-vecs:    dense   smooth      PW
     Min         136     136     33                 6338     6338     787
     Max         137     137     34                 6341     6341     792
     Sum        3809    3809    949               177509   177509   22119
 


     bravais-lattice index     =            1
     lattice parameter (alat)  =      20.0000  a.u.
     unit-cell volume          =    8000.0000 (a.u.)^3
     number of atoms/cell      =            3
     number of atomic types    =            2
     number of electrons       =         8.00
     number of Kohn-Sham states=            8
     kinetic-energy cutoff     =      30.0000  Ry
     charge density cutoff     =     120.0000  Ry
     convergence threshold     =      1.0E-08
     mixing beta               =       0.7000
     number of iterations used =            8  plain     mixing
     Exchange-correlation      = BLYP ( 1  3  1  3 0 0)

     celldm(1)=  20.000000  celldm(2)=   0.000000  celldm(3)=   0.000000
     celldm(4)=   0.000000  celldm(5)=   0.000000  celldm(6)=   0.000000

     crystal axes: (cart. coord. in units of alat)
               a(1) = (   1.000000   0.000000   0.000000 )  
               a(2) = (   0.000000   1.000000   0.000000 )  
               a(3) = (   0.000000   0.000000   1.000000 )  

     reciprocal axes: (cart. coord. in units 2 pi/alat)
               b(1) = (  1.000000  0.000000  0.000000 )  
               b(2) = (  0.000000  1.000000  0.000000 )  
               b(3) = (  0.000000  0.000000  1.000000 )  


     PseudoPot. # 1 for  H read from file:
     ./H.blyp-hgh.UPF
     MD5 check sum: c576e69559cde411e611be972c763230
     Pseudo is Norm-conserving, Zval =  1.0
     Generated in analytical, separable form
     Using radial grid of  929 points,  0 beta functions with: 

     PseudoPot. # 2 for  O read from file:
     ./O.blyp-hgh.UPF
     MD5 check sum: d0b7156309aa9befef28faac7bc56342
     Pseudo is Norm-conserving, Zval =  6.0
     Generated in analytical, separable form
     Using radial grid of 1095 points,  1 beta functions with: 
                l(1) =   0

     atomic species   valence    mass     pseudopotential
        H              1.00     1.01000      H( 1.00)
        O              6.00    16.00000      O( 1.00)

     No symmetry found



   Cartesian axes

     site n.     atom                  positions (alat units)
         1           H   tau(   1) = (   0.7618717   0.6575322   0.3405499  )
         2           H   tau(   2) = (   0.9314519   0.8323946   0.0741554  )
         3           O   tau(   3) = (   0.2771484   0.2408978   0.3816623  )

     number of k points=     1  Marzari-Vanderbilt smearing, width (Ry)=  0.0250
                       cart. coord. in units 2pi/alat
        k(    1) = (   0.0000000   0.0000000   0.0000000), wk =   2.0000000

     Dense  grid:   177509 G-vectors     FFT dimensions: (  72,  72,  72)

     Estimated max dynamical RAM per process >       6.09Mb

     Estimated total allocated dynamical RAM >     170.64Mb

     Initial potential from superposition of free atoms
     Check: negative starting charge=   -0.355130

     starting charge    7.99998, renormalised to    8.00000

     negative rho (up, down):  3.551E-01 0.000E+00
     Starting wfc are    6 randomized atomic wfcs +    2 random wfc

     total cpu time spent up to now is        0.2 secs

     per-process dynamical memory:    18.8 Mb

     Self-consistent Calculation

     iteration #  1     ecut=    30.00 Ry     beta=0.70
     Davidson diagonalization with overlap
     ethr =  1.00E-02,  avg # of iterations =  7.0

     negative rho (up, down):  8.752E-02 0.000E+00

     total cpu time spent up to now is        0.3 secs

     total energy              =     -27.96536806 Ry
     Harris-Foulkes estimate   =     -32.08476986 Ry
     estimated scf accuracy    <       4.71501622 Ry

     iteration #  2     ecut=    30.00 Ry     beta=0.70
     Davidson diagonalization with overlap
     ethr =  1.00E-02,  avg # of iterations =  4.0

     negative rho (up, down):  6.410E-02 0.000E+00

     total cpu time spent up to now is        0.4 secs

     total energy              =     -32.72053391 Ry
     Harris-Foulkes estimate   =     -38.17604775 Ry
     estimated scf accuracy    <      13.26152048 Ry

     iteration #  3     ecut=    30.00 Ry     beta=0.70
     Davidson diagonalization with overlap
     ethr =  1.00E-02,  avg # of iterations =  2.0

     negative rho (up, down):  1.106E-01 0.000E+00

     total cpu time spent up to now is        0.5 secs

     total energy              =     -30.84251154 Ry
     Harris-Foulkes estimate   =     -33.05950151 Ry
     estimated scf accuracy    <       5.19187305 Ry

     iteration #  4     ecut=    30.00 Ry     beta=0.70
     Davidson diagonalization with overlap
     ethr =  1.00E-02,  avg # of iterations =  6.0

     negative rho (up, down):  7.139E-01 0.000E+00

     total cpu time spent up to now is        0.6 secs

     total energy              =     -30.32557662 Ry
     Harris-Foulkes estimate   =     -32.04838004 Ry
     estimated scf accuracy    <       4.64783032 Ry

     iteration #  5     ecut=    30.00 Ry     beta=0.70
     Davidson diagonalization with overlap
     ethr =  1.00E-02,  avg # of iterations =  2.0

     negative rho (up, down):  4.215E-01 0.000E+00

     total cpu time spent up to now is        0.6 secs

     total energy              =     -31.93390523 Ry
     Harris-Foulkes estimate   =     -33.18359405 Ry
     estimated scf accuracy    <       5.01922700 Ry

     iteration #  6     ecut=    30.00 Ry     beta=0.70
     Davidson diagonalization with overlap
     ethr =  1.00E-02,  avg # of iterations =  1.0

     negative rho (up, down):  1.344E-01 0.000E+00

     total cpu time spent up to now is        0.7 secs

     total energy              =     -31.15864264 Ry
     Harris-Foulkes estimate   =     -31.94081089 Ry
     estimated scf accuracy    <       3.40394612 Ry

     iteration #  7     ecut=    30.00 Ry     beta=0.70
     Davidson diagonalization with overlap
     ethr =  1.00E-02,  avg # of iterations =  1.0

     negative rho (up, down):  1.477E-01 0.000E+00

     total cpu time spent up to now is        0.8 secs

     total energy              =     -31.74332774 Ry
     Harris-Foulkes estimate   =     -31.75243907 Ry
     estimated scf accuracy    <       4.11450102 Ry

     iteration #  8     ecut=    30.00 Ry     beta=0.70
     Davidson diagonalization with overlap
     ethr =  1.00E-02,  avg # of iterations =  1.0

     negative rho (up, down):  1.278E-01 0.000E+00

     total cpu time spent up to now is        0.8 secs

     total energy              =     -32.02025866 Ry
     Harris-Foulkes estimate   =     -31.74400495 Ry
     estimated scf accuracy    <       4.10727067 Ry

     iteration #  9     ecut=    30.00 Ry     beta=0.70
     Davidson diagonalization with overlap
     ethr =  1.00E-02,  avg # of iterations =  1.0

     negative rho (up, down):  1.179E-01 0.000E+00

     total cpu time spent up to now is        0.9 secs

     total energy              =     -32.29607273 Ry
     Harris-Foulkes estimate   =     -32.02198348 Ry
     estimated scf accuracy    <       4.52755095 Ry

     iteration # 10     ecut=    30.00 Ry     beta=0.70
     Davidson diagonalization with overlap
     ethr =  1.00E-02,  avg # of iterations =  1.0

     negative rho (up, down):  1.205E-01 0.000E+00

     total cpu time spent up to now is        1.0 secs

     total energy              =     -32.38551258 Ry
     Harris-Foulkes estimate   =     -32.29760259 Ry
     estimated scf accuracy    <       4.95594741 Ry

     iteration # 11     ecut=    30.00 Ry     beta=0.70
     Davidson diagonalization with overlap
     ethr =  1.00E-02,  avg # of iterations =  1.0

     negative rho (up, down):  1.162E-01 0.000E+00

     total cpu time spent up to now is        1.0 secs

     total energy              =     -32.55601635 Ry
     Harris-Foulkes estimate   =     -32.38573268 Ry
     estimated scf accuracy    <       5.08899094 Ry

     iteration # 12     ecut=    30.00 Ry     beta=0.70
     Davidson diagonalization with overlap
     ethr =  1.00E-02,  avg # of iterations =  1.0

     negative rho (up, down):  1.738E-02 0.000E+00

     total cpu time spent up to now is        1.1 secs

     total energy              =     -32.78353467 Ry
     Harris-Foulkes estimate   =     -32.55675862 Ry
     estimated scf accuracy    <       5.36057938 Ry

     iteration # 13     ecut=    30.00 Ry     beta=0.70
     Davidson diagonalization with overlap
     ethr =  1.00E-02,  avg # of iterations =  1.0

     negative rho (up, down):  8.204E-03 0.000E+00

     total cpu time spent up to now is        1.1 secs

     total energy              =     -32.27915978 Ry
     Harris-Foulkes estimate   =     -32.78441233 Ry
     estimated scf accuracy    <       5.68590062 Ry

     iteration # 14     ecut=    30.00 Ry     beta=0.70
     Davidson diagonalization with overlap
     ethr =  1.00E-02,  avg # of iterations =  1.0

     negative rho (up, down):  3.845E-03 0.000E+00

     total cpu time spent up to now is        1.2 secs

     total energy              =     -31.91745678 Ry
     Harris-Foulkes estimate   =     -32.28412282 Ry
     estimated scf accuracy    <       4.95252085 Ry

     iteration # 15     ecut=    30.00 Ry     beta=0.70
     Davidson diagonalization with overlap
     ethr =  1.00E-02,  avg # of iterations =  1.0

     negative rho (up, down):  4.088E-01 0.000E+00

     total cpu time spent up to now is        1.2 secs

     total energy              =     -28.41158201 Ry
     Harris-Foulkes estimate   =     -31.92197011 Ry
     estimated scf accuracy    <       4.35780184 Ry

     iteration # 16     ecut=    30.00 Ry     beta=0.70
     Davidson diagonalization with overlap
     ethr =  1.00E-02,  avg # of iterations =  4.0

     negative rho (up, down):  5.892E-02 0.000E+00

     total cpu time spent up to now is        1.3 secs

     total energy              =     -34.15194921 Ry
     Harris-Foulkes estimate   =     -37.60753387 Ry
     estimated scf accuracy    <      11.48936220 Ry

     iteration # 17     ecut=    30.00 Ry     beta=0.70
     Davidson diagonalization with overlap
     ethr =  1.00E-02,  avg # of iterations =  2.0

     negative rho (up, down):  6.652E-03 0.000E+00

     total cpu time spent up to now is        1.3 secs

     total energy              =     -32.09797076 Ry
     Harris-Foulkes estimate   =     -34.22804865 Ry
     estimated scf accuracy    <       6.89057323 Ry

     iteration # 18     ecut=    30.00 Ry     beta=0.70
     Davidson diagonalization with overlap
     ethr =  1.00E-02,  avg # of iterations =  1.0

     negative rho (up, down):  5.260E-04 0.000E+00

     total cpu time spent up to now is        1.4 secs

     total energy              =     -31.80724732 Ry
     Harris-Foulkes estimate   =     -32.15950791 Ry
     estimated scf accuracy    <       3.77608876 Ry

     iteration # 19     ecut=    30.00 Ry     beta=0.70
     Davidson diagonalization with overlap
     ethr =  1.00E-02,  avg # of iterations =  1.0

     negative rho (up, down):  4.015E-04 0.000E+00

     total cpu time spent up to now is        1.4 secs

     total energy              =     -31.64662871 Ry
     Harris-Foulkes estimate   =     -31.80995138 Ry
     estimated scf accuracy    <       3.24785056 Ry

     iteration # 20     ecut=    30.00 Ry     beta=0.70
     Davidson diagonalization with overlap
     ethr =  1.00E-02,  avg # of iterations =  1.0

     negative rho (up, down):  1.008E-03 0.000E+00

     total cpu time spent up to now is        1.5 secs

     total energy              =     -31.67656525 Ry
     Harris-Foulkes estimate   =     -31.64737886 Ry
     estimated scf accuracy    <       2.99211774 Ry

     iteration # 21     ecut=    30.00 Ry     beta=0.70
     Davidson diagonalization with overlap
     ethr =  1.00E-02,  avg # of iterations =  4.0

     negative rho (up, down):  1.025E-03 0.000E+00

     total cpu time spent up to now is        1.5 secs

     total energy              =     -31.65888996 Ry
     Harris-Foulkes estimate   =     -31.66438646 Ry
     estimated scf accuracy    <       3.03689470 Ry

     iteration # 22     ecut=    30.00 Ry     beta=0.70
     Davidson diagonalization with overlap
     ethr =  1.00E-02,  avg # of iterations =  3.0

     negative rho (up, down):  1.281E-03 0.000E+00

     total cpu time spent up to now is        1.6 secs

     total energy              =     -31.61530118 Ry
     Harris-Foulkes estimate   =     -31.65889084 Ry
     estimated scf accuracy    <       3.03056768 Ry

     iteration # 23     ecut=    30.00 Ry     beta=0.70
     Davidson diagonalization with overlap
     ethr =  1.00E-02,  avg # of iterations =  1.0

     negative rho (up, down):  1.834E-03 0.000E+00

     total cpu time spent up to now is        1.6 secs

     total energy              =     -31.40856176 Ry
     Harris-Foulkes estimate   =     -31.61533874 Ry
     estimated scf accuracy    <       2.96522810 Ry

     iteration # 24     ecut=    30.00 Ry     beta=0.70
     Davidson diagonalization with overlap
     ethr =  1.00E-02,  avg # of iterations =  1.0

     negative rho (up, down):  6.560E-03 0.000E+00

     total cpu time spent up to now is        1.7 secs

     total energy              =     -32.36423828 Ry
     Harris-Foulkes estimate   =     -31.51469828 Ry
     estimated scf accuracy    <       2.24151081 Ry

     iteration # 25     ecut=    30.00 Ry     beta=0.70
     Davidson diagonalization with overlap
     ethr =  1.00E-02,  avg # of iterations =  1.0

     negative rho (up, down):  4.235E-05 0.000E+00

     total cpu time spent up to now is        1.7 secs

     total energy              =     -31.84814910 Ry
     Harris-Foulkes estimate   =     -32.61294016 Ry
     estimated scf accuracy    <       5.37736431 Ry

     iteration # 26     ecut=    30.00 Ry     beta=0.70
     Davidson diagonalization with overlap
     ethr =  1.00E-02,  avg # of iterations =  1.0

     negative rho (up, down):  1.996E-04 0.000E+00

     total cpu time spent up to now is        1.8 secs

     total energy              =     -31.54634252 Ry
     Harris-Foulkes estimate   =     -31.85726441 Ry
     estimated scf accuracy    <       4.26798866 Ry

     iteration # 27     ecut=    30.00 Ry     beta=0.70
     Davidson diagonalization with overlap
     ethr =  1.00E-02,  avg # of iterations =  1.0

     negative rho (up, down):  3.278E-04 0.000E+00

     total cpu time spent up to now is        1.8 secs

     total energy              =     -31.52696552 Ry
     Harris-Foulkes estimate   =     -31.54340659 Ry
     estimated scf accuracy    <       4.15484128 Ry

     iteration # 28     ecut=    30.00 Ry     beta=0.70
     Davidson diagonalization with overlap
     ethr =  1.00E-02,  avg # of iterations =  1.0

     negative rho (up, down):  3.170E-04 0.000E+00

     total cpu time spent up to now is        1.9 secs

     total energy              =     -31.50314655 Ry
     Harris-Foulkes estimate   =     -31.52799241 Ry
     estimated scf accuracy    <       3.25685127 Ry

     iteration # 29     ecut=    30.00 Ry     beta=0.70
     Davidson diagonalization with overlap
     ethr =  1.00E-02,  avg # of iterations =  1.0

     negative rho (up, down):  2.132E-04 0.000E+00

     total cpu time spent up to now is        1.9 secs

     total energy              =     -31.52182951 Ry
     Harris-Foulkes estimate   =     -31.50695458 Ry
     estimated scf accuracy    <       1.48629552 Ry

     iteration # 30     ecut=    30.00 Ry     beta=0.70
     Davidson diagonalization with overlap
     ethr =  1.00E-02,  avg # of iterations =  1.0

     negative rho (up, down):  2.029E-04 0.000E+00

     total cpu time spent up to now is        2.0 secs

     total energy              =     -31.54909932 Ry
     Harris-Foulkes estimate   =     -31.52512076 Ry
     estimated scf accuracy    <       3.03726499 Ry

     iteration # 31     ecut=    30.00 Ry     beta=0.70
     Davidson diagonalization with overlap
     ethr =  1.00E-02,  avg # of iterations =  1.0

     negative rho (up, down):  1.526E-04 0.000E+00

     total cpu time spent up to now is        2.1 secs

     total energy              =     -31.64153265 Ry
     Harris-Foulkes estimate   =     -31.55191648 Ry
     estimated scf accuracy    <       4.46472403 Ry

     iteration # 32     ecut=    30.00 Ry     beta=0.70
     Davidson diagonalization with overlap
     ethr =  1.00E-02,  avg # of iterations =  1.0

     negative rho (up, down):  1.242E-05 0.000E+00

     total cpu time spent up to now is        2.1 secs

     total energy              =     -31.96747800 Ry
     Harris-Foulkes estimate   =     -31.64039878 Ry
     estimated scf accuracy    <       3.98012134 Ry

     iteration # 33     ecut=    30.00 Ry     beta=0.70
     Davidson diagonalization with overlap
     ethr =  1.00E-02,  avg # of iterations =  1.0

     negative rho (up, down):  1.439E-04 0.000E+00

     total cpu time spent up to now is        2.2 secs

     total energy              =     -32.14222290 Ry
     Harris-Foulkes estimate   =     -31.96670516 Ry
     estimated scf accuracy    <       4.39541763 Ry

     iteration # 34     ecut=    30.00 Ry     beta=0.70
     Davidson diagonalization with overlap
     ethr =  1.00E-02,  avg # of iterations =  1.0

     negative rho (up, down):  4.814E-05 0.000E+00

     total cpu time spent up to now is        2.2 secs

     total energy              =     -31.93857957 Ry
     Harris-Foulkes estimate   =     -32.14305302 Ry
     estimated scf accuracy    <       4.67445628 Ry

     iteration # 35     ecut=    30.00 Ry     beta=0.70
     Davidson diagonalization with overlap
     ethr =  1.00E-02,  avg # of iterations =  1.0

     negative rho (up, down):  9.319E-06 0.000E+00

     total cpu time spent up to now is        2.3 secs

     total energy              =     -31.83433835 Ry
     Harris-Foulkes estimate   =     -31.93947005 Ry
     estimated scf accuracy    <       4.36340797 Ry

     iteration # 36     ecut=    30.00 Ry     beta=0.70
     Davidson diagonalization with overlap
     ethr =  1.00E-02,  avg # of iterations =  1.0

     negative rho (up, down):  1.307E-04 0.000E+00

     total cpu time spent up to now is        2.3 secs

     total energy              =     -31.24093803 Ry
     Harris-Foulkes estimate   =     -31.83466530 Ry
     estimated scf accuracy    <       4.20023724 Ry

     iteration # 37     ecut=    30.00 Ry     beta=0.70
     Davidson diagonalization with overlap
     ethr =  1.00E-02,  avg # of iterations =  1.0

     negative rho (up, down):  7.191E-05 0.000E+00

     total cpu time spent up to now is        2.4 secs

     total energy              =     -31.47816713 Ry
     Harris-Foulkes estimate   =     -31.65332723 Ry
     estimated scf accuracy    <       3.05837602 Ry

     iteration # 38     ecut=    30.00 Ry     beta=0.70
     Davidson diagonalization with overlap
     ethr =  1.00E-02,  avg # of iterations =  1.0

     negative rho (up, down):  7.239E-06 0.000E+00

     total cpu time spent up to now is        2.4 secs

     total energy              =     -31.43202921 Ry
     Harris-Foulkes estimate   =     -31.49665810 Ry
     estimated scf accuracy    <       0.40578062 Ry

     iteration # 39     ecut=    30.00 Ry     beta=0.70
     Davidson diagonalization with overlap
     ethr =  5.07E-03,  avg # of iterations =  1.0

     negative rho (up, down):  1.520E-06 0.000E+00

     total cpu time spent up to now is        2.5 secs

     total energy              =     -31.65692359 Ry
     Harris-Foulkes estimate   =     -31.64524339 Ry
     estimated scf accuracy    <       3.96972439 Ry

     iteration # 40     ecut=    30.00 Ry     beta=0.70
     Davidson diagonalization with overlap
     ethr =  5.07E-03,  avg # of iterations =  1.0

     negative rho (up, down):  9.389E-07 0.000E+00

     total cpu time spent up to now is        2.5 secs

     total energy              =     -31.49189325 Ry
     Harris-Foulkes estimate   =     -31.65692695 Ry
     estimated scf accuracy    <       3.95391115 Ry

     iteration # 41     ecut=    30.00 Ry     beta=0.70
     Davidson diagonalization with overlap
     ethr =  5.07E-03,  avg # of iterations =  1.0

     negative rho (up, down):  1.676E-07 0.000E+00

     total cpu time spent up to now is        2.6 secs

     total energy              =     -31.55035266 Ry
     Harris-Foulkes estimate   =     -31.49898565 Ry
     estimated scf accuracy    <       0.68950723 Ry

     iteration # 42     ecut=    30.00 Ry     beta=0.70
     Davidson diagonalization with overlap
     ethr =  5.07E-03,  avg # of iterations =  1.0

     negative rho (up, down):  1.071E-06 0.000E+00

     total cpu time spent up to now is        2.7 secs

     WARNING: integrated charge=     8.00047414, expected=     8.00000000

     total energy              =     -31.40996769 Ry
     Harris-Foulkes estimate   =     -31.60975878 Ry
     estimated scf accuracy    <       4.25034524 Ry

     iteration # 43     ecut=    30.00 Ry     beta=0.70
     Davidson diagonalization with overlap
     ethr =  5.07E-03,  avg # of iterations =  1.0

     negative rho (up, down):  1.410E-03 0.000E+00

     total cpu time spent up to now is        2.9 secs

     WARNING: integrated charge=     8.00048359, expected=     8.00000000

     total energy              =     -31.34276020 Ry
     Harris-Foulkes estimate   =     -31.50432956 Ry
     estimated scf accuracy    <       1.00311035 Ry

     iteration # 44     ecut=    30.00 Ry     beta=0.70
     Davidson diagonalization with overlap
     ethr =  5.07E-03,  avg # of iterations =  1.0

     negative rho (up, down):  1.295E-02 0.000E+00

     total cpu time spent up to now is        3.1 secs

     WARNING: integrated charge=     7.99715241, expected=     8.00000000

     total energy              =     -31.39989724 Ry
     Harris-Foulkes estimate   =     -31.75244262 Ry
     estimated scf accuracy    <       4.06168688 Ry

     iteration # 45     ecut=    30.00 Ry     beta=0.70
     Davidson diagonalization with overlap
     ethr =  5.07E-03,  avg # of iterations =  1.0

     negative rho (up, down):  1.660E-02 0.000E+00

     total cpu time spent up to now is        3.2 secs

     WARNING: integrated charge=     7.99961220, expected=     8.00000000

     total energy              =     -31.47477731 Ry
     Harris-Foulkes estimate   =     -31.51114628 Ry
     estimated scf accuracy    <       1.60238241 Ry

     iteration # 46     ecut=    30.00 Ry     beta=0.70
     Davidson diagonalization with overlap
     ethr =  5.07E-03,  avg # of iterations =  1.0

     negative rho (up, down):  1.528E-02 0.000E+00

     total cpu time spent up to now is        3.4 secs

     WARNING: integrated charge=     7.99889340, expected=     8.00000000

     total energy              =     -31.48657604 Ry
     Harris-Foulkes estimate   =     -31.48931504 Ry
     estimated scf accuracy    <       0.01696974 Ry

     iteration # 47     ecut=    30.00 Ry     beta=0.70
     Davidson diagonalization with overlap
     ethr =  2.12E-04,  avg # of iterations =  1.0

     negative rho (up, down):  2.930E-02 0.000E+00

     total cpu time spent up to now is        3.5 secs

     WARNING: integrated charge=     7.99910403, expected=     8.00000000

     total energy              =     -31.46115171 Ry
     Harris-Foulkes estimate   =     -31.50367476 Ry
     estimated scf accuracy    <       1.46810146 Ry

     iteration # 48     ecut=    30.00 Ry     beta=0.70
     Davidson diagonalization with overlap
     ethr =  2.12E-04,  avg # of iterations =  2.0

     negative rho (up, down):  2.273E-02 0.000E+00

     total cpu time spent up to now is        3.6 secs

     WARNING: integrated charge=     7.99844258, expected=     8.00000000

     total energy              =     -31.49578281 Ry
     Harris-Foulkes estimate   =     -31.49052232 Ry
     estimated scf accuracy    <       0.23642943 Ry

     iteration # 49     ecut=    30.00 Ry     beta=0.70
     Davidson diagonalization with overlap
     ethr =  2.12E-04,  avg # of iterations =  1.0

     negative rho (up, down):  9.952E-03 0.000E+00

     total cpu time spent up to now is        3.6 secs

     WARNING: integrated charge=     7.99941801, expected=     8.00000000

     total energy              =     -31.47918933 Ry
     Harris-Foulkes estimate   =     -31.51045891 Ry
     estimated scf accuracy    <       1.69731720 Ry

     iteration # 50     ecut=    30.00 Ry     beta=0.70
     Davidson diagonalization with overlap
     ethr =  2.12E-04,  avg # of iterations =  1.0

     negative rho (up, down):  1.043E-02 0.000E+00

     total cpu time spent up to now is        3.7 secs

     WARNING: integrated charge=     7.99921842, expected=     8.00000000

     total energy              =     -31.49119472 Ry
     Harris-Foulkes estimate   =     -31.49128652 Ry
     estimated scf accuracy    <       0.07167863 Ry

     iteration # 51     ecut=    30.00 Ry     beta=0.70
     Davidson diagonalization with overlap
     ethr =  2.12E-04,  avg # of iterations =  1.0

     negative rho (up, down):  3.174E-03 0.000E+00

     total cpu time spent up to now is        3.7 secs

     WARNING: integrated charge=     7.99916625, expected=     8.00000000

     total energy              =     -31.49244024 Ry
     Harris-Foulkes estimate   =     -31.49120289 Ry
     estimated scf accuracy    <       0.06350607 Ry

     iteration # 52     ecut=    30.00 Ry     beta=0.70
     Davidson diagonalization with overlap
     ethr =  2.12E-04,  avg # of iterations =  1.0

     negative rho (up, down):  2.259E-03 0.000E+00

     total cpu time spent up to now is        3.8 secs

     WARNING: integrated charge=     7.99931162, expected=     8.00000000

     total energy              =     -31.49260498 Ry
     Harris-Foulkes estimate   =     -31.49249031 Ry
     estimated scf accuracy    <       0.03452893 Ry

     iteration # 53     ecut=    30.00 Ry     beta=0.70
     Davidson diagonalization with overlap
     ethr =  2.12E-04,  avg # of iterations =  1.0

     negative rho (up, down):  2.154E-03 0.000E+00

     total cpu time spent up to now is        3.9 secs

     WARNING: integrated charge=     7.99937909, expected=     8.00000000

     total energy              =     -31.49257406 Ry
     Harris-Foulkes estimate   =     -31.49260710 Ry
     estimated scf accuracy    <       0.03412981 Ry

     iteration # 54     ecut=    30.00 Ry     beta=0.70
     Davidson diagonalization with overlap
     ethr =  2.12E-04,  avg # of iterations =  1.0

     negative rho (up, down):  2.569E-03 0.000E+00

     total cpu time spent up to now is        3.9 secs

     WARNING: integrated charge=     7.99946447, expected=     8.00000000

     total energy              =     -31.49213920 Ry
     Harris-Foulkes estimate   =     -31.49257689 Ry
     estimated scf accuracy    <       0.02929234 Ry

     iteration # 55     ecut=    30.00 Ry     beta=0.70
     Davidson diagonalization with overlap
     ethr =  2.12E-04,  avg # of iterations =  1.0

     negative rho (up, down):  2.350E-03 0.000E+00

     total cpu time spent up to now is        4.0 secs

     WARNING: integrated charge=     7.99967648, expected=     8.00000000

     total energy              =     -31.49233504 Ry
     Harris-Foulkes estimate   =     -31.49223974 Ry
     estimated scf accuracy    <       0.00488170 Ry

     iteration # 56     ecut=    30.00 Ry     beta=0.70
     Davidson diagonalization with overlap
     ethr =  6.10E-05,  avg # of iterations =  1.0

     negative rho (up, down):  5.371E-04 0.000E+00

     total cpu time spent up to now is        4.0 secs

     WARNING: integrated charge=     7.99985961, expected=     8.00000000

     total energy              =     -31.49242860 Ry
     Harris-Foulkes estimate   =     -31.49234014 Ry
     estimated scf accuracy    <       0.00305385 Ry

     iteration # 57     ecut=    30.00 Ry     beta=0.70
     Davidson diagonalization with overlap
     ethr =  3.82E-05,  avg # of iterations =  1.0

     negative rho (up, down):  2.498E-04 0.000E+00

     total cpu time spent up to now is        4.1 secs

     WARNING: integrated charge=     7.99993037, expected=     8.00000000

     total energy              =     -31.49248308 Ry
     Harris-Foulkes estimate   =     -31.49245369 Ry
     estimated scf accuracy    <       0.00004181 Ry

     iteration # 58     ecut=    30.00 Ry     beta=0.70
     Davidson diagonalization with overlap
     ethr =  5.23E-07,  avg # of iterations =  9.0

     negative rho (up, down):  1.544E-05 0.000E+00

     total cpu time spent up to now is        4.2 secs

     WARNING: integrated charge=     7.99997893, expected=     8.00000000

     total energy              =     -31.49249515 Ry
     Harris-Foulkes estimate   =     -31.49248394 Ry
     estimated scf accuracy    <       0.00000624 Ry

     iteration # 59     ecut=    30.00 Ry     beta=0.70
     Davidson diagonalization with overlap
     ethr =  7.80E-08,  avg # of iterations =  1.0

     negative rho (up, down):  1.314E-05 0.000E+00

     total cpu time spent up to now is        4.2 secs

     WARNING: integrated charge=     7.99999359, expected=     8.00000000

     total energy              =     -31.49249424 Ry
     Harris-Foulkes estimate   =     -31.49249536 Ry
     estimated scf accuracy    <       0.00000020 Ry

     iteration # 60     ecut=    30.00 Ry     beta=0.70
     Davidson diagonalization with overlap
     ethr =  2.48E-09,  avg # of iterations =  2.0

     negative rho (up, down):  2.502E-07 0.000E+00

     total cpu time spent up to now is        4.3 secs

     total energy              =     -31.49249477 Ry
     Harris-Foulkes estimate   =     -31.49249434 Ry
     estimated scf accuracy    <       0.00000004 Ry

     iteration # 61     ecut=    30.00 Ry     beta=0.70
     Davidson diagonalization with overlap
     ethr =  4.99E-10,  avg # of iterations =  2.0

     negative rho (up, down):  3.675E-07 0.000E+00

     total cpu time spent up to now is        4.3 secs

     WARNING: integrated charge=     8.00000140, expected=     8.00000000

     total energy              =     -31.49249484 Ry
     Harris-Foulkes estimate   =     -31.49249478 Ry
     estimated scf accuracy    <       0.00000001 Ry

     iteration # 62     ecut=    30.00 Ry     beta=0.70
     Davidson diagonalization with overlap
     ethr =  1.42E-10,  avg # of iterations =  2.0

     total cpu time spent up to now is        4.4 secs

     End of self-consistent calculation

          k = 0.0000 0.0000 0.0000 ( 22119 PWs)   bands (ev):

   -23.6866  -7.0903  -7.0899  -7.0895  -7.0809  -6.8776  -0.2431   0.6487

     the Fermi energy is    -6.9560 ev

!    total energy              =     -31.49249493 Ry
     Harris-Foulkes estimate   =     -31.49249485 Ry
     estimated scf accuracy    <          3.2E-09 Ry

     The total energy is the sum of the following terms:

     one-electron contribution =     -39.11558321 Ry
     hartree contribution      =      20.79878775 Ry
     xc contribution           =      -7.05277247 Ry
     ewald contribution        =      -6.09211990 Ry
     smearing contrib. (-TS)   =      -0.03080710 Ry

     convergence has been achieved in  62 iterations

     Writing output data file pwscf.save
 
     init_run     :      0.09s CPU      0.11s WALL (       1 calls)
     electrons    :      2.55s CPU      4.21s WALL (       1 calls)

     Called by init_run:
     wfcinit      :      0.01s CPU      0.03s WALL (       1 calls)
     potinit      :      0.02s CPU      0.03s WALL (       1 calls)

     Called by electrons:
     c_bands      :      0.64s CPU      0.81s WALL (      62 calls)
     sum_band     :      0.16s CPU      0.18s WALL (      62 calls)
     v_of_rho     :      0.48s CPU      0.52s WALL (      63 calls)
     mix_rho      :      1.21s CPU      2.43s WALL (      62 calls)

     Called by c_bands:
     init_us_2    :      0.00s CPU      0.01s WALL (     125 calls)
     cegterg      :      0.62s CPU      0.66s WALL (      62 calls)

     Called by sum_band:

     Called by *egterg:
     h_psi        :      0.53s CPU      0.56s WALL (     162 calls)
     g_psi        :      0.00s CPU      0.00s WALL (      99 calls)
     cdiaghg      :      0.04s CPU      0.05s WALL (     161 calls)

     Called by h_psi:
     h_psi:pot    :      0.53s CPU      0.56s WALL (     162 calls)
     h_psi:calbec :      0.01s CPU      0.01s WALL (     162 calls)
     vloc_psi     :      0.52s CPU      0.55s WALL (     162 calls)
     add_vuspsi   :      0.00s CPU      0.00s WALL (     162 calls)

     General routines
     calbec       :      0.01s CPU      0.01s WALL (     162 calls)
     fft          :      0.33s CPU      0.36s WALL (     692 calls)
     fftw         :      0.57s CPU      0.61s WALL (    2708 calls)
     davcio       :      0.05s CPU      1.02s WALL (    1148 calls)
 
     Parallel routines
     fft_scatter  :      0.41s CPU      0.45s WALL (    3400 calls)
 
     PWSCF        :     2.76s CPU         4.64s WALL

 
   This run was terminated on:  21:21: 7   6Feb2018            

=------------------------------------------------------------------------------=
   JOB DONE.
=------------------------------------------------------------------------------=
