
     Program PWSCF v.6.0 (svn rev. 13079) starts on  6Feb2018 at 22: 5:39 

     This program is part of the open-source Quantum ESPRESSO suite
     for quantum simulation of materials; please cite
         "P. Giannozzi et al., J. Phys.:Condens. Matter 21 395502 (2009);
          URL http://www.quantum-espresso.org", 
     in publications or presentations arising from this work. More details at
     http://www.quantum-espresso.org/quote

     Parallel version (MPI), running on    28 processors
     R & G space division:  proc/nbgrp/npool/nimage =      28
     Reading input from inputs/rand-water-1/5093.in
Warning: card &IONS ignored
Warning: card     POT_EXTRAPOLATION='SECOND-ORDER' ignored
Warning: card     WFC_EXTRAPOLATION='SECOND-ORDER' ignored
Warning: card     ION_TEMPERATURE = 'ANDERSEN' ignored
Warning: card     TEMPW = 1000 ignored
Warning: card / ignored

     Current dimensions of program PWSCF are:
     Max number of different atomic species (ntypx) = 10
     Max number of k-points (npk) =  40000
     Max angular momentum in pseudopotentials (lmaxx) =  3

     Subspace diagonalization in iterative solution of the eigenvalue problem:
     a serial algorithm will be used

 
     Parallelization info
     --------------------
     sticks:   dense  smooth     PW     G-vecs:    dense   smooth      PW
     Min         136     136     33                 6338     6338     787
     Max         137     137     34                 6341     6341     792
     Sum        3809    3809    949               177509   177509   22119
 


     bravais-lattice index     =            1
     lattice parameter (alat)  =      20.0000  a.u.
     unit-cell volume          =    8000.0000 (a.u.)^3
     number of atoms/cell      =            3
     number of atomic types    =            2
     number of electrons       =         8.00
     number of Kohn-Sham states=            8
     kinetic-energy cutoff     =      30.0000  Ry
     charge density cutoff     =     120.0000  Ry
     convergence threshold     =      1.0E-08
     mixing beta               =       0.7000
     number of iterations used =            8  plain     mixing
     Exchange-correlation      = BLYP ( 1  3  1  3 0 0)

     celldm(1)=  20.000000  celldm(2)=   0.000000  celldm(3)=   0.000000
     celldm(4)=   0.000000  celldm(5)=   0.000000  celldm(6)=   0.000000

     crystal axes: (cart. coord. in units of alat)
               a(1) = (   1.000000   0.000000   0.000000 )  
               a(2) = (   0.000000   1.000000   0.000000 )  
               a(3) = (   0.000000   0.000000   1.000000 )  

     reciprocal axes: (cart. coord. in units 2 pi/alat)
               b(1) = (  1.000000  0.000000  0.000000 )  
               b(2) = (  0.000000  1.000000  0.000000 )  
               b(3) = (  0.000000  0.000000  1.000000 )  


     PseudoPot. # 1 for  H read from file:
     ./H.blyp-hgh.UPF
     MD5 check sum: c576e69559cde411e611be972c763230
     Pseudo is Norm-conserving, Zval =  1.0
     Generated in analytical, separable form
     Using radial grid of  929 points,  0 beta functions with: 

     PseudoPot. # 2 for  O read from file:
     ./O.blyp-hgh.UPF
     MD5 check sum: d0b7156309aa9befef28faac7bc56342
     Pseudo is Norm-conserving, Zval =  6.0
     Generated in analytical, separable form
     Using radial grid of 1095 points,  1 beta functions with: 
                l(1) =   0

     atomic species   valence    mass     pseudopotential
        H              1.00     1.01000      H( 1.00)
        O              6.00    16.00000      O( 1.00)

     No symmetry found



   Cartesian axes

     site n.     atom                  positions (alat units)
         1           H   tau(   1) = (   0.7701056   0.2092501   0.4962724  )
         2           H   tau(   2) = (   0.0089654   0.0996162   0.8344632  )
         3           O   tau(   3) = (   0.0596943   0.3799337   0.9258161  )

     number of k points=     1  Marzari-Vanderbilt smearing, width (Ry)=  0.0250
                       cart. coord. in units 2pi/alat
        k(    1) = (   0.0000000   0.0000000   0.0000000), wk =   2.0000000

     Dense  grid:   177509 G-vectors     FFT dimensions: (  72,  72,  72)

     Estimated max dynamical RAM per process >       6.09Mb

     Estimated total allocated dynamical RAM >     170.64Mb

     Initial potential from superposition of free atoms
     Check: negative starting charge=   -0.343729

     starting charge    7.99998, renormalised to    8.00000

     negative rho (up, down):  3.437E-01 0.000E+00
     Starting wfc are    6 randomized atomic wfcs +    2 random wfc

     total cpu time spent up to now is        0.3 secs

     per-process dynamical memory:    18.8 Mb

     Self-consistent Calculation

     iteration #  1     ecut=    30.00 Ry     beta=0.70
     Davidson diagonalization with overlap
     ethr =  1.00E-02,  avg # of iterations =  8.0

     negative rho (up, down):  8.447E-02 0.000E+00

     total cpu time spent up to now is        0.3 secs

     total energy              =     -28.44897080 Ry
     Harris-Foulkes estimate   =     -32.06852652 Ry
     estimated scf accuracy    <       4.16893924 Ry

     iteration #  2     ecut=    30.00 Ry     beta=0.70
     Davidson diagonalization with overlap
     ethr =  1.00E-02,  avg # of iterations =  4.0

     negative rho (up, down):  6.211E-02 0.000E+00

     total cpu time spent up to now is        0.4 secs

     total energy              =     -32.45759085 Ry
     Harris-Foulkes estimate   =     -37.31928710 Ry
     estimated scf accuracy    <      11.99284186 Ry

     iteration #  3     ecut=    30.00 Ry     beta=0.70
     Davidson diagonalization with overlap
     ethr =  1.00E-02,  avg # of iterations =  2.0

     negative rho (up, down):  2.098E-01 0.000E+00

     total cpu time spent up to now is        0.6 secs

     total energy              =     -31.83720887 Ry
     Harris-Foulkes estimate   =     -32.78902173 Ry
     estimated scf accuracy    <       4.55648185 Ry

     iteration #  4     ecut=    30.00 Ry     beta=0.70
     Davidson diagonalization with overlap
     ethr =  1.00E-02,  avg # of iterations =  1.0

     negative rho (up, down):  9.503E-01 0.000E+00

     total cpu time spent up to now is        0.7 secs

     total energy              =     -30.59153615 Ry
     Harris-Foulkes estimate   =     -31.84279014 Ry
     estimated scf accuracy    <       3.09439558 Ry

     iteration #  5     ecut=    30.00 Ry     beta=0.70
     Davidson diagonalization with overlap
     ethr =  1.00E-02,  avg # of iterations =  4.0

     negative rho (up, down):  8.965E-01 0.000E+00

     total cpu time spent up to now is        0.8 secs

     total energy              =     -31.86394933 Ry
     Harris-Foulkes estimate   =     -32.64501214 Ry
     estimated scf accuracy    <       5.50930251 Ry

     iteration #  6     ecut=    30.00 Ry     beta=0.70
     Davidson diagonalization with overlap
     ethr =  1.00E-02,  avg # of iterations =  1.0

     negative rho (up, down):  8.205E-01 0.000E+00

     total cpu time spent up to now is        0.9 secs

     total energy              =     -31.37165193 Ry
     Harris-Foulkes estimate   =     -31.88132488 Ry
     estimated scf accuracy    <       4.16028458 Ry

     iteration #  7     ecut=    30.00 Ry     beta=0.70
     Davidson diagonalization with overlap
     ethr =  1.00E-02,  avg # of iterations =  1.0

     negative rho (up, down):  8.289E-01 0.000E+00

     total cpu time spent up to now is        1.0 secs

     total energy              =     -31.45472418 Ry
     Harris-Foulkes estimate   =     -31.45690184 Ry
     estimated scf accuracy    <       0.31271850 Ry

     iteration #  8     ecut=    30.00 Ry     beta=0.70
     Davidson diagonalization with overlap
     ethr =  3.91E-03,  avg # of iterations =  1.0

     negative rho (up, down):  4.223E-01 0.000E+00

     total cpu time spent up to now is        1.1 secs

     total energy              =     -31.46569573 Ry
     Harris-Foulkes estimate   =     -31.45538789 Ry
     estimated scf accuracy    <       0.22355727 Ry

     iteration #  9     ecut=    30.00 Ry     beta=0.70
     Davidson diagonalization with overlap
     ethr =  2.79E-03,  avg # of iterations =  1.0

     negative rho (up, down):  3.911E-01 0.000E+00

     total cpu time spent up to now is        1.2 secs

     total energy              =     -32.16544097 Ry
     Harris-Foulkes estimate   =     -31.61601137 Ry
     estimated scf accuracy    <       2.50049485 Ry

     iteration # 10     ecut=    30.00 Ry     beta=0.70
     Davidson diagonalization with overlap
     ethr =  2.79E-03,  avg # of iterations =  1.0

     negative rho (up, down):  3.661E-01 0.000E+00

     total cpu time spent up to now is        1.3 secs

     total energy              =     -33.12780061 Ry
     Harris-Foulkes estimate   =     -32.19028249 Ry
     estimated scf accuracy    <       3.65764910 Ry

     iteration # 11     ecut=    30.00 Ry     beta=0.70
     Davidson diagonalization with overlap
     ethr =  2.79E-03,  avg # of iterations =  3.0

     negative rho (up, down):  3.565E-01 0.000E+00

     total cpu time spent up to now is        1.4 secs

     total energy              =     -38.86666547 Ry
     Harris-Foulkes estimate   =     -33.15499390 Ry
     estimated scf accuracy    <       5.06300771 Ry

     iteration # 12     ecut=    30.00 Ry     beta=0.70
     Davidson diagonalization with overlap
     ethr =  2.79E-03,  avg # of iterations =  5.0

     negative rho (up, down):  4.293E-01 0.000E+00

     total cpu time spent up to now is        1.5 secs

     total energy              =     -41.66027078 Ry
     Harris-Foulkes estimate   =     -39.07894568 Ry
     estimated scf accuracy    <      12.65792645 Ry

     iteration # 13     ecut=    30.00 Ry     beta=0.70
     Davidson diagonalization with overlap
     ethr =  2.79E-03,  avg # of iterations =  4.0

     negative rho (up, down):  3.537E-01 0.000E+00

     total cpu time spent up to now is        1.6 secs

     total energy              =     -32.59826471 Ry
     Harris-Foulkes estimate   =     -44.10225832 Ry
     estimated scf accuracy    <      13.62956874 Ry

     iteration # 14     ecut=    30.00 Ry     beta=0.70
     Davidson diagonalization with overlap
     ethr =  2.79E-03,  avg # of iterations =  8.0

     negative rho (up, down):  1.443E-01 0.000E+00

     total cpu time spent up to now is        1.7 secs

     total energy              =     -33.97465188 Ry
     Harris-Foulkes estimate   =     -39.13099389 Ry
     estimated scf accuracy    <      12.77605007 Ry

     iteration # 15     ecut=    30.00 Ry     beta=0.70
     Davidson diagonalization with overlap
     ethr =  2.79E-03,  avg # of iterations =  3.0

     negative rho (up, down):  4.060E-02 0.000E+00

     total cpu time spent up to now is        1.8 secs

     total energy              =     -31.19034101 Ry
     Harris-Foulkes estimate   =     -34.08082370 Ry
     estimated scf accuracy    <       6.35907193 Ry

     iteration # 16     ecut=    30.00 Ry     beta=0.70
     Davidson diagonalization with overlap
     ethr =  2.79E-03,  avg # of iterations =  7.0

     negative rho (up, down):  4.930E-03 0.000E+00

     total cpu time spent up to now is        1.9 secs

     total energy              =     -31.23081214 Ry
     Harris-Foulkes estimate   =     -31.65986122 Ry
     estimated scf accuracy    <       1.92151201 Ry

     iteration # 17     ecut=    30.00 Ry     beta=0.70
     Davidson diagonalization with overlap
     ethr =  2.79E-03,  avg # of iterations =  2.0

     negative rho (up, down):  5.907E-03 0.000E+00

     total cpu time spent up to now is        2.0 secs

     total energy              =     -31.45150196 Ry
     Harris-Foulkes estimate   =     -31.77412508 Ry
     estimated scf accuracy    <       1.02243782 Ry

     iteration # 18     ecut=    30.00 Ry     beta=0.70
     Davidson diagonalization with overlap
     ethr =  2.79E-03,  avg # of iterations =  2.0

     negative rho (up, down):  1.904E-03 0.000E+00

     total cpu time spent up to now is        2.1 secs

     total energy              =     -31.40378830 Ry
     Harris-Foulkes estimate   =     -31.53598282 Ry
     estimated scf accuracy    <       1.06938212 Ry

     iteration # 19     ecut=    30.00 Ry     beta=0.70
     Davidson diagonalization with overlap
     ethr =  2.79E-03,  avg # of iterations =  1.0

     negative rho (up, down):  1.996E-03 0.000E+00

     total cpu time spent up to now is        2.2 secs

     total energy              =     -31.55826060 Ry
     Harris-Foulkes estimate   =     -31.57657998 Ry
     estimated scf accuracy    <       1.25737973 Ry

     iteration # 20     ecut=    30.00 Ry     beta=0.70
     Davidson diagonalization with overlap
     ethr =  2.79E-03,  avg # of iterations =  1.0

     negative rho (up, down):  3.732E-03 0.000E+00

     total cpu time spent up to now is        2.3 secs

     total energy              =     -31.47850136 Ry
     Harris-Foulkes estimate   =     -31.55978093 Ry
     estimated scf accuracy    <       1.62218505 Ry

     iteration # 21     ecut=    30.00 Ry     beta=0.70
     Davidson diagonalization with overlap
     ethr =  2.79E-03,  avg # of iterations =  1.0

     negative rho (up, down):  2.056E-03 0.000E+00

     total cpu time spent up to now is        2.4 secs

     total energy              =     -31.46519950 Ry
     Harris-Foulkes estimate   =     -31.51315442 Ry
     estimated scf accuracy    <       0.22449428 Ry

     iteration # 22     ecut=    30.00 Ry     beta=0.70
     Davidson diagonalization with overlap
     ethr =  2.79E-03,  avg # of iterations =  1.0

     negative rho (up, down):  1.633E-03 0.000E+00

     total cpu time spent up to now is        2.5 secs

     total energy              =     -31.58461178 Ry
     Harris-Foulkes estimate   =     -31.59937889 Ry
     estimated scf accuracy    <       1.75435328 Ry

     iteration # 23     ecut=    30.00 Ry     beta=0.70
     Davidson diagonalization with overlap
     ethr =  2.79E-03,  avg # of iterations =  1.0

     negative rho (up, down):  1.491E-03 0.000E+00

     total cpu time spent up to now is        2.7 secs

     WARNING: integrated charge=     8.00058597, expected=     8.00000000

     total energy              =     -31.52617496 Ry
     Harris-Foulkes estimate   =     -31.58677112 Ry
     estimated scf accuracy    <       1.23500533 Ry

     iteration # 24     ecut=    30.00 Ry     beta=0.70
     Davidson diagonalization with overlap
     ethr =  2.79E-03,  avg # of iterations =  1.0

     negative rho (up, down):  1.733E-03 0.000E+00

     total cpu time spent up to now is        2.8 secs

     WARNING: integrated charge=     8.00112385, expected=     8.00000000

     total energy              =     -31.51120344 Ry
     Harris-Foulkes estimate   =     -31.52797343 Ry
     estimated scf accuracy    <       0.75029173 Ry

     iteration # 25     ecut=    30.00 Ry     beta=0.70
     Davidson diagonalization with overlap
     ethr =  2.79E-03,  avg # of iterations =  1.0

     negative rho (up, down):  3.051E-03 0.000E+00

     total cpu time spent up to now is        2.8 secs

     WARNING: integrated charge=     8.00234920, expected=     8.00000000

     total energy              =     -31.50847721 Ry
     Harris-Foulkes estimate   =     -31.51428382 Ry
     estimated scf accuracy    <       0.20843944 Ry

     iteration # 26     ecut=    30.00 Ry     beta=0.70
     Davidson diagonalization with overlap
     ethr =  2.61E-03,  avg # of iterations =  1.0

     negative rho (up, down):  1.014E-02 0.000E+00

     total cpu time spent up to now is        2.9 secs

     WARNING: integrated charge=     8.00060158, expected=     8.00000000

     total energy              =     -31.50944002 Ry
     Harris-Foulkes estimate   =     -31.51096023 Ry
     estimated scf accuracy    <       0.00488435 Ry

     iteration # 27     ecut=    30.00 Ry     beta=0.70
     Davidson diagonalization with overlap
     ethr =  6.11E-05,  avg # of iterations = 12.0

     negative rho (up, down):  9.407E-03 0.000E+00

     total cpu time spent up to now is        3.0 secs

     WARNING: integrated charge=     8.00053581, expected=     8.00000000

     total energy              =     -31.50923209 Ry
     Harris-Foulkes estimate   =     -31.50993614 Ry
     estimated scf accuracy    <       0.02515485 Ry

     iteration # 28     ecut=    30.00 Ry     beta=0.70
     Davidson diagonalization with overlap
     ethr =  6.11E-05,  avg # of iterations =  1.0

     negative rho (up, down):  1.084E-02 0.000E+00

     total cpu time spent up to now is        3.1 secs

     WARNING: integrated charge=     8.00032960, expected=     8.00000000

     total energy              =     -31.50910796 Ry
     Harris-Foulkes estimate   =     -31.50951495 Ry
     estimated scf accuracy    <       0.00099640 Ry

     iteration # 29     ecut=    30.00 Ry     beta=0.70
     Davidson diagonalization with overlap
     ethr =  1.25E-05,  avg # of iterations =  3.0

     negative rho (up, down):  9.841E-03 0.000E+00

     total cpu time spent up to now is        3.2 secs

     WARNING: integrated charge=     8.00034981, expected=     8.00000000

     total energy              =     -31.50928589 Ry
     Harris-Foulkes estimate   =     -31.50912092 Ry
     estimated scf accuracy    <       0.00316015 Ry

     iteration # 30     ecut=    30.00 Ry     beta=0.70
     Davidson diagonalization with overlap
     ethr =  1.25E-05,  avg # of iterations =  1.0

     negative rho (up, down):  6.351E-03 0.000E+00

     total cpu time spent up to now is        3.3 secs

     WARNING: integrated charge=     8.00029961, expected=     8.00000000

     total energy              =     -31.51009013 Ry
     Harris-Foulkes estimate   =     -31.50929932 Ry
     estimated scf accuracy    <       0.00078214 Ry

     iteration # 31     ecut=    30.00 Ry     beta=0.70
     Davidson diagonalization with overlap
     ethr =  9.78E-06,  avg # of iterations =  2.0

     negative rho (up, down):  4.748E-05 0.000E+00

     total cpu time spent up to now is        3.3 secs

     WARNING: integrated charge=     8.00008029, expected=     8.00000000

     total energy              =     -31.51120280 Ry
     Harris-Foulkes estimate   =     -31.51010510 Ry
     estimated scf accuracy    <       0.00004614 Ry

     iteration # 32     ecut=    30.00 Ry     beta=0.70
     Davidson diagonalization with overlap
     ethr =  5.77E-07,  avg # of iterations = 13.0

     negative rho (up, down):  8.221E-06 0.000E+00

     total cpu time spent up to now is        3.5 secs

     WARNING: integrated charge=     8.00000819, expected=     8.00000000

     total energy              =     -31.51114886 Ry
     Harris-Foulkes estimate   =     -31.51124286 Ry
     estimated scf accuracy    <       0.00295288 Ry

     iteration # 33     ecut=    30.00 Ry     beta=0.70
     Davidson diagonalization with overlap
     ethr =  5.77E-07,  avg # of iterations =  1.0

     negative rho (up, down):  2.200E-06 0.000E+00

     total cpu time spent up to now is        3.5 secs

     WARNING: integrated charge=     8.00000230, expected=     8.00000000

     total energy              =     -31.51120396 Ry
     Harris-Foulkes estimate   =     -31.51120716 Ry
     estimated scf accuracy    <       0.00017272 Ry

     iteration # 34     ecut=    30.00 Ry     beta=0.70
     Davidson diagonalization with overlap
     ethr =  5.77E-07,  avg # of iterations =  1.0

     negative rho (up, down):  9.144E-07 0.000E+00

     total cpu time spent up to now is        3.6 secs

     WARNING: integrated charge=     7.99999233, expected=     8.00000000

     total energy              =     -31.51120515 Ry
     Harris-Foulkes estimate   =     -31.51120531 Ry
     estimated scf accuracy    <       0.00000943 Ry

     iteration # 35     ecut=    30.00 Ry     beta=0.70
     Davidson diagonalization with overlap
     ethr =  1.18E-07,  avg # of iterations =  1.0

     negative rho (up, down):  3.428E-08 0.000E+00

     total cpu time spent up to now is        3.7 secs

     WARNING: integrated charge=     8.00000413, expected=     8.00000000

     total energy              =     -31.51120502 Ry
     Harris-Foulkes estimate   =     -31.51120526 Ry
     estimated scf accuracy    <       0.00000003 Ry

     iteration # 36     ecut=    30.00 Ry     beta=0.70
     Davidson diagonalization with overlap
     ethr =  3.58E-10,  avg # of iterations =  1.0

     total cpu time spent up to now is        3.7 secs

     End of self-consistent calculation

          k = 0.0000 0.0000 0.0000 ( 22119 PWs)   bands (ev):

   -23.6555  -7.2795  -7.0560  -7.0554  -6.9501  -6.7138  -0.1727   0.6503

     the Fermi energy is    -6.9196 ev

!    total energy              =     -31.51120496 Ry
     Harris-Foulkes estimate   =     -31.51120502 Ry
     estimated scf accuracy    <          5.8E-09 Ry

     The total energy is the sum of the following terms:

     one-electron contribution =     -40.83573153 Ry
     hartree contribution      =      21.64658031 Ry
     xc contribution           =      -7.04109605 Ry
     ewald contribution        =      -5.26290915 Ry
     smearing contrib. (-TS)   =      -0.01804853 Ry

     convergence has been achieved in  36 iterations

     Writing output data file pwscf.save
 
     init_run     :      0.09s CPU      0.12s WALL (       1 calls)
     electrons    :      1.26s CPU      3.51s WALL (       1 calls)

     Called by init_run:
     wfcinit      :      0.02s CPU      0.03s WALL (       1 calls)
     potinit      :      0.02s CPU      0.03s WALL (       1 calls)

     Called by electrons:
     c_bands      :      0.44s CPU      0.54s WALL (      36 calls)
     sum_band     :      0.10s CPU      0.11s WALL (      36 calls)
     v_of_rho     :      0.31s CPU      0.36s WALL (      37 calls)
     mix_rho      :      0.37s CPU      2.30s WALL (      36 calls)

     Called by c_bands:
     init_us_2    :      0.00s CPU      0.00s WALL (      73 calls)
     cegterg      :      0.42s CPU      0.44s WALL (      36 calls)

     Called by sum_band:

     Called by *egterg:
     h_psi        :      0.37s CPU      0.38s WALL (     139 calls)
     g_psi        :      0.00s CPU      0.00s WALL (     102 calls)
     cdiaghg      :      0.02s CPU      0.02s WALL (     138 calls)

     Called by h_psi:
     h_psi:pot    :      0.37s CPU      0.38s WALL (     139 calls)
     h_psi:calbec :      0.01s CPU      0.01s WALL (     139 calls)
     vloc_psi     :      0.36s CPU      0.37s WALL (     139 calls)
     add_vuspsi   :      0.00s CPU      0.00s WALL (     139 calls)

     General routines
     calbec       :      0.01s CPU      0.01s WALL (     139 calls)
     fft          :      0.19s CPU      0.22s WALL (     406 calls)
     fftw         :      0.39s CPU      0.41s WALL (    1812 calls)
     davcio       :      0.04s CPU      1.83s WALL (     628 calls)
 
     Parallel routines
     fft_scatter  :      0.24s CPU      0.27s WALL (    2218 calls)
 
     PWSCF        :     1.48s CPU         3.96s WALL

 
   This run was terminated on:  22: 5:43   6Feb2018            

=------------------------------------------------------------------------------=
   JOB DONE.
=------------------------------------------------------------------------------=
