
     Program PWSCF v.6.0 (svn rev. 13079) starts on  6Feb2018 at 18:57:45 

     This program is part of the open-source Quantum ESPRESSO suite
     for quantum simulation of materials; please cite
         "P. Giannozzi et al., J. Phys.:Condens. Matter 21 395502 (2009);
          URL http://www.quantum-espresso.org", 
     in publications or presentations arising from this work. More details at
     http://www.quantum-espresso.org/quote

     Parallel version (MPI), running on    28 processors
     R & G space division:  proc/nbgrp/npool/nimage =      28
     Reading input from inputs/rand-water-1/646.in
Warning: card &IONS ignored
Warning: card     POT_EXTRAPOLATION='SECOND-ORDER' ignored
Warning: card     WFC_EXTRAPOLATION='SECOND-ORDER' ignored
Warning: card     ION_TEMPERATURE = 'ANDERSEN' ignored
Warning: card     TEMPW = 1000 ignored
Warning: card / ignored

     Current dimensions of program PWSCF are:
     Max number of different atomic species (ntypx) = 10
     Max number of k-points (npk) =  40000
     Max angular momentum in pseudopotentials (lmaxx) =  3

     Subspace diagonalization in iterative solution of the eigenvalue problem:
     a serial algorithm will be used

 
     Parallelization info
     --------------------
     sticks:   dense  smooth     PW     G-vecs:    dense   smooth      PW
     Min         136     136     33                 6338     6338     787
     Max         137     137     34                 6341     6341     792
     Sum        3809    3809    949               177509   177509   22119
 


     bravais-lattice index     =            1
     lattice parameter (alat)  =      20.0000  a.u.
     unit-cell volume          =    8000.0000 (a.u.)^3
     number of atoms/cell      =            3
     number of atomic types    =            2
     number of electrons       =         8.00
     number of Kohn-Sham states=            8
     kinetic-energy cutoff     =      30.0000  Ry
     charge density cutoff     =     120.0000  Ry
     convergence threshold     =      1.0E-08
     mixing beta               =       0.7000
     number of iterations used =            8  plain     mixing
     Exchange-correlation      = BLYP ( 1  3  1  3 0 0)

     celldm(1)=  20.000000  celldm(2)=   0.000000  celldm(3)=   0.000000
     celldm(4)=   0.000000  celldm(5)=   0.000000  celldm(6)=   0.000000

     crystal axes: (cart. coord. in units of alat)
               a(1) = (   1.000000   0.000000   0.000000 )  
               a(2) = (   0.000000   1.000000   0.000000 )  
               a(3) = (   0.000000   0.000000   1.000000 )  

     reciprocal axes: (cart. coord. in units 2 pi/alat)
               b(1) = (  1.000000  0.000000  0.000000 )  
               b(2) = (  0.000000  1.000000  0.000000 )  
               b(3) = (  0.000000  0.000000  1.000000 )  


     PseudoPot. # 1 for  H read from file:
     ./H.blyp-hgh.UPF
     MD5 check sum: c576e69559cde411e611be972c763230
     Pseudo is Norm-conserving, Zval =  1.0
     Generated in analytical, separable form
     Using radial grid of  929 points,  0 beta functions with: 

     PseudoPot. # 2 for  O read from file:
     ./O.blyp-hgh.UPF
     MD5 check sum: d0b7156309aa9befef28faac7bc56342
     Pseudo is Norm-conserving, Zval =  6.0
     Generated in analytical, separable form
     Using radial grid of 1095 points,  1 beta functions with: 
                l(1) =   0

     atomic species   valence    mass     pseudopotential
        H              1.00     1.01000      H( 1.00)
        O              6.00    16.00000      O( 1.00)

     No symmetry found



   Cartesian axes

     site n.     atom                  positions (alat units)
         1           H   tau(   1) = (   0.2766349   0.9509779   0.0352421  )
         2           H   tau(   2) = (   0.3189986   0.5743824   0.1394776  )
         3           O   tau(   3) = (   0.3868294   0.8442008   0.8929803  )

     number of k points=     1  Marzari-Vanderbilt smearing, width (Ry)=  0.0250
                       cart. coord. in units 2pi/alat
        k(    1) = (   0.0000000   0.0000000   0.0000000), wk =   2.0000000

     Dense  grid:   177509 G-vectors     FFT dimensions: (  72,  72,  72)

     Estimated max dynamical RAM per process >       6.09Mb

     Estimated total allocated dynamical RAM >     170.64Mb

     Initial potential from superposition of free atoms
     Check: negative starting charge=   -0.337913

     starting charge    7.99998, renormalised to    8.00000

     negative rho (up, down):  3.379E-01 0.000E+00
     Starting wfc are    6 randomized atomic wfcs +    2 random wfc

     total cpu time spent up to now is        0.2 secs

     per-process dynamical memory:    18.8 Mb

     Self-consistent Calculation

     iteration #  1     ecut=    30.00 Ry     beta=0.70
     Davidson diagonalization with overlap
     ethr =  1.00E-02,  avg # of iterations =  8.0

     negative rho (up, down):  8.516E-02 0.000E+00

     total cpu time spent up to now is        0.3 secs

     total energy              =     -29.57072518 Ry
     Harris-Foulkes estimate   =     -32.10117564 Ry
     estimated scf accuracy    <       2.91763872 Ry

     iteration #  2     ecut=    30.00 Ry     beta=0.70
     Davidson diagonalization with overlap
     ethr =  1.00E-02,  avg # of iterations =  3.0

     negative rho (up, down):  6.340E-02 0.000E+00

     total cpu time spent up to now is        0.4 secs

     total energy              =     -31.97512567 Ry
     Harris-Foulkes estimate   =     -35.58210683 Ry
     estimated scf accuracy    <       9.27223145 Ry

     iteration #  3     ecut=    30.00 Ry     beta=0.70
     Davidson diagonalization with overlap
     ethr =  1.00E-02,  avg # of iterations =  2.0

     negative rho (up, down):  6.673E-02 0.000E+00

     total cpu time spent up to now is        0.4 secs

     total energy              =     -32.47318371 Ry
     Harris-Foulkes estimate   =     -32.27788880 Ry
     estimated scf accuracy    <       3.08393905 Ry

     iteration #  4     ecut=    30.00 Ry     beta=0.70
     Davidson diagonalization with overlap
     ethr =  1.00E-02,  avg # of iterations =  1.0

     negative rho (up, down):  4.870E-02 0.000E+00

     total cpu time spent up to now is        0.5 secs

     total energy              =     -31.69435784 Ry
     Harris-Foulkes estimate   =     -32.47560289 Ry
     estimated scf accuracy    <       3.49498855 Ry

     iteration #  5     ecut=    30.00 Ry     beta=0.70
     Davidson diagonalization with overlap
     ethr =  1.00E-02,  avg # of iterations =  2.0

     negative rho (up, down):  3.286E-02 0.000E+00

     total cpu time spent up to now is        0.6 secs

     total energy              =     -31.39650761 Ry
     Harris-Foulkes estimate   =     -31.72815864 Ry
     estimated scf accuracy    <       1.75023527 Ry

     iteration #  6     ecut=    30.00 Ry     beta=0.70
     Davidson diagonalization with overlap
     ethr =  1.00E-02,  avg # of iterations =  1.0

     negative rho (up, down):  1.498E-03 0.000E+00

     total cpu time spent up to now is        0.6 secs

     total energy              =     -32.48991685 Ry
     Harris-Foulkes estimate   =     -31.82934770 Ry
     estimated scf accuracy    <       1.38960923 Ry

     iteration #  7     ecut=    30.00 Ry     beta=0.70
     Davidson diagonalization with overlap
     ethr =  1.00E-02,  avg # of iterations =  2.0

     negative rho (up, down):  2.508E-03 0.000E+00

     total cpu time spent up to now is        0.7 secs

     total energy              =     -32.68094831 Ry
     Harris-Foulkes estimate   =     -32.91578089 Ry
     estimated scf accuracy    <       5.60503367 Ry

     iteration #  8     ecut=    30.00 Ry     beta=0.70
     Davidson diagonalization with overlap
     ethr =  1.00E-02,  avg # of iterations =  1.0

     negative rho (up, down):  7.229E-03 0.000E+00

     total cpu time spent up to now is        0.9 secs

     total energy              =     -32.11777451 Ry
     Harris-Foulkes estimate   =     -32.68521283 Ry
     estimated scf accuracy    <       5.06860977 Ry

     iteration #  9     ecut=    30.00 Ry     beta=0.70
     Davidson diagonalization with overlap
     ethr =  1.00E-02,  avg # of iterations =  1.0

     negative rho (up, down):  1.494E-02 0.000E+00

     total cpu time spent up to now is        1.0 secs

     WARNING: integrated charge=     8.00251059, expected=     8.00000000

     total energy              =     -30.79319571 Ry
     Harris-Foulkes estimate   =     -32.13766837 Ry
     estimated scf accuracy    <       3.65581968 Ry

     iteration # 10     ecut=    30.00 Ry     beta=0.70
     Davidson diagonalization with overlap
     ethr =  1.00E-02,  avg # of iterations =  2.0

     negative rho (up, down):  6.426E-03 0.000E+00

     total cpu time spent up to now is        1.0 secs

     WARNING: integrated charge=     8.00036552, expected=     8.00000000

     total energy              =     -31.57721643 Ry
     Harris-Foulkes estimate   =     -32.25576773 Ry
     estimated scf accuracy    <       2.86375322 Ry

     iteration # 11     ecut=    30.00 Ry     beta=0.70
     Davidson diagonalization with overlap
     ethr =  1.00E-02,  avg # of iterations =  1.0

     negative rho (up, down):  5.223E-03 0.000E+00

     total cpu time spent up to now is        1.1 secs

     WARNING: integrated charge=     8.00041556, expected=     8.00000000

     total energy              =     -31.63019322 Ry
     Harris-Foulkes estimate   =     -31.63502969 Ry
     estimated scf accuracy    <       0.66658112 Ry

     iteration # 12     ecut=    30.00 Ry     beta=0.70
     Davidson diagonalization with overlap
     ethr =  8.33E-03,  avg # of iterations =  1.0

     negative rho (up, down):  5.594E-03 0.000E+00

     total cpu time spent up to now is        1.2 secs

     WARNING: integrated charge=     8.00034626, expected=     8.00000000

     total energy              =     -31.61549476 Ry
     Harris-Foulkes estimate   =     -31.63137661 Ry
     estimated scf accuracy    <       0.49342982 Ry

     iteration # 13     ecut=    30.00 Ry     beta=0.70
     Davidson diagonalization with overlap
     ethr =  6.17E-03,  avg # of iterations =  1.0

     negative rho (up, down):  4.958E-03 0.000E+00

     total cpu time spent up to now is        1.3 secs

     WARNING: integrated charge=     8.00012696, expected=     8.00000000

     total energy              =     -31.62349026 Ry
     Harris-Foulkes estimate   =     -31.62141877 Ry
     estimated scf accuracy    <       0.01328677 Ry

     iteration # 14     ecut=    30.00 Ry     beta=0.70
     Davidson diagonalization with overlap
     ethr =  1.66E-04,  avg # of iterations =  1.0

     negative rho (up, down):  2.361E-03 0.000E+00

     total cpu time spent up to now is        1.3 secs

     WARNING: integrated charge=     7.99963927, expected=     8.00000000

     total energy              =     -31.48550960 Ry
     Harris-Foulkes estimate   =     -31.63252900 Ry
     estimated scf accuracy    <       0.57180065 Ry

     iteration # 15     ecut=    30.00 Ry     beta=0.70
     Davidson diagonalization with overlap
     ethr =  1.66E-04,  avg # of iterations =  8.0

     negative rho (up, down):  2.557E-03 0.000E+00

     total cpu time spent up to now is        1.4 secs

     WARNING: integrated charge=     7.99991103, expected=     8.00000000

     total energy              =     -31.72364832 Ry
     Harris-Foulkes estimate   =     -31.83116040 Ry
     estimated scf accuracy    <       1.73422364 Ry

     iteration # 16     ecut=    30.00 Ry     beta=0.70
     Davidson diagonalization with overlap
     ethr =  1.66E-04,  avg # of iterations =  1.0

     negative rho (up, down):  3.278E-03 0.000E+00

     total cpu time spent up to now is        1.5 secs

     WARNING: integrated charge=     7.99960012, expected=     8.00000000

     total energy              =     -31.87662891 Ry
     Harris-Foulkes estimate   =     -31.72654746 Ry
     estimated scf accuracy    <       1.37068798 Ry

     iteration # 17     ecut=    30.00 Ry     beta=0.70
     Davidson diagonalization with overlap
     ethr =  1.66E-04,  avg # of iterations =  2.0

     negative rho (up, down):  1.221E-03 0.000E+00

     total cpu time spent up to now is        1.6 secs

     WARNING: integrated charge=     7.99982477, expected=     8.00000000

     total energy              =     -31.76332890 Ry
     Harris-Foulkes estimate   =     -31.88394595 Ry
     estimated scf accuracy    <       1.95885983 Ry

     iteration # 18     ecut=    30.00 Ry     beta=0.70
     Davidson diagonalization with overlap
     ethr =  1.66E-04,  avg # of iterations =  2.0

     negative rho (up, down):  1.236E-03 0.000E+00

     total cpu time spent up to now is        1.6 secs

     WARNING: integrated charge=     7.99976472, expected=     8.00000000

     total energy              =     -31.79774253 Ry
     Harris-Foulkes estimate   =     -31.76702865 Ry
     estimated scf accuracy    <       1.51950559 Ry

     iteration # 19     ecut=    30.00 Ry     beta=0.70
     Davidson diagonalization with overlap
     ethr =  1.66E-04,  avg # of iterations =  1.0

     negative rho (up, down):  1.990E-03 0.000E+00

     total cpu time spent up to now is        1.7 secs

     WARNING: integrated charge=     7.99999082, expected=     8.00000000

     total energy              =     -31.68970063 Ry
     Harris-Foulkes estimate   =     -31.79798968 Ry
     estimated scf accuracy    <       1.62345970 Ry

     iteration # 20     ecut=    30.00 Ry     beta=0.70
     Davidson diagonalization with overlap
     ethr =  1.66E-04,  avg # of iterations =  2.0

     negative rho (up, down):  2.101E-03 0.000E+00

     total cpu time spent up to now is        1.8 secs

     WARNING: integrated charge=     8.00002500, expected=     8.00000000

     total energy              =     -31.67858982 Ry
     Harris-Foulkes estimate   =     -31.69344284 Ry
     estimated scf accuracy    <       1.25030008 Ry

     iteration # 21     ecut=    30.00 Ry     beta=0.70
     Davidson diagonalization with overlap
     ethr =  1.66E-04,  avg # of iterations =  1.0

     negative rho (up, down):  2.329E-03 0.000E+00

     total cpu time spent up to now is        1.8 secs

     WARNING: integrated charge=     7.99998740, expected=     8.00000000

     total energy              =     -31.68945897 Ry
     Harris-Foulkes estimate   =     -31.67851697 Ry
     estimated scf accuracy    <       1.27672394 Ry

     iteration # 22     ecut=    30.00 Ry     beta=0.70
     Davidson diagonalization with overlap
     ethr =  1.66E-04,  avg # of iterations =  1.0

     negative rho (up, down):  2.300E-03 0.000E+00

     total cpu time spent up to now is        1.9 secs

     WARNING: integrated charge=     7.99998927, expected=     8.00000000

     total energy              =     -31.68628522 Ry
     Harris-Foulkes estimate   =     -31.68935861 Ry
     estimated scf accuracy    <       1.24264290 Ry

     iteration # 23     ecut=    30.00 Ry     beta=0.70
     Davidson diagonalization with overlap
     ethr =  1.66E-04,  avg # of iterations =  1.0

     negative rho (up, down):  4.524E-02 0.000E+00

     total cpu time spent up to now is        2.0 secs

     WARNING: integrated charge=     8.00026717, expected=     8.00000000

     total energy              =     -31.50629739 Ry
     Harris-Foulkes estimate   =     -31.68628433 Ry
     estimated scf accuracy    <       1.24428346 Ry

     iteration # 24     ecut=    30.00 Ry     beta=0.70
     Davidson diagonalization with overlap
     ethr =  1.66E-04,  avg # of iterations =  5.0

     negative rho (up, down):  6.347E-03 0.000E+00

     total cpu time spent up to now is        2.0 secs

     WARNING: integrated charge=     8.00005969, expected=     8.00000000

     total energy              =     -31.68135927 Ry
     Harris-Foulkes estimate   =     -31.69620914 Ry
     estimated scf accuracy    <       0.95549274 Ry

     iteration # 25     ecut=    30.00 Ry     beta=0.70
     Davidson diagonalization with overlap
     ethr =  1.66E-04,  avg # of iterations =  4.0

     negative rho (up, down):  1.320E-03 0.000E+00

     total cpu time spent up to now is        2.1 secs

     WARNING: integrated charge=     8.00001459, expected=     8.00000000

     total energy              =     -31.62138366 Ry
     Harris-Foulkes estimate   =     -31.68576662 Ry
     estimated scf accuracy    <       0.91275864 Ry

     iteration # 26     ecut=    30.00 Ry     beta=0.70
     Davidson diagonalization with overlap
     ethr =  1.66E-04,  avg # of iterations =  1.0

     negative rho (up, down):  3.781E-04 0.000E+00

     total cpu time spent up to now is        2.2 secs

     WARNING: integrated charge=     7.99999621, expected=     8.00000000

     total energy              =     -31.60909578 Ry
     Harris-Foulkes estimate   =     -31.62655585 Ry
     estimated scf accuracy    <       0.30284981 Ry

     iteration # 27     ecut=    30.00 Ry     beta=0.70
     Davidson diagonalization with overlap
     ethr =  1.66E-04,  avg # of iterations =  1.0

     negative rho (up, down):  2.038E-04 0.000E+00

     total cpu time spent up to now is        2.2 secs

     WARNING: integrated charge=     7.99999287, expected=     8.00000000

     total energy              =     -31.61814661 Ry
     Harris-Foulkes estimate   =     -31.62482446 Ry
     estimated scf accuracy    <       0.26857957 Ry

     iteration # 28     ecut=    30.00 Ry     beta=0.70
     Davidson diagonalization with overlap
     ethr =  1.66E-04,  avg # of iterations =  1.0

     negative rho (up, down):  1.496E-04 0.000E+00

     total cpu time spent up to now is        2.3 secs

     WARNING: integrated charge=     7.99999280, expected=     8.00000000

     total energy              =     -31.62117527 Ry
     Harris-Foulkes estimate   =     -31.62123798 Ry
     estimated scf accuracy    <       0.00140986 Ry

     iteration # 29     ecut=    30.00 Ry     beta=0.70
     Davidson diagonalization with overlap
     ethr =  1.76E-05,  avg # of iterations =  3.0

     negative rho (up, down):  7.209E-06 0.000E+00

     total cpu time spent up to now is        2.4 secs

     WARNING: integrated charge=     7.99999584, expected=     8.00000000

     total energy              =     -31.62122288 Ry
     Harris-Foulkes estimate   =     -31.62124404 Ry
     estimated scf accuracy    <       0.00112493 Ry

     iteration # 30     ecut=    30.00 Ry     beta=0.70
     Davidson diagonalization with overlap
     ethr =  1.41E-05,  avg # of iterations =  1.0

     negative rho (up, down):  1.484E-07 0.000E+00

     total cpu time spent up to now is        2.4 secs

     total energy              =     -31.62123494 Ry
     Harris-Foulkes estimate   =     -31.62123691 Ry
     estimated scf accuracy    <       0.00001679 Ry

     iteration # 31     ecut=    30.00 Ry     beta=0.70
     Davidson diagonalization with overlap
     ethr =  2.10E-07,  avg # of iterations = 14.0

     total cpu time spent up to now is        2.5 secs

     total energy              =     -31.62124106 Ry
     Harris-Foulkes estimate   =     -31.62124621 Ry
     estimated scf accuracy    <       0.00060619 Ry

     iteration # 32     ecut=    30.00 Ry     beta=0.70
     Davidson diagonalization with overlap
     ethr =  2.10E-07,  avg # of iterations =  1.0

     total cpu time spent up to now is        2.6 secs

     total energy              =     -31.62123485 Ry
     Harris-Foulkes estimate   =     -31.62124205 Ry
     estimated scf accuracy    <       0.00026667 Ry

     iteration # 33     ecut=    30.00 Ry     beta=0.70
     Davidson diagonalization with overlap
     ethr =  2.10E-07,  avg # of iterations =  1.0

     total cpu time spent up to now is        2.7 secs

     total energy              =     -31.62123881 Ry
     Harris-Foulkes estimate   =     -31.62123877 Ry
     estimated scf accuracy    <       0.00000034 Ry

     iteration # 34     ecut=    30.00 Ry     beta=0.70
     Davidson diagonalization with overlap
     ethr =  4.29E-09,  avg # of iterations =  1.0

     total cpu time spent up to now is        2.7 secs

     total energy              =     -31.62123889 Ry
     Harris-Foulkes estimate   =     -31.62123883 Ry
     estimated scf accuracy    <       0.00000001 Ry

     iteration # 35     ecut=    30.00 Ry     beta=0.70
     Davidson diagonalization with overlap
     ethr =  1.87E-10,  avg # of iterations =  2.0

     total cpu time spent up to now is        2.8 secs

     End of self-consistent calculation

          k = 0.0000 0.0000 0.0000 ( 22119 PWs)   bands (ev):

   -23.5972  -8.0801  -6.9672  -6.9182  -6.7358  -5.8310  -0.1094   0.7168

     the Fermi energy is    -6.7490 ev

!    total energy              =     -31.62123889 Ry
     Harris-Foulkes estimate   =     -31.62123889 Ry
     estimated scf accuracy    <          5.6E-09 Ry

     The total energy is the sum of the following terms:

     one-electron contribution =     -43.31961031 Ry
     hartree contribution      =      22.86593696 Ry
     xc contribution           =      -7.06210008 Ry
     ewald contribution        =      -4.09163145 Ry
     smearing contrib. (-TS)   =      -0.01383401 Ry

     convergence has been achieved in  35 iterations

     Writing output data file pwscf.save
 
     init_run     :      0.09s CPU      0.13s WALL (       1 calls)
     electrons    :      1.22s CPU      2.67s WALL (       1 calls)

     Called by init_run:
     wfcinit      :      0.02s CPU      0.04s WALL (       1 calls)
     potinit      :      0.02s CPU      0.02s WALL (       1 calls)

     Called by electrons:
     c_bands      :      0.38s CPU      0.41s WALL (      35 calls)
     sum_band     :      0.10s CPU      0.12s WALL (      35 calls)
     v_of_rho     :      0.31s CPU      0.33s WALL (      36 calls)
     mix_rho      :      0.38s CPU      1.62s WALL (      35 calls)

     Called by c_bands:
     init_us_2    :      0.00s CPU      0.00s WALL (      71 calls)
     cegterg      :      0.37s CPU      0.38s WALL (      35 calls)

     Called by sum_band:

     Called by *egterg:
     h_psi        :      0.33s CPU      0.35s WALL (     117 calls)
     g_psi        :      0.00s CPU      0.00s WALL (      81 calls)
     cdiaghg      :      0.02s CPU      0.02s WALL (     116 calls)

     Called by h_psi:
     h_psi:pot    :      0.33s CPU      0.34s WALL (     117 calls)
     h_psi:calbec :      0.01s CPU      0.01s WALL (     117 calls)
     vloc_psi     :      0.32s CPU      0.34s WALL (     117 calls)
     add_vuspsi   :      0.00s CPU      0.00s WALL (     117 calls)

     General routines
     calbec       :      0.01s CPU      0.01s WALL (     117 calls)
     fft          :      0.21s CPU      0.24s WALL (     395 calls)
     fftw         :      0.35s CPU      0.37s WALL (    1602 calls)
     davcio       :      0.03s CPU      1.17s WALL (     608 calls)
 
     Parallel routines
     fft_scatter  :      0.26s CPU      0.30s WALL (    1997 calls)
 
     PWSCF        :     1.44s CPU         3.07s WALL

 
   This run was terminated on:  18:57:48   6Feb2018            

=------------------------------------------------------------------------------=
   JOB DONE.
=------------------------------------------------------------------------------=
