
     Program PWSCF v.6.0 (svn rev. 13079) starts on  6Feb2018 at 23:13:50 

     This program is part of the open-source Quantum ESPRESSO suite
     for quantum simulation of materials; please cite
         "P. Giannozzi et al., J. Phys.:Condens. Matter 21 395502 (2009);
          URL http://www.quantum-espresso.org", 
     in publications or presentations arising from this work. More details at
     http://www.quantum-espresso.org/quote

     Parallel version (MPI), running on    28 processors
     R & G space division:  proc/nbgrp/npool/nimage =      28
     Reading input from inputs/rand-water-1/6703.in
Warning: card &IONS ignored
Warning: card     POT_EXTRAPOLATION='SECOND-ORDER' ignored
Warning: card     WFC_EXTRAPOLATION='SECOND-ORDER' ignored
Warning: card     ION_TEMPERATURE = 'ANDERSEN' ignored
Warning: card     TEMPW = 1000 ignored
Warning: card / ignored

     Current dimensions of program PWSCF are:
     Max number of different atomic species (ntypx) = 10
     Max number of k-points (npk) =  40000
     Max angular momentum in pseudopotentials (lmaxx) =  3

     Subspace diagonalization in iterative solution of the eigenvalue problem:
     a serial algorithm will be used

 
     Parallelization info
     --------------------
     sticks:   dense  smooth     PW     G-vecs:    dense   smooth      PW
     Min         136     136     33                 6338     6338     787
     Max         137     137     34                 6341     6341     792
     Sum        3809    3809    949               177509   177509   22119
 


     bravais-lattice index     =            1
     lattice parameter (alat)  =      20.0000  a.u.
     unit-cell volume          =    8000.0000 (a.u.)^3
     number of atoms/cell      =            3
     number of atomic types    =            2
     number of electrons       =         8.00
     number of Kohn-Sham states=            8
     kinetic-energy cutoff     =      30.0000  Ry
     charge density cutoff     =     120.0000  Ry
     convergence threshold     =      1.0E-08
     mixing beta               =       0.7000
     number of iterations used =            8  plain     mixing
     Exchange-correlation      = BLYP ( 1  3  1  3 0 0)

     celldm(1)=  20.000000  celldm(2)=   0.000000  celldm(3)=   0.000000
     celldm(4)=   0.000000  celldm(5)=   0.000000  celldm(6)=   0.000000

     crystal axes: (cart. coord. in units of alat)
               a(1) = (   1.000000   0.000000   0.000000 )  
               a(2) = (   0.000000   1.000000   0.000000 )  
               a(3) = (   0.000000   0.000000   1.000000 )  

     reciprocal axes: (cart. coord. in units 2 pi/alat)
               b(1) = (  1.000000  0.000000  0.000000 )  
               b(2) = (  0.000000  1.000000  0.000000 )  
               b(3) = (  0.000000  0.000000  1.000000 )  


     PseudoPot. # 1 for  H read from file:
     ./H.blyp-hgh.UPF
     MD5 check sum: c576e69559cde411e611be972c763230
     Pseudo is Norm-conserving, Zval =  1.0
     Generated in analytical, separable form
     Using radial grid of  929 points,  0 beta functions with: 

     PseudoPot. # 2 for  O read from file:
     ./O.blyp-hgh.UPF
     MD5 check sum: d0b7156309aa9befef28faac7bc56342
     Pseudo is Norm-conserving, Zval =  6.0
     Generated in analytical, separable form
     Using radial grid of 1095 points,  1 beta functions with: 
                l(1) =   0

     atomic species   valence    mass     pseudopotential
        H              1.00     1.01000      H( 1.00)
        O              6.00    16.00000      O( 1.00)

     No symmetry found



   Cartesian axes

     site n.     atom                  positions (alat units)
         1           H   tau(   1) = (   0.9166270   0.6965619   0.1952946  )
         2           H   tau(   2) = (   0.5536590   0.7799624   0.8285805  )
         3           O   tau(   3) = (   0.4040705   0.2144819   0.5201206  )

     number of k points=     1  Marzari-Vanderbilt smearing, width (Ry)=  0.0250
                       cart. coord. in units 2pi/alat
        k(    1) = (   0.0000000   0.0000000   0.0000000), wk =   2.0000000

     Dense  grid:   177509 G-vectors     FFT dimensions: (  72,  72,  72)

     Estimated max dynamical RAM per process >       6.09Mb

     Estimated total allocated dynamical RAM >     170.64Mb

     Initial potential from superposition of free atoms
     Check: negative starting charge=   -0.353128

     starting charge    7.99998, renormalised to    8.00000

     negative rho (up, down):  3.531E-01 0.000E+00
     Starting wfc are    6 randomized atomic wfcs +    2 random wfc

     total cpu time spent up to now is        0.2 secs

     per-process dynamical memory:    18.8 Mb

     Self-consistent Calculation

     iteration #  1     ecut=    30.00 Ry     beta=0.70
     Davidson diagonalization with overlap
     ethr =  1.00E-02,  avg # of iterations =  7.0

     negative rho (up, down):  8.549E-02 0.000E+00

     total cpu time spent up to now is        0.3 secs

     total energy              =     -28.01918035 Ry
     Harris-Foulkes estimate   =     -32.08682561 Ry
     estimated scf accuracy    <       4.65796973 Ry

     iteration #  2     ecut=    30.00 Ry     beta=0.70
     Davidson diagonalization with overlap
     ethr =  1.00E-02,  avg # of iterations =  4.0

     negative rho (up, down):  6.346E+00 0.000E+00

     total cpu time spent up to now is        0.4 secs

     total energy              =     -32.35511252 Ry
     Harris-Foulkes estimate   =     -38.07325553 Ry
     estimated scf accuracy    <      13.09877531 Ry

     iteration #  3     ecut=    30.00 Ry     beta=0.70
     Davidson diagonalization with overlap
     ethr =  1.00E-02,  avg # of iterations =  6.0

     negative rho (up, down):  6.003E+00 0.000E+00

     total cpu time spent up to now is        0.5 secs

     total energy              =      35.54607832 Ry
     Harris-Foulkes estimate   =    -334.22721806 Ry
     estimated scf accuracy    <      16.00193997 Ry

     iteration #  4     ecut=    30.00 Ry     beta=0.70
     Davidson diagonalization with overlap
     ethr =  1.00E-02,  avg # of iterations =  6.0

     negative rho (up, down):  4.518E+00 0.000E+00

     total cpu time spent up to now is        0.6 secs

     total energy              =     -32.25380848 Ry
     Harris-Foulkes estimate   =     -33.68873311 Ry
     estimated scf accuracy    <       5.67178700 Ry

     iteration #  5     ecut=    30.00 Ry     beta=0.70
     Davidson diagonalization with overlap
     ethr =  1.00E-02,  avg # of iterations =  2.0

     negative rho (up, down):  3.773E+00 0.000E+00

     total cpu time spent up to now is        0.7 secs

     total energy              =     -32.09000865 Ry
     Harris-Foulkes estimate   =     -33.24104836 Ry
     estimated scf accuracy    <       2.92292420 Ry

     iteration #  6     ecut=    30.00 Ry     beta=0.70
     Davidson diagonalization with overlap
     ethr =  1.00E-02,  avg # of iterations =  6.0

     negative rho (up, down):  3.246E+00 0.000E+00

     total cpu time spent up to now is        0.7 secs

     total energy              =     -31.87234429 Ry
     Harris-Foulkes estimate   =     -32.58451101 Ry
     estimated scf accuracy    <       2.32852197 Ry

     iteration #  7     ecut=    30.00 Ry     beta=0.70
     Davidson diagonalization with overlap
     ethr =  1.00E-02,  avg # of iterations =  1.0

     negative rho (up, down):  2.538E+00 0.000E+00

     total cpu time spent up to now is        0.8 secs

     total energy              =     -31.46841542 Ry
     Harris-Foulkes estimate   =     -32.33793010 Ry
     estimated scf accuracy    <       3.88233544 Ry

     iteration #  8     ecut=    30.00 Ry     beta=0.70
     Davidson diagonalization with overlap
     ethr =  1.00E-02,  avg # of iterations =  1.0

     negative rho (up, down):  2.015E+00 0.000E+00

     total cpu time spent up to now is        0.9 secs

     total energy              =     -31.57462405 Ry
     Harris-Foulkes estimate   =     -32.05046996 Ry
     estimated scf accuracy    <       4.34458144 Ry

     iteration #  9     ecut=    30.00 Ry     beta=0.70
     Davidson diagonalization with overlap
     ethr =  1.00E-02,  avg # of iterations =  1.0

     negative rho (up, down):  1.853E+00 0.000E+00

     total cpu time spent up to now is        0.9 secs

     total energy              =     -31.53155035 Ry
     Harris-Foulkes estimate   =     -31.64481237 Ry
     estimated scf accuracy    <       1.45095332 Ry

     iteration # 10     ecut=    30.00 Ry     beta=0.70
     Davidson diagonalization with overlap
     ethr =  1.00E-02,  avg # of iterations =  1.0

     negative rho (up, down):  2.877E-01 0.000E+00

     total cpu time spent up to now is        1.0 secs

     total energy              =     -32.00242859 Ry
     Harris-Foulkes estimate   =     -31.58261260 Ry
     estimated scf accuracy    <       1.80566358 Ry

     iteration # 11     ecut=    30.00 Ry     beta=0.70
     Davidson diagonalization with overlap
     ethr =  1.00E-02,  avg # of iterations =  2.0

     negative rho (up, down):  1.933E-01 0.000E+00

     total cpu time spent up to now is        1.1 secs

     total energy              =     -32.12440613 Ry
     Harris-Foulkes estimate   =     -32.12463641 Ry
     estimated scf accuracy    <       3.41440526 Ry

     iteration # 12     ecut=    30.00 Ry     beta=0.70
     Davidson diagonalization with overlap
     ethr =  1.00E-02,  avg # of iterations =  1.0

     negative rho (up, down):  1.165E-01 0.000E+00

     total cpu time spent up to now is        1.1 secs

     total energy              =     -31.82612255 Ry
     Harris-Foulkes estimate   =     -32.12515156 Ry
     estimated scf accuracy    <       3.42765412 Ry

     iteration # 13     ecut=    30.00 Ry     beta=0.70
     Davidson diagonalization with overlap
     ethr =  1.00E-02,  avg # of iterations =  1.0

     negative rho (up, down):  2.554E-02 0.000E+00

     total cpu time spent up to now is        1.2 secs

     total energy              =     -31.85163602 Ry
     Harris-Foulkes estimate   =     -31.96991313 Ry
     estimated scf accuracy    <       1.64508507 Ry

     iteration # 14     ecut=    30.00 Ry     beta=0.70
     Davidson diagonalization with overlap
     ethr =  1.00E-02,  avg # of iterations =  1.0

     negative rho (up, down):  1.290E-03 0.000E+00

     total cpu time spent up to now is        1.3 secs

     total energy              =     -31.84389517 Ry
     Harris-Foulkes estimate   =     -31.90949244 Ry
     estimated scf accuracy    <       3.03963439 Ry

     iteration # 15     ecut=    30.00 Ry     beta=0.70
     Davidson diagonalization with overlap
     ethr =  1.00E-02,  avg # of iterations =  1.0

     negative rho (up, down):  1.021E-02 0.000E+00

     total cpu time spent up to now is        1.4 secs

     total energy              =     -31.93074722 Ry
     Harris-Foulkes estimate   =     -31.87887713 Ry
     estimated scf accuracy    <       1.29249829 Ry

     iteration # 16     ecut=    30.00 Ry     beta=0.70
     Davidson diagonalization with overlap
     ethr =  1.00E-02,  avg # of iterations =  1.0

     negative rho (up, down):  1.308E-02 0.000E+00

     total cpu time spent up to now is        1.4 secs

     total energy              =     -31.93680716 Ry
     Harris-Foulkes estimate   =     -31.93368436 Ry
     estimated scf accuracy    <       1.76449490 Ry

     iteration # 17     ecut=    30.00 Ry     beta=0.70
     Davidson diagonalization with overlap
     ethr =  1.00E-02,  avg # of iterations =  1.0

     negative rho (up, down):  6.660E-03 0.000E+00

     total cpu time spent up to now is        1.5 secs

     total energy              =     -31.98364171 Ry
     Harris-Foulkes estimate   =     -31.93958113 Ry
     estimated scf accuracy    <       1.32909199 Ry

     iteration # 18     ecut=    30.00 Ry     beta=0.70
     Davidson diagonalization with overlap
     ethr =  1.00E-02,  avg # of iterations =  1.0

     negative rho (up, down):  3.097E-01 0.000E+00

     total cpu time spent up to now is        1.6 secs

     total energy              =     -31.38739730 Ry
     Harris-Foulkes estimate   =     -32.01277260 Ry
     estimated scf accuracy    <       2.72049450 Ry

     iteration # 19     ecut=    30.00 Ry     beta=0.70
     Davidson diagonalization with overlap
     ethr =  1.00E-02,  avg # of iterations =  2.0

     negative rho (up, down):  1.756E-02 0.000E+00

     total cpu time spent up to now is        1.7 secs

     total energy              =     -31.81334208 Ry
     Harris-Foulkes estimate   =     -32.61973196 Ry
     estimated scf accuracy    <       2.81538151 Ry

     iteration # 20     ecut=    30.00 Ry     beta=0.70
     Davidson diagonalization with overlap
     ethr =  1.00E-02,  avg # of iterations =  1.0

     negative rho (up, down):  2.528E-03 0.000E+00

     total cpu time spent up to now is        1.8 secs

     total energy              =     -31.44197578 Ry
     Harris-Foulkes estimate   =     -31.83422377 Ry
     estimated scf accuracy    <       1.50482539 Ry

     iteration # 21     ecut=    30.00 Ry     beta=0.70
     Davidson diagonalization with overlap
     ethr =  1.00E-02,  avg # of iterations =  1.0

     negative rho (up, down):  3.607E-03 0.000E+00

     total cpu time spent up to now is        1.8 secs

     total energy              =     -31.43724829 Ry
     Harris-Foulkes estimate   =     -31.56273865 Ry
     estimated scf accuracy    <       2.77509019 Ry

     iteration # 22     ecut=    30.00 Ry     beta=0.70
     Davidson diagonalization with overlap
     ethr =  1.00E-02,  avg # of iterations =  1.0

     negative rho (up, down):  1.899E-03 0.000E+00

     total cpu time spent up to now is        1.9 secs

     total energy              =     -31.48185412 Ry
     Harris-Foulkes estimate   =     -31.62404230 Ry
     estimated scf accuracy    <       1.15962110 Ry

     iteration # 23     ecut=    30.00 Ry     beta=0.70
     Davidson diagonalization with overlap
     ethr =  1.00E-02,  avg # of iterations =  1.0

     negative rho (up, down):  2.571E-03 0.000E+00

     total cpu time spent up to now is        2.0 secs

     total energy              =     -31.38789221 Ry
     Harris-Foulkes estimate   =     -31.52379234 Ry
     estimated scf accuracy    <       2.02270727 Ry

     iteration # 24     ecut=    30.00 Ry     beta=0.70
     Davidson diagonalization with overlap
     ethr =  1.00E-02,  avg # of iterations =  1.0

     negative rho (up, down):  8.730E-04 0.000E+00

     total cpu time spent up to now is        2.1 secs

     total energy              =     -31.59305017 Ry
     Harris-Foulkes estimate   =     -31.63991243 Ry
     estimated scf accuracy    <       1.09924643 Ry

     iteration # 25     ecut=    30.00 Ry     beta=0.70
     Davidson diagonalization with overlap
     ethr =  1.00E-02,  avg # of iterations =  1.0

     negative rho (up, down):  9.018E-04 0.000E+00

     total cpu time spent up to now is        2.1 secs

     total energy              =     -31.50234311 Ry
     Harris-Foulkes estimate   =     -31.59720229 Ry
     estimated scf accuracy    <       1.49139944 Ry

     iteration # 26     ecut=    30.00 Ry     beta=0.70
     Davidson diagonalization with overlap
     ethr =  1.00E-02,  avg # of iterations =  1.0

     negative rho (up, down):  2.612E-04 0.000E+00

     total cpu time spent up to now is        2.2 secs

     total energy              =     -31.55968440 Ry
     Harris-Foulkes estimate   =     -31.50520197 Ry
     estimated scf accuracy    <       0.79994218 Ry

     iteration # 27     ecut=    30.00 Ry     beta=0.70
     Davidson diagonalization with overlap
     ethr =  1.00E-02,  avg # of iterations =  1.0

     negative rho (up, down):  3.861E-04 0.000E+00

     total cpu time spent up to now is        2.3 secs

     total energy              =     -31.46179780 Ry
     Harris-Foulkes estimate   =     -31.56665589 Ry
     estimated scf accuracy    <       0.98232322 Ry

     iteration # 28     ecut=    30.00 Ry     beta=0.70
     Davidson diagonalization with overlap
     ethr =  1.00E-02,  avg # of iterations =  1.0

     negative rho (up, down):  2.109E-04 0.000E+00

     total cpu time spent up to now is        2.4 secs

     total energy              =     -31.47288052 Ry
     Harris-Foulkes estimate   =     -31.49573458 Ry
     estimated scf accuracy    <       0.30638597 Ry

     iteration # 29     ecut=    30.00 Ry     beta=0.70
     Davidson diagonalization with overlap
     ethr =  3.83E-03,  avg # of iterations =  1.0

     negative rho (up, down):  4.721E-04 0.000E+00

     total cpu time spent up to now is        2.5 secs

     total energy              =     -31.46772243 Ry
     Harris-Foulkes estimate   =     -31.50638525 Ry
     estimated scf accuracy    <       1.01289858 Ry

     iteration # 30     ecut=    30.00 Ry     beta=0.70
     Davidson diagonalization with overlap
     ethr =  3.83E-03,  avg # of iterations =  1.0

     negative rho (up, down):  1.252E-03 0.000E+00

     total cpu time spent up to now is        2.7 secs

     WARNING: integrated charge=     8.00067827, expected=     8.00000000

     total energy              =     -31.50100030 Ry
     Harris-Foulkes estimate   =     -31.50608614 Ry
     estimated scf accuracy    <       0.96840633 Ry

     iteration # 31     ecut=    30.00 Ry     beta=0.70
     Davidson diagonalization with overlap
     ethr =  3.83E-03,  avg # of iterations =  1.0

     negative rho (up, down):  4.049E-04 0.000E+00

     total cpu time spent up to now is        2.8 secs

     WARNING: integrated charge=     8.00545837, expected=     8.00000000

     total energy              =     -31.47091466 Ry
     Harris-Foulkes estimate   =     -31.50156685 Ry
     estimated scf accuracy    <       0.85759987 Ry

     iteration # 32     ecut=    30.00 Ry     beta=0.70
     Davidson diagonalization with overlap
     ethr =  3.83E-03,  avg # of iterations =  1.0

     negative rho (up, down):  6.972E-04 0.000E+00

     total cpu time spent up to now is        2.9 secs

     WARNING: integrated charge=     8.00410495, expected=     8.00000000

     total energy              =     -31.48775825 Ry
     Harris-Foulkes estimate   =     -31.49205051 Ry
     estimated scf accuracy    <       0.20541596 Ry

     iteration # 33     ecut=    30.00 Ry     beta=0.70
     Davidson diagonalization with overlap
     ethr =  2.57E-03,  avg # of iterations =  1.0

     negative rho (up, down):  9.760E-04 0.000E+00

     total cpu time spent up to now is        3.0 secs

     WARNING: integrated charge=     8.00629604, expected=     8.00000000

     total energy              =     -31.48756226 Ry
     Harris-Foulkes estimate   =     -31.49101947 Ry
     estimated scf accuracy    <       0.07011172 Ry

     iteration # 34     ecut=    30.00 Ry     beta=0.70
     Davidson diagonalization with overlap
     ethr =  8.76E-04,  avg # of iterations =  1.0

     negative rho (up, down):  1.125E-02 0.000E+00

     total cpu time spent up to now is        3.1 secs

     WARNING: integrated charge=     8.00092422, expected=     8.00000000

     total energy              =     -31.48617990 Ry
     Harris-Foulkes estimate   =     -31.49054624 Ry
     estimated scf accuracy    <       0.06623667 Ry

     iteration # 35     ecut=    30.00 Ry     beta=0.70
     Davidson diagonalization with overlap
     ethr =  8.28E-04,  avg # of iterations =  1.0

     negative rho (up, down):  6.214E-03 0.000E+00

     total cpu time spent up to now is        3.2 secs

     WARNING: integrated charge=     8.00092859, expected=     8.00000000

     total energy              =     -31.48970467 Ry
     Harris-Foulkes estimate   =     -31.48899011 Ry
     estimated scf accuracy    <       0.09706640 Ry

     iteration # 36     ecut=    30.00 Ry     beta=0.70
     Davidson diagonalization with overlap
     ethr =  8.28E-04,  avg # of iterations =  1.0

     negative rho (up, down):  6.672E-03 0.000E+00

     total cpu time spent up to now is        3.3 secs

     WARNING: integrated charge=     8.00083510, expected=     8.00000000

     total energy              =     -31.48893869 Ry
     Harris-Foulkes estimate   =     -31.48996086 Ry
     estimated scf accuracy    <       0.08233303 Ry

     iteration # 37     ecut=    30.00 Ry     beta=0.70
     Davidson diagonalization with overlap
     ethr =  8.28E-04,  avg # of iterations =  1.0

     negative rho (up, down):  2.804E-04 0.000E+00

     total cpu time spent up to now is        3.4 secs

     WARNING: integrated charge=     8.00062634, expected=     8.00000000

     total energy              =     -31.48987155 Ry
     Harris-Foulkes estimate   =     -31.48929436 Ry
     estimated scf accuracy    <       0.02412883 Ry

     iteration # 38     ecut=    30.00 Ry     beta=0.70
     Davidson diagonalization with overlap
     ethr =  3.02E-04,  avg # of iterations =  1.0

     negative rho (up, down):  8.580E-05 0.000E+00

     total cpu time spent up to now is        3.5 secs

     WARNING: integrated charge=     8.00017251, expected=     8.00000000

     total energy              =     -31.49013955 Ry
     Harris-Foulkes estimate   =     -31.49013246 Ry
     estimated scf accuracy    <       0.00020108 Ry

     iteration # 39     ecut=    30.00 Ry     beta=0.70
     Davidson diagonalization with overlap
     c_bands:  1 eigenvalues not converged
     ethr =  2.51E-06,  avg # of iterations = 20.0

     negative rho (up, down):  3.394E-05 0.000E+00

     total cpu time spent up to now is        3.6 secs

     WARNING: integrated charge=     8.00007509, expected=     8.00000000

     total energy              =     -31.49014175 Ry
     Harris-Foulkes estimate   =     -31.49014300 Ry
     estimated scf accuracy    <       0.00007746 Ry

     iteration # 40     ecut=    30.00 Ry     beta=0.70
     Davidson diagonalization with overlap
     ethr =  9.68E-07,  avg # of iterations = 13.0

     negative rho (up, down):  1.351E-05 0.000E+00

     total cpu time spent up to now is        3.7 secs

     WARNING: integrated charge=     8.00004862, expected=     8.00000000

     total energy              =     -31.49014238 Ry
     Harris-Foulkes estimate   =     -31.49014279 Ry
     estimated scf accuracy    <       0.00000104 Ry

     iteration # 41     ecut=    30.00 Ry     beta=0.70
     Davidson diagonalization with overlap
     ethr =  1.31E-08,  avg # of iterations =  1.0

     negative rho (up, down):  3.232E-07 0.000E+00

     total cpu time spent up to now is        3.8 secs

     WARNING: integrated charge=     8.00000985, expected=     8.00000000

     total energy              =     -31.49014216 Ry
     Harris-Foulkes estimate   =     -31.49014243 Ry
     estimated scf accuracy    <       0.00000016 Ry

     iteration # 42     ecut=    30.00 Ry     beta=0.70
     Davidson diagonalization with overlap
     ethr =  1.95E-09,  avg # of iterations =  2.0

     negative rho (up, down):  1.484E-06 0.000E+00

     total cpu time spent up to now is        3.9 secs

     WARNING: integrated charge=     7.99999418, expected=     8.00000000

     total energy              =     -31.49014227 Ry
     Harris-Foulkes estimate   =     -31.49014220 Ry
     estimated scf accuracy    <       0.00000020 Ry

     iteration # 43     ecut=    30.00 Ry     beta=0.70
     Davidson diagonalization with overlap
     ethr =  1.95E-09,  avg # of iterations =  1.0

     negative rho (up, down):  1.554E-07 0.000E+00

     total cpu time spent up to now is        4.0 secs

     total energy              =     -31.49014238 Ry
     Harris-Foulkes estimate   =     -31.49014228 Ry
     estimated scf accuracy    <       0.00000002 Ry

     iteration # 44     ecut=    30.00 Ry     beta=0.70
     Davidson diagonalization with overlap
     ethr =  2.34E-10,  avg # of iterations =  2.0

     total cpu time spent up to now is        4.0 secs

     End of self-consistent calculation

          k = 0.0000 0.0000 0.0000 ( 22119 PWs)   bands (ev):

   -23.6233  -7.0320  -7.0313  -7.0305  -6.9363  -6.9175  -0.2446   0.6002

     the Fermi energy is    -6.8969 ev

!    total energy              =     -31.49014237 Ry
     Harris-Foulkes estimate   =     -31.49014238 Ry
     estimated scf accuracy    <          1.6E-09 Ry

     The total energy is the sum of the following terms:

     one-electron contribution =     -38.99469659 Ry
     hartree contribution      =      20.76311296 Ry
     xc contribution           =      -7.06007635 Ry
     ewald contribution        =      -6.16473652 Ry
     smearing contrib. (-TS)   =      -0.03374586 Ry

     convergence has been achieved in  44 iterations

     Writing output data file pwscf.save
 
     init_run     :      0.09s CPU      0.12s WALL (       1 calls)
     electrons    :      1.43s CPU      3.83s WALL (       1 calls)

     Called by init_run:
     wfcinit      :      0.01s CPU      0.02s WALL (       1 calls)
     potinit      :      0.03s CPU      0.03s WALL (       1 calls)

     Called by electrons:
     c_bands      :      0.50s CPU      0.67s WALL (      44 calls)
     sum_band     :      0.11s CPU      0.13s WALL (      44 calls)
     v_of_rho     :      0.36s CPU      0.40s WALL (      45 calls)
     mix_rho      :      0.41s CPU      2.34s WALL (      44 calls)

     Called by c_bands:
     init_us_2    :      0.00s CPU      0.00s WALL (      89 calls)
     cegterg      :      0.49s CPU      0.52s WALL (      44 calls)

     Called by sum_band:

     Called by *egterg:
     h_psi        :      0.42s CPU      0.45s WALL (     149 calls)
     g_psi        :      0.00s CPU      0.00s WALL (     104 calls)
     cdiaghg      :      0.02s CPU      0.03s WALL (     148 calls)

     Called by h_psi:
     h_psi:pot    :      0.42s CPU      0.45s WALL (     149 calls)
     h_psi:calbec :      0.01s CPU      0.01s WALL (     149 calls)
     vloc_psi     :      0.42s CPU      0.44s WALL (     149 calls)
     add_vuspsi   :      0.00s CPU      0.00s WALL (     149 calls)

     General routines
     calbec       :      0.00s CPU      0.01s WALL (     149 calls)
     fft          :      0.22s CPU      0.26s WALL (     494 calls)
     fftw         :      0.45s CPU      0.48s WALL (    2034 calls)
     davcio       :      0.06s CPU      1.86s WALL (     788 calls)
 
     Parallel routines
     fft_scatter  :      0.29s CPU      0.33s WALL (    2528 calls)
 
     PWSCF        :     1.62s CPU         4.26s WALL

 
   This run was terminated on:  23:13:54   6Feb2018            

=------------------------------------------------------------------------------=
   JOB DONE.
=------------------------------------------------------------------------------=
