
     Program PWSCF v.6.0 (svn rev. 13079) starts on  6Feb2018 at 23:14:25 

     This program is part of the open-source Quantum ESPRESSO suite
     for quantum simulation of materials; please cite
         "P. Giannozzi et al., J. Phys.:Condens. Matter 21 395502 (2009);
          URL http://www.quantum-espresso.org", 
     in publications or presentations arising from this work. More details at
     http://www.quantum-espresso.org/quote

     Parallel version (MPI), running on    28 processors
     R & G space division:  proc/nbgrp/npool/nimage =      28
     Reading input from inputs/rand-water-1/6713.in
Warning: card &IONS ignored
Warning: card     POT_EXTRAPOLATION='SECOND-ORDER' ignored
Warning: card     WFC_EXTRAPOLATION='SECOND-ORDER' ignored
Warning: card     ION_TEMPERATURE = 'ANDERSEN' ignored
Warning: card     TEMPW = 1000 ignored
Warning: card / ignored

     Current dimensions of program PWSCF are:
     Max number of different atomic species (ntypx) = 10
     Max number of k-points (npk) =  40000
     Max angular momentum in pseudopotentials (lmaxx) =  3

     Subspace diagonalization in iterative solution of the eigenvalue problem:
     a serial algorithm will be used

 
     Parallelization info
     --------------------
     sticks:   dense  smooth     PW     G-vecs:    dense   smooth      PW
     Min         136     136     33                 6338     6338     787
     Max         137     137     34                 6341     6341     792
     Sum        3809    3809    949               177509   177509   22119
 


     bravais-lattice index     =            1
     lattice parameter (alat)  =      20.0000  a.u.
     unit-cell volume          =    8000.0000 (a.u.)^3
     number of atoms/cell      =            3
     number of atomic types    =            2
     number of electrons       =         8.00
     number of Kohn-Sham states=            8
     kinetic-energy cutoff     =      30.0000  Ry
     charge density cutoff     =     120.0000  Ry
     convergence threshold     =      1.0E-08
     mixing beta               =       0.7000
     number of iterations used =            8  plain     mixing
     Exchange-correlation      = BLYP ( 1  3  1  3 0 0)

     celldm(1)=  20.000000  celldm(2)=   0.000000  celldm(3)=   0.000000
     celldm(4)=   0.000000  celldm(5)=   0.000000  celldm(6)=   0.000000

     crystal axes: (cart. coord. in units of alat)
               a(1) = (   1.000000   0.000000   0.000000 )  
               a(2) = (   0.000000   1.000000   0.000000 )  
               a(3) = (   0.000000   0.000000   1.000000 )  

     reciprocal axes: (cart. coord. in units 2 pi/alat)
               b(1) = (  1.000000  0.000000  0.000000 )  
               b(2) = (  0.000000  1.000000  0.000000 )  
               b(3) = (  0.000000  0.000000  1.000000 )  


     PseudoPot. # 1 for  H read from file:
     ./H.blyp-hgh.UPF
     MD5 check sum: c576e69559cde411e611be972c763230
     Pseudo is Norm-conserving, Zval =  1.0
     Generated in analytical, separable form
     Using radial grid of  929 points,  0 beta functions with: 

     PseudoPot. # 2 for  O read from file:
     ./O.blyp-hgh.UPF
     MD5 check sum: d0b7156309aa9befef28faac7bc56342
     Pseudo is Norm-conserving, Zval =  6.0
     Generated in analytical, separable form
     Using radial grid of 1095 points,  1 beta functions with: 
                l(1) =   0

     atomic species   valence    mass     pseudopotential
        H              1.00     1.01000      H( 1.00)
        O              6.00    16.00000      O( 1.00)

     No symmetry found



   Cartesian axes

     site n.     atom                  positions (alat units)
         1           H   tau(   1) = (   0.3060678   0.1865706   0.5929094  )
         2           H   tau(   2) = (   0.7665298   0.2028500   0.8785886  )
         3           O   tau(   3) = (   0.3527892   0.1403909   0.3177921  )

     number of k points=     1  Marzari-Vanderbilt smearing, width (Ry)=  0.0250
                       cart. coord. in units 2pi/alat
        k(    1) = (   0.0000000   0.0000000   0.0000000), wk =   2.0000000

     Dense  grid:   177509 G-vectors     FFT dimensions: (  72,  72,  72)

     Estimated max dynamical RAM per process >       6.09Mb

     Estimated total allocated dynamical RAM >     170.64Mb

     Initial potential from superposition of free atoms
     Check: negative starting charge=   -0.343541

     starting charge    7.99998, renormalised to    8.00000

     negative rho (up, down):  3.435E-01 0.000E+00
     Starting wfc are    6 randomized atomic wfcs +    2 random wfc

     total cpu time spent up to now is        0.2 secs

     per-process dynamical memory:    18.8 Mb

     Self-consistent Calculation

     iteration #  1     ecut=    30.00 Ry     beta=0.70
     Davidson diagonalization with overlap
     ethr =  1.00E-02,  avg # of iterations =  7.0

     negative rho (up, down):  8.357E-02 0.000E+00

     total cpu time spent up to now is        0.3 secs

     total energy              =     -28.59192181 Ry
     Harris-Foulkes estimate   =     -32.07170021 Ry
     estimated scf accuracy    <       4.00841051 Ry

     iteration #  2     ecut=    30.00 Ry     beta=0.70
     Davidson diagonalization with overlap
     ethr =  1.00E-02,  avg # of iterations =  4.0

     negative rho (up, down):  6.153E-02 0.000E+00

     total cpu time spent up to now is        0.4 secs

     total energy              =     -32.39327973 Ry
     Harris-Foulkes estimate   =     -37.10129883 Ry
     estimated scf accuracy    <      11.67064565 Ry

     iteration #  3     ecut=    30.00 Ry     beta=0.70
     Davidson diagonalization with overlap
     ethr =  1.00E-02,  avg # of iterations =  2.0

     negative rho (up, down):  6.451E-02 0.000E+00

     total cpu time spent up to now is        0.4 secs

     total energy              =     -33.00099298 Ry
     Harris-Foulkes estimate   =     -32.72054394 Ry
     estimated scf accuracy    <       4.40969902 Ry

     iteration #  4     ecut=    30.00 Ry     beta=0.70
     Davidson diagonalization with overlap
     ethr =  1.00E-02,  avg # of iterations =  1.0

     negative rho (up, down):  2.511E-02 0.000E+00

     total cpu time spent up to now is        0.5 secs

     total energy              =     -30.27876128 Ry
     Harris-Foulkes estimate   =     -33.00243380 Ry
     estimated scf accuracy    <       4.84522471 Ry

     iteration #  5     ecut=    30.00 Ry     beta=0.70
     Davidson diagonalization with overlap
     ethr =  1.00E-02,  avg # of iterations =  4.0

     negative rho (up, down):  1.493E-02 0.000E+00

     total cpu time spent up to now is        0.5 secs

     total energy              =     -33.02450291 Ry
     Harris-Foulkes estimate   =     -33.22451205 Ry
     estimated scf accuracy    <      13.19215324 Ry

     iteration #  6     ecut=    30.00 Ry     beta=0.70
     Davidson diagonalization with overlap
     ethr =  1.00E-02,  avg # of iterations =  1.0

     negative rho (up, down):  7.491E-03 0.000E+00

     total cpu time spent up to now is        0.5 secs

     total energy              =     -32.77176510 Ry
     Harris-Foulkes estimate   =     -33.04074238 Ry
     estimated scf accuracy    <       9.40056182 Ry

     iteration #  7     ecut=    30.00 Ry     beta=0.70
     Davidson diagonalization with overlap
     ethr =  1.00E-02,  avg # of iterations =  1.0

     negative rho (up, down):  5.597E-03 0.000E+00

     total cpu time spent up to now is        0.6 secs

     total energy              =     -32.44806676 Ry
     Harris-Foulkes estimate   =     -32.81366378 Ry
     estimated scf accuracy    <       5.77764662 Ry

     iteration #  8     ecut=    30.00 Ry     beta=0.70
     Davidson diagonalization with overlap
     ethr =  1.00E-02,  avg # of iterations =  1.0

     negative rho (up, down):  3.604E-02 0.000E+00

     total cpu time spent up to now is        0.6 secs

     total energy              =     -31.57489267 Ry
     Harris-Foulkes estimate   =     -32.45506124 Ry
     estimated scf accuracy    <       5.04932752 Ry

     iteration #  9     ecut=    30.00 Ry     beta=0.70
     Davidson diagonalization with overlap
     ethr =  1.00E-02,  avg # of iterations =  2.0

     negative rho (up, down):  2.985E-02 0.000E+00

     total cpu time spent up to now is        0.6 secs

     total energy              =     -31.65187832 Ry
     Harris-Foulkes estimate   =     -31.61889681 Ry
     estimated scf accuracy    <       2.73085074 Ry

     iteration # 10     ecut=    30.00 Ry     beta=0.70
     Davidson diagonalization with overlap
     ethr =  1.00E-02,  avg # of iterations =  1.0

     negative rho (up, down):  3.111E-02 0.000E+00

     total cpu time spent up to now is        0.7 secs

     total energy              =     -31.71895913 Ry
     Harris-Foulkes estimate   =     -31.65417858 Ry
     estimated scf accuracy    <       3.08468180 Ry

     iteration # 11     ecut=    30.00 Ry     beta=0.70
     Davidson diagonalization with overlap
     ethr =  1.00E-02,  avg # of iterations =  1.0

     negative rho (up, down):  2.667E-03 0.000E+00

     total cpu time spent up to now is        0.7 secs

     total energy              =     -31.29357944 Ry
     Harris-Foulkes estimate   =     -31.72065480 Ry
     estimated scf accuracy    <       3.43918227 Ry

     iteration # 12     ecut=    30.00 Ry     beta=0.70
     Davidson diagonalization with overlap
     ethr =  1.00E-02,  avg # of iterations =  1.0

     negative rho (up, down):  2.374E-03 0.000E+00

     total cpu time spent up to now is        0.8 secs

     total energy              =     -31.60829163 Ry
     Harris-Foulkes estimate   =     -31.64402484 Ry
     estimated scf accuracy    <       2.12708947 Ry

     iteration # 13     ecut=    30.00 Ry     beta=0.70
     Davidson diagonalization with overlap
     ethr =  1.00E-02,  avg # of iterations =  1.0

     negative rho (up, down):  1.068E-02 0.000E+00

     total cpu time spent up to now is        0.8 secs

     total energy              =     -30.98561791 Ry
     Harris-Foulkes estimate   =     -31.60914062 Ry
     estimated scf accuracy    <       1.92459353 Ry

     iteration # 14     ecut=    30.00 Ry     beta=0.70
     Davidson diagonalization with overlap
     ethr =  1.00E-02,  avg # of iterations =  1.0

     total cpu time spent up to now is        0.8 secs

     total energy              =     -31.96356401 Ry
     Harris-Foulkes estimate   =     -32.28029015 Ry
     estimated scf accuracy    <       4.59563800 Ry

     iteration # 15     ecut=    30.00 Ry     beta=0.70
     Davidson diagonalization with overlap
     ethr =  1.00E-02,  avg # of iterations =  1.0

     negative rho (up, down):  4.715E-05 0.000E+00

     total cpu time spent up to now is        0.9 secs

     total energy              =     -31.82114601 Ry
     Harris-Foulkes estimate   =     -31.96736259 Ry
     estimated scf accuracy    <       4.07809189 Ry

     iteration # 16     ecut=    30.00 Ry     beta=0.70
     Davidson diagonalization with overlap
     ethr =  1.00E-02,  avg # of iterations =  1.0

     negative rho (up, down):  5.025E-05 0.000E+00

     total cpu time spent up to now is        0.9 secs

     total energy              =     -31.75532428 Ry
     Harris-Foulkes estimate   =     -31.82311969 Ry
     estimated scf accuracy    <       3.73492849 Ry

     iteration # 17     ecut=    30.00 Ry     beta=0.70
     Davidson diagonalization with overlap
     ethr =  1.00E-02,  avg # of iterations =  1.0

     negative rho (up, down):  2.704E-04 0.000E+00

     total cpu time spent up to now is        0.9 secs

     total energy              =     -31.69063301 Ry
     Harris-Foulkes estimate   =     -31.75606653 Ry
     estimated scf accuracy    <       3.52353827 Ry

     iteration # 18     ecut=    30.00 Ry     beta=0.70
     Davidson diagonalization with overlap
     ethr =  1.00E-02,  avg # of iterations =  1.0

     negative rho (up, down):  6.515E-04 0.000E+00

     total cpu time spent up to now is        1.0 secs

     total energy              =     -31.64459964 Ry
     Harris-Foulkes estimate   =     -31.69151010 Ry
     estimated scf accuracy    <       3.25393766 Ry

     iteration # 19     ecut=    30.00 Ry     beta=0.70
     Davidson diagonalization with overlap
     ethr =  1.00E-02,  avg # of iterations =  1.0

     negative rho (up, down):  8.081E-05 0.000E+00

     total cpu time spent up to now is        1.0 secs

     total energy              =     -31.64297898 Ry
     Harris-Foulkes estimate   =     -31.64557823 Ry
     estimated scf accuracy    <       2.95231147 Ry

     iteration # 20     ecut=    30.00 Ry     beta=0.70
     Davidson diagonalization with overlap
     ethr =  1.00E-02,  avg # of iterations =  1.0

     negative rho (up, down):  6.693E-04 0.000E+00

     total cpu time spent up to now is        1.0 secs

     total energy              =     -31.62760717 Ry
     Harris-Foulkes estimate   =     -31.64302169 Ry
     estimated scf accuracy    <       2.98521847 Ry

     iteration # 21     ecut=    30.00 Ry     beta=0.70
     Davidson diagonalization with overlap
     ethr =  1.00E-02,  avg # of iterations =  1.0

     negative rho (up, down):  1.319E-03 0.000E+00

     total cpu time spent up to now is        1.1 secs

     total energy              =     -31.55255776 Ry
     Harris-Foulkes estimate   =     -31.62767987 Ry
     estimated scf accuracy    <       2.94493854 Ry

     iteration # 22     ecut=    30.00 Ry     beta=0.70
     Davidson diagonalization with overlap
     ethr =  1.00E-02,  avg # of iterations =  1.0

     negative rho (up, down):  6.564E-03 0.000E+00

     total cpu time spent up to now is        1.1 secs

     total energy              =     -31.06950332 Ry
     Harris-Foulkes estimate   =     -31.55157978 Ry
     estimated scf accuracy    <       2.18250673 Ry

     iteration # 23     ecut=    30.00 Ry     beta=0.70
     Davidson diagonalization with overlap
     ethr =  1.00E-02,  avg # of iterations =  1.0

     negative rho (up, down):  3.725E-03 0.000E+00

     total cpu time spent up to now is        1.1 secs

     total energy              =     -31.62146790 Ry
     Harris-Foulkes estimate   =     -31.98025191 Ry
     estimated scf accuracy    <       3.16317286 Ry

     iteration # 24     ecut=    30.00 Ry     beta=0.70
     Davidson diagonalization with overlap
     ethr =  1.00E-02,  avg # of iterations =  1.0

     negative rho (up, down):  1.704E-03 0.000E+00

     total cpu time spent up to now is        1.2 secs

     total energy              =     -31.60894049 Ry
     Harris-Foulkes estimate   =     -31.64452848 Ry
     estimated scf accuracy    <       1.70275178 Ry

     iteration # 25     ecut=    30.00 Ry     beta=0.70
     Davidson diagonalization with overlap
     ethr =  1.00E-02,  avg # of iterations =  1.0

     negative rho (up, down):  1.260E-03 0.000E+00

     total cpu time spent up to now is        1.2 secs

     total energy              =     -31.60677563 Ry
     Harris-Foulkes estimate   =     -31.60989081 Ry
     estimated scf accuracy    <       1.45820384 Ry

     iteration # 26     ecut=    30.00 Ry     beta=0.70
     Davidson diagonalization with overlap
     ethr =  1.00E-02,  avg # of iterations =  1.0

     negative rho (up, down):  4.098E-04 0.000E+00

     total cpu time spent up to now is        1.3 secs

     total energy              =     -31.58592625 Ry
     Harris-Foulkes estimate   =     -31.60683821 Ry
     estimated scf accuracy    <       1.50041677 Ry

     iteration # 27     ecut=    30.00 Ry     beta=0.70
     Davidson diagonalization with overlap
     ethr =  1.00E-02,  avg # of iterations =  1.0

     negative rho (up, down):  5.761E-04 0.000E+00

     total cpu time spent up to now is        1.3 secs

     total energy              =     -31.58880963 Ry
     Harris-Foulkes estimate   =     -31.58597885 Ry
     estimated scf accuracy    <       1.42269634 Ry

     iteration # 28     ecut=    30.00 Ry     beta=0.70
     Davidson diagonalization with overlap
     ethr =  1.00E-02,  avg # of iterations =  1.0

     negative rho (up, down):  4.446E-04 0.000E+00

     total cpu time spent up to now is        1.3 secs

     total energy              =     -31.58662955 Ry
     Harris-Foulkes estimate   =     -31.58881345 Ry
     estimated scf accuracy    <       1.42937253 Ry

     iteration # 29     ecut=    30.00 Ry     beta=0.70
     Davidson diagonalization with overlap
     ethr =  1.00E-02,  avg # of iterations =  1.0

     negative rho (up, down):  9.719E-07 0.000E+00

     total cpu time spent up to now is        1.4 secs

     total energy              =     -31.53276349 Ry
     Harris-Foulkes estimate   =     -31.58663889 Ry
     estimated scf accuracy    <       1.45069088 Ry

     iteration # 30     ecut=    30.00 Ry     beta=0.70
     Davidson diagonalization with overlap
     ethr =  1.00E-02,  avg # of iterations =  1.0

     negative rho (up, down):  4.887E-05 0.000E+00

     total cpu time spent up to now is        1.4 secs

     total energy              =     -31.52050181 Ry
     Harris-Foulkes estimate   =     -31.53516294 Ry
     estimated scf accuracy    <       0.86965524 Ry

     iteration # 31     ecut=    30.00 Ry     beta=0.70
     Davidson diagonalization with overlap
     ethr =  1.00E-02,  avg # of iterations =  1.0

     negative rho (up, down):  3.576E-06 0.000E+00

     total cpu time spent up to now is        1.4 secs

     total energy              =     -31.50798991 Ry
     Harris-Foulkes estimate   =     -31.52517603 Ry
     estimated scf accuracy    <       0.21317241 Ry

     iteration # 32     ecut=    30.00 Ry     beta=0.70
     Davidson diagonalization with overlap
     ethr =  2.66E-03,  avg # of iterations =  1.0

     negative rho (up, down):  6.439E-07 0.000E+00

     total cpu time spent up to now is        1.5 secs

     total energy              =     -31.49471861 Ry
     Harris-Foulkes estimate   =     -31.53981347 Ry
     estimated scf accuracy    <       0.92895793 Ry

     iteration # 33     ecut=    30.00 Ry     beta=0.70
     Davidson diagonalization with overlap
     ethr =  2.66E-03,  avg # of iterations =  1.0

     total cpu time spent up to now is        1.5 secs

     total energy              =     -31.52061439 Ry
     Harris-Foulkes estimate   =     -31.52474654 Ry
     estimated scf accuracy    <       0.17992825 Ry

     iteration # 34     ecut=    30.00 Ry     beta=0.70
     Davidson diagonalization with overlap
     ethr =  2.25E-03,  avg # of iterations =  1.0

     total cpu time spent up to now is        1.5 secs

     total energy              =     -31.52214098 Ry
     Harris-Foulkes estimate   =     -31.52220613 Ry
     estimated scf accuracy    <       0.00719977 Ry

     iteration # 35     ecut=    30.00 Ry     beta=0.70
     Davidson diagonalization with overlap
     ethr =  9.00E-05,  avg # of iterations =  1.0

     total cpu time spent up to now is        1.6 secs

     total energy              =     -31.52222360 Ry
     Harris-Foulkes estimate   =     -31.52215321 Ry
     estimated scf accuracy    <       0.00290232 Ry

     iteration # 36     ecut=    30.00 Ry     beta=0.70
     Davidson diagonalization with overlap
     ethr =  3.63E-05,  avg # of iterations = 13.0

     total cpu time spent up to now is        1.6 secs

     total energy              =     -31.52198456 Ry
     Harris-Foulkes estimate   =     -31.52225806 Ry
     estimated scf accuracy    <       0.01103608 Ry

     iteration # 37     ecut=    30.00 Ry     beta=0.70
     Davidson diagonalization with overlap
     ethr =  3.63E-05,  avg # of iterations =  1.0

     total cpu time spent up to now is        1.7 secs

     total energy              =     -31.52211728 Ry
     Harris-Foulkes estimate   =     -31.52211689 Ry
     estimated scf accuracy    <       0.00000706 Ry

     iteration # 38     ecut=    30.00 Ry     beta=0.70
     Davidson diagonalization with overlap
     ethr =  8.83E-08,  avg # of iterations = 13.0

     total cpu time spent up to now is        1.7 secs

     total energy              =     -31.52211178 Ry
     Harris-Foulkes estimate   =     -31.52212186 Ry
     estimated scf accuracy    <       0.00043030 Ry

     iteration # 39     ecut=    30.00 Ry     beta=0.70
     Davidson diagonalization with overlap
     ethr =  8.83E-08,  avg # of iterations =  1.0

     total cpu time spent up to now is        1.7 secs

     total energy              =     -31.52211735 Ry
     Harris-Foulkes estimate   =     -31.52211695 Ry
     estimated scf accuracy    <       0.00000013 Ry

     iteration # 40     ecut=    30.00 Ry     beta=0.70
     Davidson diagonalization with overlap
     ethr =  1.57E-09,  avg # of iterations =  2.0

     total cpu time spent up to now is        1.8 secs

     total energy              =     -31.52211739 Ry
     Harris-Foulkes estimate   =     -31.52211735 Ry
     estimated scf accuracy    <       0.00000005 Ry

     iteration # 41     ecut=    30.00 Ry     beta=0.70
     Davidson diagonalization with overlap
     ethr =  6.02E-10,  avg # of iterations =  1.0

     total cpu time spent up to now is        1.8 secs

     total energy              =     -31.52211746 Ry
     Harris-Foulkes estimate   =     -31.52211739 Ry
     estimated scf accuracy    <       0.00000008 Ry

     iteration # 42     ecut=    30.00 Ry     beta=0.70
     Davidson diagonalization with overlap
     ethr =  6.02E-10,  avg # of iterations =  1.0

     total cpu time spent up to now is        1.8 secs

     End of self-consistent calculation

          k = 0.0000 0.0000 0.0000 ( 22119 PWs)   bands (ev):

   -23.6486  -7.3508  -7.0410  -7.0397  -6.9324  -6.6248  -0.1759   0.6157

     the Fermi energy is    -6.9020 ev

!    total energy              =     -31.52211748 Ry
     Harris-Foulkes estimate   =     -31.52211746 Ry
     estimated scf accuracy    <          4.5E-09 Ry

     The total energy is the sum of the following terms:

     one-electron contribution =     -40.92763012 Ry
     hartree contribution      =      21.68657677 Ry
     xc contribution           =      -7.03914918 Ry
     ewald contribution        =      -5.22796039 Ry
     smearing contrib. (-TS)   =      -0.01395457 Ry

     convergence has been achieved in  42 iterations

     Writing output data file pwscf.save
 
     init_run     :      0.09s CPU      0.11s WALL (       1 calls)
     electrons    :      1.11s CPU      1.68s WALL (       1 calls)

     Called by init_run:
     wfcinit      :      0.01s CPU      0.03s WALL (       1 calls)
     potinit      :      0.02s CPU      0.03s WALL (       1 calls)

     Called by electrons:
     c_bands      :      0.43s CPU      0.54s WALL (      42 calls)
     sum_band     :      0.11s CPU      0.12s WALL (      42 calls)
     v_of_rho     :      0.27s CPU      0.29s WALL (      43 calls)
     mix_rho      :      0.27s CPU      0.46s WALL (      42 calls)

     Called by c_bands:
     init_us_2    :      0.00s CPU      0.00s WALL (      85 calls)
     cegterg      :      0.41s CPU      0.43s WALL (      42 calls)

     Called by sum_band:

     Called by *egterg:
     h_psi        :      0.36s CPU      0.38s WALL (     124 calls)
     g_psi        :      0.00s CPU      0.00s WALL (      81 calls)
     cdiaghg      :      0.02s CPU      0.02s WALL (     123 calls)

     Called by h_psi:
     h_psi:pot    :      0.36s CPU      0.38s WALL (     124 calls)
     h_psi:calbec :      0.01s CPU      0.01s WALL (     124 calls)
     vloc_psi     :      0.35s CPU      0.37s WALL (     124 calls)
     add_vuspsi   :      0.00s CPU      0.00s WALL (     124 calls)

     General routines
     calbec       :      0.01s CPU      0.01s WALL (     124 calls)
     fft          :      0.17s CPU      0.19s WALL (     472 calls)
     fftw         :      0.39s CPU      0.41s WALL (    1842 calls)
     davcio       :      0.04s CPU      0.16s WALL (     748 calls)
 
     Parallel routines
     fft_scatter  :      0.22s CPU      0.25s WALL (    2314 calls)
 
     PWSCF        :     1.31s CPU         2.10s WALL

 
   This run was terminated on:  23:14:27   6Feb2018            

=------------------------------------------------------------------------------=
   JOB DONE.
=------------------------------------------------------------------------------=
