
     Program PWSCF v.6.0 (svn rev. 13079) starts on  6Feb2018 at 23:20:35 

     This program is part of the open-source Quantum ESPRESSO suite
     for quantum simulation of materials; please cite
         "P. Giannozzi et al., J. Phys.:Condens. Matter 21 395502 (2009);
          URL http://www.quantum-espresso.org", 
     in publications or presentations arising from this work. More details at
     http://www.quantum-espresso.org/quote

     Parallel version (MPI), running on    28 processors
     R & G space division:  proc/nbgrp/npool/nimage =      28
     Reading input from inputs/rand-water-1/6859.in
Warning: card &IONS ignored
Warning: card     POT_EXTRAPOLATION='SECOND-ORDER' ignored
Warning: card     WFC_EXTRAPOLATION='SECOND-ORDER' ignored
Warning: card     ION_TEMPERATURE = 'ANDERSEN' ignored
Warning: card     TEMPW = 1000 ignored
Warning: card / ignored

     Current dimensions of program PWSCF are:
     Max number of different atomic species (ntypx) = 10
     Max number of k-points (npk) =  40000
     Max angular momentum in pseudopotentials (lmaxx) =  3

     Subspace diagonalization in iterative solution of the eigenvalue problem:
     a serial algorithm will be used

 
     Parallelization info
     --------------------
     sticks:   dense  smooth     PW     G-vecs:    dense   smooth      PW
     Min         136     136     33                 6338     6338     787
     Max         137     137     34                 6341     6341     792
     Sum        3809    3809    949               177509   177509   22119
 


     bravais-lattice index     =            1
     lattice parameter (alat)  =      20.0000  a.u.
     unit-cell volume          =    8000.0000 (a.u.)^3
     number of atoms/cell      =            3
     number of atomic types    =            2
     number of electrons       =         8.00
     number of Kohn-Sham states=            8
     kinetic-energy cutoff     =      30.0000  Ry
     charge density cutoff     =     120.0000  Ry
     convergence threshold     =      1.0E-08
     mixing beta               =       0.7000
     number of iterations used =            8  plain     mixing
     Exchange-correlation      = BLYP ( 1  3  1  3 0 0)

     celldm(1)=  20.000000  celldm(2)=   0.000000  celldm(3)=   0.000000
     celldm(4)=   0.000000  celldm(5)=   0.000000  celldm(6)=   0.000000

     crystal axes: (cart. coord. in units of alat)
               a(1) = (   1.000000   0.000000   0.000000 )  
               a(2) = (   0.000000   1.000000   0.000000 )  
               a(3) = (   0.000000   0.000000   1.000000 )  

     reciprocal axes: (cart. coord. in units 2 pi/alat)
               b(1) = (  1.000000  0.000000  0.000000 )  
               b(2) = (  0.000000  1.000000  0.000000 )  
               b(3) = (  0.000000  0.000000  1.000000 )  


     PseudoPot. # 1 for  H read from file:
     ./H.blyp-hgh.UPF
     MD5 check sum: c576e69559cde411e611be972c763230
     Pseudo is Norm-conserving, Zval =  1.0
     Generated in analytical, separable form
     Using radial grid of  929 points,  0 beta functions with: 

     PseudoPot. # 2 for  O read from file:
     ./O.blyp-hgh.UPF
     MD5 check sum: d0b7156309aa9befef28faac7bc56342
     Pseudo is Norm-conserving, Zval =  6.0
     Generated in analytical, separable form
     Using radial grid of 1095 points,  1 beta functions with: 
                l(1) =   0

     atomic species   valence    mass     pseudopotential
        H              1.00     1.01000      H( 1.00)
        O              6.00    16.00000      O( 1.00)

     No symmetry found



   Cartesian axes

     site n.     atom                  positions (alat units)
         1           H   tau(   1) = (   0.7094953   0.9381789   0.6300651  )
         2           H   tau(   2) = (   0.2536935   0.5094602   0.5770142  )
         3           O   tau(   3) = (   0.5650633   0.6936582   0.2034131  )

     number of k points=     1  Marzari-Vanderbilt smearing, width (Ry)=  0.0250
                       cart. coord. in units 2pi/alat
        k(    1) = (   0.0000000   0.0000000   0.0000000), wk =   2.0000000

     Dense  grid:   177509 G-vectors     FFT dimensions: (  72,  72,  72)

     Estimated max dynamical RAM per process >       6.09Mb

     Estimated total allocated dynamical RAM >     170.64Mb

     Initial potential from superposition of free atoms
     Check: negative starting charge=   -0.348914

     starting charge    7.99998, renormalised to    8.00000

     negative rho (up, down):  3.489E-01 0.000E+00
     Starting wfc are    6 randomized atomic wfcs +    2 random wfc

     total cpu time spent up to now is        0.2 secs

     per-process dynamical memory:    18.8 Mb

     Self-consistent Calculation

     iteration #  1     ecut=    30.00 Ry     beta=0.70
     Davidson diagonalization with overlap
     ethr =  1.00E-02,  avg # of iterations =  7.0

     negative rho (up, down):  8.377E-02 0.000E+00

     total cpu time spent up to now is        0.3 secs

     total energy              =     -28.12616683 Ry
     Harris-Foulkes estimate   =     -32.07294035 Ry
     estimated scf accuracy    <       4.53740980 Ry

     iteration #  2     ecut=    30.00 Ry     beta=0.70
     Davidson diagonalization with overlap
     ethr =  1.00E-02,  avg # of iterations =  4.0

     negative rho (up, down):  6.135E-02 0.000E+00

     total cpu time spent up to now is        0.4 secs

     total energy              =     -32.63113085 Ry
     Harris-Foulkes estimate   =     -37.87035492 Ry
     estimated scf accuracy    <      12.77931009 Ry

     iteration #  3     ecut=    30.00 Ry     beta=0.70
     Davidson diagonalization with overlap
     ethr =  1.00E-02,  avg # of iterations =  2.0

     negative rho (up, down):  6.329E-02 0.000E+00

     total cpu time spent up to now is        0.4 secs

     total energy              =     -33.17122185 Ry
     Harris-Foulkes estimate   =     -32.96899121 Ry
     estimated scf accuracy    <       4.93794890 Ry

     iteration #  4     ecut=    30.00 Ry     beta=0.70
     Davidson diagonalization with overlap
     ethr =  1.00E-02,  avg # of iterations =  1.0

     negative rho (up, down):  2.496E-02 0.000E+00

     total cpu time spent up to now is        0.4 secs

     total energy              =     -30.21418695 Ry
     Harris-Foulkes estimate   =     -33.17176648 Ry
     estimated scf accuracy    <       5.23652273 Ry

     iteration #  5     ecut=    30.00 Ry     beta=0.70
     Davidson diagonalization with overlap
     ethr =  1.00E-02,  avg # of iterations =  5.0

     negative rho (up, down):  2.368E-02 0.000E+00

     total cpu time spent up to now is        0.5 secs

     total energy              =     -33.26004633 Ry
     Harris-Foulkes estimate   =     -33.28496620 Ry
     estimated scf accuracy    <      13.70138533 Ry

     iteration #  6     ecut=    30.00 Ry     beta=0.70
     Davidson diagonalization with overlap
     ethr =  1.00E-02,  avg # of iterations =  1.0

     negative rho (up, down):  4.164E-02 0.000E+00

     total cpu time spent up to now is        0.5 secs

     total energy              =     -33.19454368 Ry
     Harris-Foulkes estimate   =     -33.26586984 Ry
     estimated scf accuracy    <      13.65671689 Ry

     iteration #  7     ecut=    30.00 Ry     beta=0.70
     Davidson diagonalization with overlap
     ethr =  1.00E-02,  avg # of iterations =  1.0

     negative rho (up, down):  7.437E-02 0.000E+00

     total cpu time spent up to now is        0.5 secs

     total energy              =     -32.07382185 Ry
     Harris-Foulkes estimate   =     -33.19899274 Ry
     estimated scf accuracy    <      12.64797925 Ry

     iteration #  8     ecut=    30.00 Ry     beta=0.70
     Davidson diagonalization with overlap
     ethr =  1.00E-02,  avg # of iterations =  2.0

     negative rho (up, down):  1.630E-02 0.000E+00

     total cpu time spent up to now is        0.6 secs

     total energy              =     -32.23094729 Ry
     Harris-Foulkes estimate   =     -32.41147518 Ry
     estimated scf accuracy    <       5.04246495 Ry

     iteration #  9     ecut=    30.00 Ry     beta=0.70
     Davidson diagonalization with overlap
     ethr =  1.00E-02,  avg # of iterations =  1.0

     negative rho (up, down):  1.000E-02 0.000E+00

     total cpu time spent up to now is        0.6 secs

     total energy              =     -31.74476667 Ry
     Harris-Foulkes estimate   =     -32.23254587 Ry
     estimated scf accuracy    <       4.75277105 Ry

     iteration # 10     ecut=    30.00 Ry     beta=0.70
     Davidson diagonalization with overlap
     ethr =  1.00E-02,  avg # of iterations =  1.0

     negative rho (up, down):  3.764E-02 0.000E+00

     total cpu time spent up to now is        0.7 secs

     total energy              =     -31.52153478 Ry
     Harris-Foulkes estimate   =     -31.75139872 Ry
     estimated scf accuracy    <       3.97024404 Ry

     iteration # 11     ecut=    30.00 Ry     beta=0.70
     Davidson diagonalization with overlap
     ethr =  1.00E-02,  avg # of iterations =  1.0

     negative rho (up, down):  2.476E-02 0.000E+00

     total cpu time spent up to now is        0.7 secs

     total energy              =     -31.52226530 Ry
     Harris-Foulkes estimate   =     -31.51537299 Ry
     estimated scf accuracy    <       3.30400399 Ry

     iteration # 12     ecut=    30.00 Ry     beta=0.70
     Davidson diagonalization with overlap
     ethr =  1.00E-02,  avg # of iterations =  1.0

     negative rho (up, down):  1.932E-01 0.000E+00

     total cpu time spent up to now is        0.7 secs

     total energy              =     -30.47713601 Ry
     Harris-Foulkes estimate   =     -31.52259843 Ry
     estimated scf accuracy    <       3.65366313 Ry

     iteration # 13     ecut=    30.00 Ry     beta=0.70
     Davidson diagonalization with overlap
     ethr =  1.00E-02,  avg # of iterations =  1.0

     negative rho (up, down):  1.599E-01 0.000E+00

     total cpu time spent up to now is        0.8 secs

     total energy              =     -31.91904981 Ry
     Harris-Foulkes estimate   =     -32.46954399 Ry
     estimated scf accuracy    <       4.18235136 Ry

     iteration # 14     ecut=    30.00 Ry     beta=0.70
     Davidson diagonalization with overlap
     ethr =  1.00E-02,  avg # of iterations =  1.0

     negative rho (up, down):  6.007E-03 0.000E+00

     total cpu time spent up to now is        0.8 secs

     total energy              =     -31.27140021 Ry
     Harris-Foulkes estimate   =     -31.91509766 Ry
     estimated scf accuracy    <       3.33813025 Ry

     iteration # 15     ecut=    30.00 Ry     beta=0.70
     Davidson diagonalization with overlap
     ethr =  1.00E-02,  avg # of iterations =  1.0

     negative rho (up, down):  2.441E-04 0.000E+00

     total cpu time spent up to now is        0.8 secs

     total energy              =     -31.58257462 Ry
     Harris-Foulkes estimate   =     -31.67116330 Ry
     estimated scf accuracy    <       3.83343486 Ry

     iteration # 16     ecut=    30.00 Ry     beta=0.70
     Davidson diagonalization with overlap
     ethr =  1.00E-02,  avg # of iterations =  1.0

     negative rho (up, down):  9.898E-03 0.000E+00

     total cpu time spent up to now is        0.9 secs

     total energy              =     -31.31066142 Ry
     Harris-Foulkes estimate   =     -31.58005723 Ry
     estimated scf accuracy    <       4.71765900 Ry

     iteration # 17     ecut=    30.00 Ry     beta=0.70
     Davidson diagonalization with overlap
     ethr =  1.00E-02,  avg # of iterations =  1.0

     negative rho (up, down):  6.533E-03 0.000E+00

     total cpu time spent up to now is        0.9 secs

     total energy              =     -31.58429408 Ry
     Harris-Foulkes estimate   =     -31.56373979 Ry
     estimated scf accuracy    <       2.67426644 Ry

     iteration # 18     ecut=    30.00 Ry     beta=0.70
     Davidson diagonalization with overlap
     ethr =  1.00E-02,  avg # of iterations =  1.0

     negative rho (up, down):  2.164E-03 0.000E+00

     total cpu time spent up to now is        1.0 secs

     total energy              =     -31.75684948 Ry
     Harris-Foulkes estimate   =     -31.58444698 Ry
     estimated scf accuracy    <       2.73144410 Ry

     iteration # 19     ecut=    30.00 Ry     beta=0.70
     Davidson diagonalization with overlap
     ethr =  1.00E-02,  avg # of iterations =  1.0

     negative rho (up, down):  1.703E-03 0.000E+00

     total cpu time spent up to now is        1.0 secs

     total energy              =     -31.70794033 Ry
     Harris-Foulkes estimate   =     -31.75876097 Ry
     estimated scf accuracy    <       3.04787953 Ry

     iteration # 20     ecut=    30.00 Ry     beta=0.70
     Davidson diagonalization with overlap
     ethr =  1.00E-02,  avg # of iterations =  1.0

     negative rho (up, down):  1.978E-04 0.000E+00

     total cpu time spent up to now is        1.0 secs

     total energy              =     -31.64533242 Ry
     Harris-Foulkes estimate   =     -31.70802678 Ry
     estimated scf accuracy    <       2.97657387 Ry

     iteration # 21     ecut=    30.00 Ry     beta=0.70
     Davidson diagonalization with overlap
     ethr =  1.00E-02,  avg # of iterations =  1.0

     negative rho (up, down):  1.119E-03 0.000E+00

     total cpu time spent up to now is        1.1 secs

     total energy              =     -31.72750812 Ry
     Harris-Foulkes estimate   =     -31.64555924 Ry
     estimated scf accuracy    <       2.86305794 Ry

     iteration # 22     ecut=    30.00 Ry     beta=0.70
     Davidson diagonalization with overlap
     ethr =  1.00E-02,  avg # of iterations =  1.0

     negative rho (up, down):  1.051E-06 0.000E+00

     total cpu time spent up to now is        1.1 secs

     total energy              =     -31.54162222 Ry
     Harris-Foulkes estimate   =     -31.72777148 Ry
     estimated scf accuracy    <       2.99930690 Ry

     iteration # 23     ecut=    30.00 Ry     beta=0.70
     Davidson diagonalization with overlap
     ethr =  1.00E-02,  avg # of iterations =  1.0

     negative rho (up, down):  3.298E-04 0.000E+00

     total cpu time spent up to now is        1.1 secs

     total energy              =     -31.41023230 Ry
     Harris-Foulkes estimate   =     -31.54320376 Ry
     estimated scf accuracy    <       2.53187389 Ry

     iteration # 24     ecut=    30.00 Ry     beta=0.70
     Davidson diagonalization with overlap
     ethr =  1.00E-02,  avg # of iterations =  1.0

     negative rho (up, down):  3.566E-05 0.000E+00

     total cpu time spent up to now is        1.2 secs

     total energy              =     -31.35773398 Ry
     Harris-Foulkes estimate   =     -31.51999914 Ry
     estimated scf accuracy    <       2.90597749 Ry

     iteration # 25     ecut=    30.00 Ry     beta=0.70
     Davidson diagonalization with overlap
     ethr =  1.00E-02,  avg # of iterations =  1.0

     negative rho (up, down):  7.240E-05 0.000E+00

     total cpu time spent up to now is        1.2 secs

     total energy              =     -31.53333884 Ry
     Harris-Foulkes estimate   =     -31.56298069 Ry
     estimated scf accuracy    <       2.69895946 Ry

     iteration # 26     ecut=    30.00 Ry     beta=0.70
     Davidson diagonalization with overlap
     ethr =  1.00E-02,  avg # of iterations =  1.0

     negative rho (up, down):  1.272E-04 0.000E+00

     total cpu time spent up to now is        1.2 secs

     total energy              =     -31.49265078 Ry
     Harris-Foulkes estimate   =     -31.53392609 Ry
     estimated scf accuracy    <       2.38451819 Ry

     iteration # 27     ecut=    30.00 Ry     beta=0.70
     Davidson diagonalization with overlap
     ethr =  1.00E-02,  avg # of iterations =  1.0

     negative rho (up, down):  1.329E-04 0.000E+00

     total cpu time spent up to now is        1.3 secs

     total energy              =     -31.49939593 Ry
     Harris-Foulkes estimate   =     -31.49950868 Ry
     estimated scf accuracy    <       0.79170267 Ry

     iteration # 28     ecut=    30.00 Ry     beta=0.70
     Davidson diagonalization with overlap
     ethr =  9.90E-03,  avg # of iterations =  1.0

     negative rho (up, down):  1.257E-04 0.000E+00

     total cpu time spent up to now is        1.3 secs

     total energy              =     -31.50199180 Ry
     Harris-Foulkes estimate   =     -31.49939848 Ry
     estimated scf accuracy    <       0.78269659 Ry

     iteration # 29     ecut=    30.00 Ry     beta=0.70
     Davidson diagonalization with overlap
     ethr =  9.78E-03,  avg # of iterations =  1.0

     negative rho (up, down):  1.159E-04 0.000E+00

     total cpu time spent up to now is        1.4 secs

     total energy              =     -31.50263122 Ry
     Harris-Foulkes estimate   =     -31.50215214 Ry
     estimated scf accuracy    <       0.98788056 Ry

     iteration # 30     ecut=    30.00 Ry     beta=0.70
     Davidson diagonalization with overlap
     ethr =  9.78E-03,  avg # of iterations =  1.0

     negative rho (up, down):  1.334E-04 0.000E+00

     total cpu time spent up to now is        1.4 secs

     total energy              =     -31.48969263 Ry
     Harris-Foulkes estimate   =     -31.50263554 Ry
     estimated scf accuracy    <       1.02217903 Ry

     iteration # 31     ecut=    30.00 Ry     beta=0.70
     Davidson diagonalization with overlap
     ethr =  9.78E-03,  avg # of iterations =  1.0

     negative rho (up, down):  1.065E-04 0.000E+00

     total cpu time spent up to now is        1.4 secs

     total energy              =     -31.48936978 Ry
     Harris-Foulkes estimate   =     -31.49290906 Ry
     estimated scf accuracy    <       0.22597542 Ry

     iteration # 32     ecut=    30.00 Ry     beta=0.70
     Davidson diagonalization with overlap
     ethr =  2.82E-03,  avg # of iterations =  1.0

     negative rho (up, down):  2.133E-05 0.000E+00

     total cpu time spent up to now is        1.5 secs

     total energy              =     -31.49092518 Ry
     Harris-Foulkes estimate   =     -31.49072286 Ry
     estimated scf accuracy    <       0.01049699 Ry

     iteration # 33     ecut=    30.00 Ry     beta=0.70
     Davidson diagonalization with overlap
     ethr =  1.31E-04,  avg # of iterations =  1.0

     negative rho (up, down):  1.186E-05 0.000E+00

     total cpu time spent up to now is        1.5 secs

     total energy              =     -31.49051656 Ry
     Harris-Foulkes estimate   =     -31.49103863 Ry
     estimated scf accuracy    <       0.04427469 Ry

     iteration # 34     ecut=    30.00 Ry     beta=0.70
     Davidson diagonalization with overlap
     ethr =  1.31E-04,  avg # of iterations =  1.0

     negative rho (up, down):  6.603E-06 0.000E+00

     total cpu time spent up to now is        1.5 secs

     total energy              =     -31.49074395 Ry
     Harris-Foulkes estimate   =     -31.49067803 Ry
     estimated scf accuracy    <       0.00755914 Ry

     iteration # 35     ecut=    30.00 Ry     beta=0.70
     Davidson diagonalization with overlap
     ethr =  9.45E-05,  avg # of iterations =  3.0

     negative rho (up, down):  3.346E-07 0.000E+00

     total cpu time spent up to now is        1.6 secs

     total energy              =     -31.49040139 Ry
     Harris-Foulkes estimate   =     -31.49076802 Ry
     estimated scf accuracy    <       0.01688996 Ry

     iteration # 36     ecut=    30.00 Ry     beta=0.70
     Davidson diagonalization with overlap
     ethr =  9.45E-05,  avg # of iterations =  1.0

     negative rho (up, down):  9.974E-08 0.000E+00

     total cpu time spent up to now is        1.6 secs

     total energy              =     -31.49063076 Ry
     Harris-Foulkes estimate   =     -31.49061232 Ry
     estimated scf accuracy    <       0.00045594 Ry

     iteration # 37     ecut=    30.00 Ry     beta=0.70
     Davidson diagonalization with overlap
     ethr =  5.70E-06,  avg # of iterations = 13.0

     negative rho (up, down):  6.417E-07 0.000E+00

     total cpu time spent up to now is        1.7 secs

     total energy              =     -31.49068197 Ry
     Harris-Foulkes estimate   =     -31.49065490 Ry
     estimated scf accuracy    <       0.00342601 Ry

     iteration # 38     ecut=    30.00 Ry     beta=0.70
     Davidson diagonalization with overlap
     ethr =  5.70E-06,  avg # of iterations =  1.0

     negative rho (up, down):  1.651E-05 0.000E+00

     total cpu time spent up to now is        1.7 secs

     total energy              =     -31.49071263 Ry
     Harris-Foulkes estimate   =     -31.49070617 Ry
     estimated scf accuracy    <       0.00935161 Ry

     iteration # 39     ecut=    30.00 Ry     beta=0.70
     Davidson diagonalization with overlap
     ethr =  5.70E-06,  avg # of iterations =  1.0

     negative rho (up, down):  3.227E-06 0.000E+00

     total cpu time spent up to now is        1.7 secs

     total energy              =     -31.49050980 Ry
     Harris-Foulkes estimate   =     -31.49072419 Ry
     estimated scf accuracy    <       0.01142959 Ry

     iteration # 40     ecut=    30.00 Ry     beta=0.70
     Davidson diagonalization with overlap
     ethr =  5.70E-06,  avg # of iterations =  1.0

     negative rho (up, down):  1.519E-06 0.000E+00

     total cpu time spent up to now is        1.8 secs

     total energy              =     -31.49061676 Ry
     Harris-Foulkes estimate   =     -31.49061687 Ry
     estimated scf accuracy    <       0.00000204 Ry

     iteration # 41     ecut=    30.00 Ry     beta=0.70
     Davidson diagonalization with overlap
     ethr =  2.55E-08,  avg # of iterations =  1.0

     negative rho (up, down):  8.483E-08 0.000E+00

     total cpu time spent up to now is        1.8 secs

     total energy              =     -31.49061650 Ry
     Harris-Foulkes estimate   =     -31.49061681 Ry
     estimated scf accuracy    <       0.00000224 Ry

     iteration # 42     ecut=    30.00 Ry     beta=0.70
     Davidson diagonalization with overlap
     ethr =  2.55E-08,  avg # of iterations =  1.0

     negative rho (up, down):  1.126E-08 0.000E+00

     total cpu time spent up to now is        1.8 secs

     total energy              =     -31.49061647 Ry
     Harris-Foulkes estimate   =     -31.49061653 Ry
     estimated scf accuracy    <       0.00000005 Ry

     iteration # 43     ecut=    30.00 Ry     beta=0.70
     Davidson diagonalization with overlap
     ethr =  5.93E-10,  avg # of iterations =  2.0

     total cpu time spent up to now is        1.9 secs

     End of self-consistent calculation

          k = 0.0000 0.0000 0.0000 ( 22119 PWs)   bands (ev):

   -23.5970  -7.0114  -7.0102  -7.0087  -6.9056  -6.9008  -0.2369   0.5751

     the Fermi energy is    -6.8747 ev

!    total energy              =     -31.49061641 Ry
     Harris-Foulkes estimate   =     -31.49061647 Ry
     estimated scf accuracy    <          1.7E-09 Ry

     The total energy is the sum of the following terms:

     one-electron contribution =     -39.46130306 Ry
     hartree contribution      =      21.00412419 Ry
     xc contribution           =      -7.06117992 Ry
     ewald contribution        =      -5.93858968 Ry
     smearing contrib. (-TS)   =      -0.03366795 Ry

     convergence has been achieved in  43 iterations

     Writing output data file pwscf.save
 
     init_run     :      0.09s CPU      0.11s WALL (       1 calls)
     electrons    :      1.13s CPU      1.73s WALL (       1 calls)

     Called by init_run:
     wfcinit      :      0.01s CPU      0.02s WALL (       1 calls)
     potinit      :      0.02s CPU      0.02s WALL (       1 calls)

     Called by electrons:
     c_bands      :      0.43s CPU      0.55s WALL (      43 calls)
     sum_band     :      0.11s CPU      0.12s WALL (      43 calls)
     v_of_rho     :      0.29s CPU      0.31s WALL (      44 calls)
     mix_rho      :      0.25s CPU      0.46s WALL (      43 calls)

     Called by c_bands:
     init_us_2    :      0.00s CPU      0.00s WALL (      87 calls)
     cegterg      :      0.42s CPU      0.44s WALL (      43 calls)

     Called by sum_band:

     Called by *egterg:
     h_psi        :      0.37s CPU      0.39s WALL (     117 calls)
     g_psi        :      0.00s CPU      0.00s WALL (      73 calls)
     cdiaghg      :      0.02s CPU      0.02s WALL (     116 calls)

     Called by h_psi:
     h_psi:pot    :      0.37s CPU      0.38s WALL (     117 calls)
     h_psi:calbec :      0.01s CPU      0.01s WALL (     117 calls)
     vloc_psi     :      0.36s CPU      0.37s WALL (     117 calls)
     add_vuspsi   :      0.00s CPU      0.00s WALL (     117 calls)

     General routines
     calbec       :      0.01s CPU      0.01s WALL (     117 calls)
     fft          :      0.19s CPU      0.21s WALL (     483 calls)
     fftw         :      0.39s CPU      0.42s WALL (    1878 calls)
     davcio       :      0.04s CPU      0.18s WALL (     768 calls)
 
     Parallel routines
     fft_scatter  :      0.24s CPU      0.27s WALL (    2361 calls)
 
     PWSCF        :     1.33s CPU         2.12s WALL

 
   This run was terminated on:  23:20:37   6Feb2018            

=------------------------------------------------------------------------------=
   JOB DONE.
=------------------------------------------------------------------------------=
