
     Program PWSCF v.6.0 (svn rev. 13079) starts on  7Feb2018 at  0:47:49 

     This program is part of the open-source Quantum ESPRESSO suite
     for quantum simulation of materials; please cite
         "P. Giannozzi et al., J. Phys.:Condens. Matter 21 395502 (2009);
          URL http://www.quantum-espresso.org", 
     in publications or presentations arising from this work. More details at
     http://www.quantum-espresso.org/quote

     Parallel version (MPI), running on    28 processors
     R & G space division:  proc/nbgrp/npool/nimage =      28
     Reading input from inputs/rand-water-1/8927.in
Warning: card &IONS ignored
Warning: card     POT_EXTRAPOLATION='SECOND-ORDER' ignored
Warning: card     WFC_EXTRAPOLATION='SECOND-ORDER' ignored
Warning: card     ION_TEMPERATURE = 'ANDERSEN' ignored
Warning: card     TEMPW = 1000 ignored
Warning: card / ignored

     Current dimensions of program PWSCF are:
     Max number of different atomic species (ntypx) = 10
     Max number of k-points (npk) =  40000
     Max angular momentum in pseudopotentials (lmaxx) =  3

     Subspace diagonalization in iterative solution of the eigenvalue problem:
     a serial algorithm will be used

 
     Parallelization info
     --------------------
     sticks:   dense  smooth     PW     G-vecs:    dense   smooth      PW
     Min         136     136     33                 6338     6338     787
     Max         137     137     34                 6341     6341     792
     Sum        3809    3809    949               177509   177509   22119
 


     bravais-lattice index     =            1
     lattice parameter (alat)  =      20.0000  a.u.
     unit-cell volume          =    8000.0000 (a.u.)^3
     number of atoms/cell      =            3
     number of atomic types    =            2
     number of electrons       =         8.00
     number of Kohn-Sham states=            8
     kinetic-energy cutoff     =      30.0000  Ry
     charge density cutoff     =     120.0000  Ry
     convergence threshold     =      1.0E-08
     mixing beta               =       0.7000
     number of iterations used =            8  plain     mixing
     Exchange-correlation      = BLYP ( 1  3  1  3 0 0)

     celldm(1)=  20.000000  celldm(2)=   0.000000  celldm(3)=   0.000000
     celldm(4)=   0.000000  celldm(5)=   0.000000  celldm(6)=   0.000000

     crystal axes: (cart. coord. in units of alat)
               a(1) = (   1.000000   0.000000   0.000000 )  
               a(2) = (   0.000000   1.000000   0.000000 )  
               a(3) = (   0.000000   0.000000   1.000000 )  

     reciprocal axes: (cart. coord. in units 2 pi/alat)
               b(1) = (  1.000000  0.000000  0.000000 )  
               b(2) = (  0.000000  1.000000  0.000000 )  
               b(3) = (  0.000000  0.000000  1.000000 )  


     PseudoPot. # 1 for  H read from file:
     ./H.blyp-hgh.UPF
     MD5 check sum: c576e69559cde411e611be972c763230
     Pseudo is Norm-conserving, Zval =  1.0
     Generated in analytical, separable form
     Using radial grid of  929 points,  0 beta functions with: 

     PseudoPot. # 2 for  O read from file:
     ./O.blyp-hgh.UPF
     MD5 check sum: d0b7156309aa9befef28faac7bc56342
     Pseudo is Norm-conserving, Zval =  6.0
     Generated in analytical, separable form
     Using radial grid of 1095 points,  1 beta functions with: 
                l(1) =   0

     atomic species   valence    mass     pseudopotential
        H              1.00     1.01000      H( 1.00)
        O              6.00    16.00000      O( 1.00)

     No symmetry found



   Cartesian axes

     site n.     atom                  positions (alat units)
         1           H   tau(   1) = (   0.5390638   0.7920402   0.1012190  )
         2           H   tau(   2) = (   0.1631738   0.1071518   0.5833068  )
         3           O   tau(   3) = (   0.6769961   0.1081588   0.6400020  )

     number of k points=     1  Marzari-Vanderbilt smearing, width (Ry)=  0.0250
                       cart. coord. in units 2pi/alat
        k(    1) = (   0.0000000   0.0000000   0.0000000), wk =   2.0000000

     Dense  grid:   177509 G-vectors     FFT dimensions: (  72,  72,  72)

     Estimated max dynamical RAM per process >       6.09Mb

     Estimated total allocated dynamical RAM >     170.64Mb

     Initial potential from superposition of free atoms
     Check: negative starting charge=   -0.346083

     starting charge    7.99998, renormalised to    8.00000

     negative rho (up, down):  3.461E-01 0.000E+00
     Starting wfc are    6 randomized atomic wfcs +    2 random wfc

     total cpu time spent up to now is        0.2 secs

     per-process dynamical memory:    18.8 Mb

     Self-consistent Calculation

     iteration #  1     ecut=    30.00 Ry     beta=0.70
     Davidson diagonalization with overlap
     ethr =  1.00E-02,  avg # of iterations =  7.0

     negative rho (up, down):  8.251E-02 0.000E+00

     total cpu time spent up to now is        0.3 secs

     total energy              =     -28.16771822 Ry
     Harris-Foulkes estimate   =     -32.07291263 Ry
     estimated scf accuracy    <       4.49475157 Ry

     iteration #  2     ecut=    30.00 Ry     beta=0.70
     Davidson diagonalization with overlap
     ethr =  1.00E-02,  avg # of iterations =  4.0

     negative rho (up, down):  6.043E-02 0.000E+00

     total cpu time spent up to now is        0.4 secs

     total energy              =     -32.60076942 Ry
     Harris-Foulkes estimate   =     -37.77595563 Ry
     estimated scf accuracy    <      12.63729069 Ry

     iteration #  3     ecut=    30.00 Ry     beta=0.70
     Davidson diagonalization with overlap
     ethr =  1.00E-02,  avg # of iterations =  2.0

     negative rho (up, down):  1.678E-01 0.000E+00

     total cpu time spent up to now is        0.5 secs

     total energy              =     -31.91211274 Ry
     Harris-Foulkes estimate   =     -32.93928854 Ry
     estimated scf accuracy    <       4.85507669 Ry

     iteration #  4     ecut=    30.00 Ry     beta=0.70
     Davidson diagonalization with overlap
     ethr =  1.00E-02,  avg # of iterations =  4.0

     negative rho (up, down):  1.043E+00 0.000E+00

     total cpu time spent up to now is        0.6 secs

     total energy              =     -30.18251816 Ry
     Harris-Foulkes estimate   =     -31.91546169 Ry
     estimated scf accuracy    <       3.35222807 Ry

     iteration #  5     ecut=    30.00 Ry     beta=0.70
     Davidson diagonalization with overlap
     ethr =  1.00E-02,  avg # of iterations =  5.0

     negative rho (up, down):  9.446E-01 0.000E+00

     total cpu time spent up to now is        0.7 secs

     total energy              =     -31.82344020 Ry
     Harris-Foulkes estimate   =     -33.72993116 Ry
     estimated scf accuracy    <      14.48706957 Ry

     iteration #  6     ecut=    30.00 Ry     beta=0.70
     Davidson diagonalization with overlap
     ethr =  1.00E-02,  avg # of iterations =  2.0

     negative rho (up, down):  9.270E-01 0.000E+00

     total cpu time spent up to now is        0.8 secs

     total energy              =     -31.79499659 Ry
     Harris-Foulkes estimate   =     -32.29471717 Ry
     estimated scf accuracy    <       5.10295032 Ry

     iteration #  7     ecut=    30.00 Ry     beta=0.70
     Davidson diagonalization with overlap
     ethr =  1.00E-02,  avg # of iterations =  3.0

     negative rho (up, down):  8.945E-01 0.000E+00

     total cpu time spent up to now is        0.8 secs

     total energy              =     -31.42902411 Ry
     Harris-Foulkes estimate   =     -31.81233760 Ry
     estimated scf accuracy    <       4.23661054 Ry

     iteration #  8     ecut=    30.00 Ry     beta=0.70
     Davidson diagonalization with overlap
     ethr =  1.00E-02,  avg # of iterations =  1.0

     negative rho (up, down):  8.893E-01 0.000E+00

     total cpu time spent up to now is        0.9 secs

     total energy              =     -31.47029140 Ry
     Harris-Foulkes estimate   =     -31.46471879 Ry
     estimated scf accuracy    <       1.22053398 Ry

     iteration #  9     ecut=    30.00 Ry     beta=0.70
     Davidson diagonalization with overlap
     ethr =  1.00E-02,  avg # of iterations =  1.0

     negative rho (up, down):  8.712E-01 0.000E+00

     total cpu time spent up to now is        0.9 secs

     total energy              =     -31.48040625 Ry
     Harris-Foulkes estimate   =     -31.47204533 Ry
     estimated scf accuracy    <       1.30310750 Ry

     iteration # 10     ecut=    30.00 Ry     beta=0.70
     Davidson diagonalization with overlap
     ethr =  1.00E-02,  avg # of iterations =  1.0

     negative rho (up, down):  8.381E-01 0.000E+00

     total cpu time spent up to now is        1.0 secs

     total energy              =     -31.40342687 Ry
     Harris-Foulkes estimate   =     -31.48255536 Ry
     estimated scf accuracy    <       1.35456965 Ry

     iteration # 11     ecut=    30.00 Ry     beta=0.70
     Davidson diagonalization with overlap
     ethr =  1.00E-02,  avg # of iterations =  1.0

     negative rho (up, down):  1.891E-02 0.000E+00

     total cpu time spent up to now is        1.0 secs

     total energy              =     -31.47582858 Ry
     Harris-Foulkes estimate   =     -31.54222713 Ry
     estimated scf accuracy    <       2.77897297 Ry

     iteration # 12     ecut=    30.00 Ry     beta=0.70
     Davidson diagonalization with overlap
     ethr =  1.00E-02,  avg # of iterations =  1.0

     negative rho (up, down):  1.758E-03 0.000E+00

     total cpu time spent up to now is        1.1 secs

     total energy              =     -31.47458259 Ry
     Harris-Foulkes estimate   =     -31.48944526 Ry
     estimated scf accuracy    <       0.84727944 Ry

     iteration # 13     ecut=    30.00 Ry     beta=0.70
     Davidson diagonalization with overlap
     ethr =  1.00E-02,  avg # of iterations =  1.0

     negative rho (up, down):  6.139E-04 0.000E+00

     total cpu time spent up to now is        1.1 secs

     total energy              =     -31.51440814 Ry
     Harris-Foulkes estimate   =     -31.49328970 Ry
     estimated scf accuracy    <       0.30844807 Ry

     iteration # 14     ecut=    30.00 Ry     beta=0.70
     Davidson diagonalization with overlap
     ethr =  3.86E-03,  avg # of iterations =  1.0

     negative rho (up, down):  5.837E-03 0.000E+00

     total cpu time spent up to now is        1.2 secs

     total energy              =     -31.51336903 Ry
     Harris-Foulkes estimate   =     -31.52936214 Ry
     estimated scf accuracy    <       1.32805795 Ry

     iteration # 15     ecut=    30.00 Ry     beta=0.70
     Davidson diagonalization with overlap
     ethr =  3.86E-03,  avg # of iterations =  1.0

     negative rho (up, down):  7.837E-03 0.000E+00

     total cpu time spent up to now is        1.2 secs

     total energy              =     -31.57895810 Ry
     Harris-Foulkes estimate   =     -31.59793152 Ry
     estimated scf accuracy    <       0.84779223 Ry

     iteration # 16     ecut=    30.00 Ry     beta=0.70
     Davidson diagonalization with overlap
     ethr =  3.86E-03,  avg # of iterations =  1.0

     negative rho (up, down):  3.753E-04 0.000E+00

     total cpu time spent up to now is        1.2 secs

     total energy              =     -31.52156383 Ry
     Harris-Foulkes estimate   =     -31.59843129 Ry
     estimated scf accuracy    <       1.35220457 Ry

     iteration # 17     ecut=    30.00 Ry     beta=0.70
     Davidson diagonalization with overlap
     ethr =  3.86E-03,  avg # of iterations =  1.0

     negative rho (up, down):  1.396E-05 0.000E+00

     total cpu time spent up to now is        1.3 secs

     total energy              =     -31.45865812 Ry
     Harris-Foulkes estimate   =     -31.52368334 Ry
     estimated scf accuracy    <       1.22410116 Ry

     iteration # 18     ecut=    30.00 Ry     beta=0.70
     Davidson diagonalization with overlap
     ethr =  3.86E-03,  avg # of iterations =  1.0

     negative rho (up, down):  6.122E-05 0.000E+00

     total cpu time spent up to now is        1.3 secs

     total energy              =     -31.50320237 Ry
     Harris-Foulkes estimate   =     -31.51552194 Ry
     estimated scf accuracy    <       1.68309907 Ry

     iteration # 19     ecut=    30.00 Ry     beta=0.70
     Davidson diagonalization with overlap
     ethr =  3.86E-03,  avg # of iterations =  1.0

     negative rho (up, down):  9.941E-04 0.000E+00

     total cpu time spent up to now is        1.4 secs

     total energy              =     -31.48876090 Ry
     Harris-Foulkes estimate   =     -31.50588274 Ry
     estimated scf accuracy    <       0.95973211 Ry

     iteration # 20     ecut=    30.00 Ry     beta=0.70
     Davidson diagonalization with overlap
     ethr =  3.86E-03,  avg # of iterations =  1.0

     negative rho (up, down):  5.586E-04 0.000E+00

     total cpu time spent up to now is        1.4 secs

     total energy              =     -31.49173777 Ry
     Harris-Foulkes estimate   =     -31.49324427 Ry
     estimated scf accuracy    <       0.17157201 Ry

     iteration # 21     ecut=    30.00 Ry     beta=0.70
     Davidson diagonalization with overlap
     ethr =  2.14E-03,  avg # of iterations =  1.0

     negative rho (up, down):  4.037E-04 0.000E+00

     total cpu time spent up to now is        1.4 secs

     total energy              =     -31.49247974 Ry
     Harris-Foulkes estimate   =     -31.49201743 Ry
     estimated scf accuracy    <       0.08363008 Ry

     iteration # 22     ecut=    30.00 Ry     beta=0.70
     Davidson diagonalization with overlap
     ethr =  1.05E-03,  avg # of iterations =  1.0

     negative rho (up, down):  2.059E-04 0.000E+00

     total cpu time spent up to now is        1.5 secs

     total energy              =     -31.48765217 Ry
     Harris-Foulkes estimate   =     -31.49290846 Ry
     estimated scf accuracy    <       0.17778804 Ry

     iteration # 23     ecut=    30.00 Ry     beta=0.70
     Davidson diagonalization with overlap
     ethr =  1.05E-03,  avg # of iterations =  1.0

     negative rho (up, down):  1.825E-04 0.000E+00

     total cpu time spent up to now is        1.5 secs

     total energy              =     -31.49081386 Ry
     Harris-Foulkes estimate   =     -31.49109132 Ry
     estimated scf accuracy    <       0.01403228 Ry

     iteration # 24     ecut=    30.00 Ry     beta=0.70
     Davidson diagonalization with overlap
     ethr =  1.75E-04,  avg # of iterations =  1.0

     negative rho (up, down):  7.143E-05 0.000E+00

     total cpu time spent up to now is        1.6 secs

     total energy              =     -31.49082491 Ry
     Harris-Foulkes estimate   =     -31.49090480 Ry
     estimated scf accuracy    <       0.00451893 Ry

     iteration # 25     ecut=    30.00 Ry     beta=0.70
     Davidson diagonalization with overlap
     ethr =  5.65E-05,  avg # of iterations =  6.0

     negative rho (up, down):  2.373E-05 0.000E+00

     total cpu time spent up to now is        1.6 secs

     total energy              =     -31.49084374 Ry
     Harris-Foulkes estimate   =     -31.49085225 Ry
     estimated scf accuracy    <       0.00048190 Ry

     iteration # 26     ecut=    30.00 Ry     beta=0.70
     Davidson diagonalization with overlap
     c_bands:  1 eigenvalues not converged
     ethr =  6.02E-06,  avg # of iterations = 20.0

     negative rho (up, down):  1.699E-07 0.000E+00

     total cpu time spent up to now is        1.7 secs

     total energy              =     -31.49084650 Ry
     Harris-Foulkes estimate   =     -31.49084739 Ry
     estimated scf accuracy    <       0.00005072 Ry

     iteration # 27     ecut=    30.00 Ry     beta=0.70
     Davidson diagonalization with overlap
     ethr =  6.34E-07,  avg # of iterations = 12.0

     negative rho (up, down):  4.080E-07 0.000E+00

     total cpu time spent up to now is        1.7 secs

     total energy              =     -31.49084840 Ry
     Harris-Foulkes estimate   =     -31.49084859 Ry
     estimated scf accuracy    <       0.00002129 Ry

     iteration # 28     ecut=    30.00 Ry     beta=0.70
     Davidson diagonalization with overlap
     ethr =  2.66E-07,  avg # of iterations =  1.0

     negative rho (up, down):  1.138E-07 0.000E+00

     total cpu time spent up to now is        1.8 secs

     total energy              =     -31.49084889 Ry
     Harris-Foulkes estimate   =     -31.49084855 Ry
     estimated scf accuracy    <       0.00000203 Ry

     iteration # 29     ecut=    30.00 Ry     beta=0.70
     Davidson diagonalization with overlap
     ethr =  2.53E-08,  avg # of iterations =  1.0

     total cpu time spent up to now is        1.8 secs

     total energy              =     -31.49084900 Ry
     Harris-Foulkes estimate   =     -31.49084893 Ry
     estimated scf accuracy    <       0.00000010 Ry

     iteration # 30     ecut=    30.00 Ry     beta=0.70
     Davidson diagonalization with overlap
     ethr =  1.28E-09,  avg # of iterations =  1.0

     total cpu time spent up to now is        1.8 secs

     End of self-consistent calculation

          k = 0.0000 0.0000 0.0000 ( 22119 PWs)   bands (ev):

   -23.5765  -6.9933  -6.9916  -6.9913  -6.8870  -6.8837  -0.2301   0.6773

     the Fermi energy is    -6.8568 ev

!    total energy              =     -31.49084906 Ry
     Harris-Foulkes estimate   =     -31.49084901 Ry
     estimated scf accuracy    <          2.5E-09 Ry

     The total energy is the sum of the following terms:

     one-electron contribution =     -39.70398785 Ry
     hartree contribution      =      21.13156476 Ry
     xc contribution           =      -7.06199898 Ry
     ewald contribution        =      -5.82275166 Ry
     smearing contrib. (-TS)   =      -0.03367534 Ry

     convergence has been achieved in  30 iterations

     Writing output data file pwscf.save
 
     init_run     :      0.10s CPU      0.13s WALL (       1 calls)
     electrons    :      0.91s CPU      1.64s WALL (       1 calls)

     Called by init_run:
     wfcinit      :      0.02s CPU      0.04s WALL (       1 calls)
     potinit      :      0.02s CPU      0.03s WALL (       1 calls)

     Called by electrons:
     c_bands      :      0.33s CPU      0.48s WALL (      30 calls)
     sum_band     :      0.08s CPU      0.10s WALL (      30 calls)
     v_of_rho     :      0.24s CPU      0.26s WALL (      31 calls)
     mix_rho      :      0.23s CPU      0.59s WALL (      30 calls)

     Called by c_bands:
     init_us_2    :      0.00s CPU      0.00s WALL (      61 calls)
     cegterg      :      0.32s CPU      0.34s WALL (      30 calls)

     Called by sum_band:

     Called by *egterg:
     h_psi        :      0.29s CPU      0.31s WALL (     116 calls)
     g_psi        :      0.00s CPU      0.00s WALL (      85 calls)
     cdiaghg      :      0.02s CPU      0.02s WALL (     115 calls)

     Called by h_psi:
     h_psi:pot    :      0.28s CPU      0.31s WALL (     116 calls)
     h_psi:calbec :      0.00s CPU      0.01s WALL (     116 calls)
     vloc_psi     :      0.28s CPU      0.30s WALL (     116 calls)
     add_vuspsi   :      0.00s CPU      0.00s WALL (     116 calls)

     General routines
     calbec       :      0.00s CPU      0.01s WALL (     116 calls)
     fft          :      0.16s CPU      0.18s WALL (     340 calls)
     fftw         :      0.31s CPU      0.34s WALL (    1408 calls)
     davcio       :      0.03s CPU      0.33s WALL (     508 calls)
 
     Parallel routines
     fft_scatter  :      0.22s CPU      0.25s WALL (    1748 calls)
 
     PWSCF        :     1.11s CPU         2.05s WALL

 
   This run was terminated on:   0:47:51   7Feb2018            

=------------------------------------------------------------------------------=
   JOB DONE.
=------------------------------------------------------------------------------=
