
     Program PWSCF v.6.0 (svn rev. 13079) starts on  7Feb2018 at  0:58:54 

     This program is part of the open-source Quantum ESPRESSO suite
     for quantum simulation of materials; please cite
         "P. Giannozzi et al., J. Phys.:Condens. Matter 21 395502 (2009);
          URL http://www.quantum-espresso.org", 
     in publications or presentations arising from this work. More details at
     http://www.quantum-espresso.org/quote

     Parallel version (MPI), running on    28 processors
     R & G space division:  proc/nbgrp/npool/nimage =      28
     Reading input from inputs/rand-water-1/9196.in
Warning: card &IONS ignored
Warning: card     POT_EXTRAPOLATION='SECOND-ORDER' ignored
Warning: card     WFC_EXTRAPOLATION='SECOND-ORDER' ignored
Warning: card     ION_TEMPERATURE = 'ANDERSEN' ignored
Warning: card     TEMPW = 1000 ignored
Warning: card / ignored

     Current dimensions of program PWSCF are:
     Max number of different atomic species (ntypx) = 10
     Max number of k-points (npk) =  40000
     Max angular momentum in pseudopotentials (lmaxx) =  3

     Subspace diagonalization in iterative solution of the eigenvalue problem:
     a serial algorithm will be used

 
     Parallelization info
     --------------------
     sticks:   dense  smooth     PW     G-vecs:    dense   smooth      PW
     Min         136     136     33                 6338     6338     787
     Max         137     137     34                 6341     6341     792
     Sum        3809    3809    949               177509   177509   22119
 


     bravais-lattice index     =            1
     lattice parameter (alat)  =      20.0000  a.u.
     unit-cell volume          =    8000.0000 (a.u.)^3
     number of atoms/cell      =            3
     number of atomic types    =            2
     number of electrons       =         8.00
     number of Kohn-Sham states=            8
     kinetic-energy cutoff     =      30.0000  Ry
     charge density cutoff     =     120.0000  Ry
     convergence threshold     =      1.0E-08
     mixing beta               =       0.7000
     number of iterations used =            8  plain     mixing
     Exchange-correlation      = BLYP ( 1  3  1  3 0 0)

     celldm(1)=  20.000000  celldm(2)=   0.000000  celldm(3)=   0.000000
     celldm(4)=   0.000000  celldm(5)=   0.000000  celldm(6)=   0.000000

     crystal axes: (cart. coord. in units of alat)
               a(1) = (   1.000000   0.000000   0.000000 )  
               a(2) = (   0.000000   1.000000   0.000000 )  
               a(3) = (   0.000000   0.000000   1.000000 )  

     reciprocal axes: (cart. coord. in units 2 pi/alat)
               b(1) = (  1.000000  0.000000  0.000000 )  
               b(2) = (  0.000000  1.000000  0.000000 )  
               b(3) = (  0.000000  0.000000  1.000000 )  


     PseudoPot. # 1 for  H read from file:
     ./H.blyp-hgh.UPF
     MD5 check sum: c576e69559cde411e611be972c763230
     Pseudo is Norm-conserving, Zval =  1.0
     Generated in analytical, separable form
     Using radial grid of  929 points,  0 beta functions with: 

     PseudoPot. # 2 for  O read from file:
     ./O.blyp-hgh.UPF
     MD5 check sum: d0b7156309aa9befef28faac7bc56342
     Pseudo is Norm-conserving, Zval =  6.0
     Generated in analytical, separable form
     Using radial grid of 1095 points,  1 beta functions with: 
                l(1) =   0

     atomic species   valence    mass     pseudopotential
        H              1.00     1.01000      H( 1.00)
        O              6.00    16.00000      O( 1.00)

     No symmetry found



   Cartesian axes

     site n.     atom                  positions (alat units)
         1           H   tau(   1) = (   0.9032001   0.7713115   0.6887262  )
         2           H   tau(   2) = (   0.8465632   0.2104627   0.4298444  )
         3           O   tau(   3) = (   0.4573040   0.6642728   0.2921823  )

     number of k points=     1  Marzari-Vanderbilt smearing, width (Ry)=  0.0250
                       cart. coord. in units 2pi/alat
        k(    1) = (   0.0000000   0.0000000   0.0000000), wk =   2.0000000

     Dense  grid:   177509 G-vectors     FFT dimensions: (  72,  72,  72)

     Estimated max dynamical RAM per process >       6.09Mb

     Estimated total allocated dynamical RAM >     170.64Mb

     Initial potential from superposition of free atoms
     Check: negative starting charge=   -0.351330

     starting charge    7.99998, renormalised to    8.00000

     negative rho (up, down):  3.513E-01 0.000E+00
     Starting wfc are    6 randomized atomic wfcs +    2 random wfc

     total cpu time spent up to now is        0.2 secs

     per-process dynamical memory:    18.8 Mb

     Self-consistent Calculation

     iteration #  1     ecut=    30.00 Ry     beta=0.70
     Davidson diagonalization with overlap
     ethr =  1.00E-02,  avg # of iterations =  7.0

     negative rho (up, down):  8.480E-02 0.000E+00

     total cpu time spent up to now is        0.3 secs

     total energy              =     -28.03231248 Ry
     Harris-Foulkes estimate   =     -32.08936267 Ry
     estimated scf accuracy    <       4.64336991 Ry

     iteration #  2     ecut=    30.00 Ry     beta=0.70
     Davidson diagonalization with overlap
     ethr =  1.00E-02,  avg # of iterations =  4.0

     negative rho (up, down):  7.753E+00 0.000E+00

     total cpu time spent up to now is        0.4 secs

     total energy              =     -32.53483410 Ry
     Harris-Foulkes estimate   =     -38.04844274 Ry
     estimated scf accuracy    <      13.05943549 Ry

     iteration #  3     ecut=    30.00 Ry     beta=0.70
     Davidson diagonalization with overlap
     ethr =  1.00E-02,  avg # of iterations =  5.0

     negative rho (up, down):  7.409E+00 0.000E+00

     total cpu time spent up to now is        0.5 secs

     total energy              =     -31.93839879 Ry
     Harris-Foulkes estimate   =     -33.12167217 Ry
     estimated scf accuracy    <       5.52923223 Ry

     iteration #  4     ecut=    30.00 Ry     beta=0.70
     Davidson diagonalization with overlap
     ethr =  1.00E-02,  avg # of iterations =  9.0

     negative rho (up, down):  6.161E+00 0.000E+00

     total cpu time spent up to now is        0.6 secs

     total energy              =     -31.97757314 Ry
     Harris-Foulkes estimate   =     -32.69953380 Ry
     estimated scf accuracy    <       3.27527573 Ry

     iteration #  5     ecut=    30.00 Ry     beta=0.70
     Davidson diagonalization with overlap
     ethr =  1.00E-02,  avg # of iterations =  2.0

     negative rho (up, down):  5.328E+00 0.000E+00

     total cpu time spent up to now is        0.7 secs

     total energy              =     -31.89395003 Ry
     Harris-Foulkes estimate   =     -32.43796422 Ry
     estimated scf accuracy    <       4.96910449 Ry

     iteration #  6     ecut=    30.00 Ry     beta=0.70
     Davidson diagonalization with overlap
     ethr =  1.00E-02,  avg # of iterations =  2.0

     negative rho (up, down):  3.670E+00 0.000E+00

     total cpu time spent up to now is        0.7 secs

     total energy              =     -31.74823926 Ry
     Harris-Foulkes estimate   =     -31.96649271 Ry
     estimated scf accuracy    <       2.14042671 Ry

     iteration #  7     ecut=    30.00 Ry     beta=0.70
     Davidson diagonalization with overlap
     ethr =  1.00E-02,  avg # of iterations =  4.0

     negative rho (up, down):  3.617E+00 0.000E+00

     total cpu time spent up to now is        0.8 secs

     total energy              =     -32.13642928 Ry
     Harris-Foulkes estimate   =     -32.44292142 Ry
     estimated scf accuracy    <       2.64131595 Ry

     iteration #  8     ecut=    30.00 Ry     beta=0.70
     Davidson diagonalization with overlap
     ethr =  1.00E-02,  avg # of iterations =  2.0

     negative rho (up, down):  3.623E+00 0.000E+00

     total cpu time spent up to now is        0.9 secs

     total energy              =     -31.99742477 Ry
     Harris-Foulkes estimate   =     -32.19114699 Ry
     estimated scf accuracy    <       2.27176736 Ry

     iteration #  9     ecut=    30.00 Ry     beta=0.70
     Davidson diagonalization with overlap
     ethr =  1.00E-02,  avg # of iterations =  2.0

     negative rho (up, down):  3.636E+00 0.000E+00

     total cpu time spent up to now is        0.9 secs

     total energy              =     -32.69135750 Ry
     Harris-Foulkes estimate   =     -32.34044373 Ry
     estimated scf accuracy    <       4.59973495 Ry

     iteration # 10     ecut=    30.00 Ry     beta=0.70
     Davidson diagonalization with overlap
     ethr =  1.00E-02,  avg # of iterations =  2.0

     negative rho (up, down):  4.406E+00 0.000E+00

     total cpu time spent up to now is        1.0 secs

     total energy              =     -33.26341161 Ry
     Harris-Foulkes estimate   =     -32.78926188 Ry
     estimated scf accuracy    <       5.22766436 Ry

     iteration # 11     ecut=    30.00 Ry     beta=0.70
     Davidson diagonalization with overlap
     ethr =  1.00E-02,  avg # of iterations =  2.0

     negative rho (up, down):  7.733E-01 0.000E+00

     total cpu time spent up to now is        1.1 secs

     total energy              =     -34.07186980 Ry
     Harris-Foulkes estimate   =     -33.36166136 Ry
     estimated scf accuracy    <       6.09351674 Ry

     iteration # 12     ecut=    30.00 Ry     beta=0.70
     Davidson diagonalization with overlap
     ethr =  1.00E-02,  avg # of iterations =  8.0

     negative rho (up, down):  7.996E-01 0.000E+00

     total cpu time spent up to now is        1.1 secs

     total energy              =      56.93961578 Ry
     Harris-Foulkes estimate   =    -194.86139014 Ry
     estimated scf accuracy    <      30.72626352 Ry

     iteration # 13     ecut=    30.00 Ry     beta=0.70
     Davidson diagonalization with overlap
     ethr =  1.00E-02,  avg # of iterations =  5.0

     negative rho (up, down):  7.853E-01 0.000E+00

     total cpu time spent up to now is        1.2 secs

     total energy              =       7.45754762 Ry
     Harris-Foulkes estimate   =    -145.63116698 Ry
     estimated scf accuracy    <      48.15209202 Ry

     iteration # 14     ecut=    30.00 Ry     beta=0.70
     Davidson diagonalization with overlap
     ethr =  1.00E-02,  avg # of iterations =  4.0

     negative rho (up, down):  7.807E-01 0.000E+00

     total cpu time spent up to now is        1.2 secs

     total energy              =      53.26047095 Ry
     Harris-Foulkes estimate   =    -105.67046617 Ry
     estimated scf accuracy    <      40.21696304 Ry

     iteration # 15     ecut=    30.00 Ry     beta=0.70
     Davidson diagonalization with overlap
     ethr =  1.00E-02,  avg # of iterations =  5.0

     negative rho (up, down):  4.374E-01 0.000E+00

     total cpu time spent up to now is        1.3 secs

     total energy              =     -31.42520001 Ry
     Harris-Foulkes estimate   =     -32.10884845 Ry
     estimated scf accuracy    <       2.55807966 Ry

     iteration # 16     ecut=    30.00 Ry     beta=0.70
     Davidson diagonalization with overlap
     ethr =  1.00E-02,  avg # of iterations =  2.0

     negative rho (up, down):  8.128E-02 0.000E+00

     total cpu time spent up to now is        1.3 secs

     total energy              =     -31.44199712 Ry
     Harris-Foulkes estimate   =     -33.86891264 Ry
     estimated scf accuracy    <      15.23169081 Ry

     iteration # 17     ecut=    30.00 Ry     beta=0.70
     Davidson diagonalization with overlap
     ethr =  1.00E-02,  avg # of iterations =  2.0

     negative rho (up, down):  4.649E-01 0.000E+00

     total cpu time spent up to now is        1.4 secs

     total energy              =     -31.23440673 Ry
     Harris-Foulkes estimate   =     -32.19856990 Ry
     estimated scf accuracy    <       5.06691945 Ry

     iteration # 18     ecut=    30.00 Ry     beta=0.70
     Davidson diagonalization with overlap
     ethr =  1.00E-02,  avg # of iterations =  2.0

     negative rho (up, down):  5.373E-02 0.000E+00

     total cpu time spent up to now is        1.4 secs

     total energy              =     -31.16314284 Ry
     Harris-Foulkes estimate   =     -31.47775128 Ry
     estimated scf accuracy    <       2.15401201 Ry

     iteration # 19     ecut=    30.00 Ry     beta=0.70
     Davidson diagonalization with overlap
     ethr =  1.00E-02,  avg # of iterations =  1.0

     negative rho (up, down):  4.475E-02 0.000E+00

     total cpu time spent up to now is        1.4 secs

     total energy              =     -31.71176250 Ry
     Harris-Foulkes estimate   =     -31.84999113 Ry
     estimated scf accuracy    <       4.23332963 Ry

     iteration # 20     ecut=    30.00 Ry     beta=0.70
     Davidson diagonalization with overlap
     ethr =  1.00E-02,  avg # of iterations =  1.0

     negative rho (up, down):  8.065E-02 0.000E+00

     total cpu time spent up to now is        1.5 secs

     total energy              =     -31.18943370 Ry
     Harris-Foulkes estimate   =     -31.71362787 Ry
     estimated scf accuracy    <       4.02138864 Ry

     iteration # 21     ecut=    30.00 Ry     beta=0.70
     Davidson diagonalization with overlap
     ethr =  1.00E-02,  avg # of iterations =  1.0

     negative rho (up, down):  3.000E-02 0.000E+00

     total cpu time spent up to now is        1.5 secs

     total energy              =     -31.39602939 Ry
     Harris-Foulkes estimate   =     -31.66217329 Ry
     estimated scf accuracy    <       3.05085691 Ry

     iteration # 22     ecut=    30.00 Ry     beta=0.70
     Davidson diagonalization with overlap
     ethr =  1.00E-02,  avg # of iterations =  1.0

     negative rho (up, down):  2.598E-02 0.000E+00

     total cpu time spent up to now is        1.6 secs

     total energy              =     -31.55035185 Ry
     Harris-Foulkes estimate   =     -31.52345095 Ry
     estimated scf accuracy    <       1.35157288 Ry

     iteration # 23     ecut=    30.00 Ry     beta=0.70
     Davidson diagonalization with overlap
     ethr =  1.00E-02,  avg # of iterations =  1.0

     negative rho (up, down):  5.759E-02 0.000E+00

     total cpu time spent up to now is        1.6 secs

     total energy              =     -31.37201719 Ry
     Harris-Foulkes estimate   =     -31.56210987 Ry
     estimated scf accuracy    <       1.07050384 Ry

     iteration # 24     ecut=    30.00 Ry     beta=0.70
     Davidson diagonalization with overlap
     ethr =  1.00E-02,  avg # of iterations =  1.0

     negative rho (up, down):  6.629E-03 0.000E+00

     total cpu time spent up to now is        1.7 secs

     total energy              =     -31.57774635 Ry
     Harris-Foulkes estimate   =     -31.70980429 Ry
     estimated scf accuracy    <       3.05508919 Ry

     iteration # 25     ecut=    30.00 Ry     beta=0.70
     Davidson diagonalization with overlap
     ethr =  1.00E-02,  avg # of iterations =  1.0

     negative rho (up, down):  2.450E-03 0.000E+00

     total cpu time spent up to now is        1.7 secs

     total energy              =     -31.54152588 Ry
     Harris-Foulkes estimate   =     -31.58881060 Ry
     estimated scf accuracy    <       1.19884453 Ry

     iteration # 26     ecut=    30.00 Ry     beta=0.70
     Davidson diagonalization with overlap
     ethr =  1.00E-02,  avg # of iterations =  1.0

     negative rho (up, down):  1.572E-03 0.000E+00

     total cpu time spent up to now is        1.7 secs

     total energy              =     -31.53025344 Ry
     Harris-Foulkes estimate   =     -31.54738182 Ry
     estimated scf accuracy    <       0.70767327 Ry

     iteration # 27     ecut=    30.00 Ry     beta=0.70
     Davidson diagonalization with overlap
     ethr =  8.85E-03,  avg # of iterations =  1.0

     negative rho (up, down):  3.317E-04 0.000E+00

     total cpu time spent up to now is        1.8 secs

     total energy              =     -31.45927909 Ry
     Harris-Foulkes estimate   =     -31.53043523 Ry
     estimated scf accuracy    <       0.68340656 Ry

     iteration # 28     ecut=    30.00 Ry     beta=0.70
     Davidson diagonalization with overlap
     ethr =  8.54E-03,  avg # of iterations =  1.0

     negative rho (up, down):  2.781E-04 0.000E+00

     total cpu time spent up to now is        1.8 secs

     total energy              =     -31.45357413 Ry
     Harris-Foulkes estimate   =     -31.50051519 Ry
     estimated scf accuracy    <       0.46448886 Ry

     iteration # 29     ecut=    30.00 Ry     beta=0.70
     Davidson diagonalization with overlap
     ethr =  5.81E-03,  avg # of iterations =  1.0

     negative rho (up, down):  2.892E-05 0.000E+00

     total cpu time spent up to now is        1.9 secs

     total energy              =     -31.48994637 Ry
     Harris-Foulkes estimate   =     -31.51093726 Ry
     estimated scf accuracy    <       0.65775912 Ry

     iteration # 30     ecut=    30.00 Ry     beta=0.70
     Davidson diagonalization with overlap
     ethr =  5.81E-03,  avg # of iterations =  1.0

     negative rho (up, down):  9.346E-05 0.000E+00

     total cpu time spent up to now is        1.9 secs

     total energy              =     -31.48324704 Ry
     Harris-Foulkes estimate   =     -31.49385872 Ry
     estimated scf accuracy    <       0.19669487 Ry

     iteration # 31     ecut=    30.00 Ry     beta=0.70
     Davidson diagonalization with overlap
     ethr =  2.46E-03,  avg # of iterations =  1.0

     negative rho (up, down):  1.448E-04 0.000E+00

     total cpu time spent up to now is        1.9 secs

     total energy              =     -31.48345358 Ry
     Harris-Foulkes estimate   =     -31.49123011 Ry
     estimated scf accuracy    <       0.11526815 Ry

     iteration # 32     ecut=    30.00 Ry     beta=0.70
     Davidson diagonalization with overlap
     ethr =  1.44E-03,  avg # of iterations =  1.0

     negative rho (up, down):  6.784E-06 0.000E+00

     total cpu time spent up to now is        2.0 secs

     total energy              =     -31.49127603 Ry
     Harris-Foulkes estimate   =     -31.49506876 Ry
     estimated scf accuracy    <       0.32425947 Ry

     iteration # 33     ecut=    30.00 Ry     beta=0.70
     Davidson diagonalization with overlap
     ethr =  1.44E-03,  avg # of iterations =  1.0

     negative rho (up, down):  1.653E-05 0.000E+00

     total cpu time spent up to now is        2.0 secs

     total energy              =     -31.49065718 Ry
     Harris-Foulkes estimate   =     -31.49202134 Ry
     estimated scf accuracy    <       0.12309560 Ry

     iteration # 34     ecut=    30.00 Ry     beta=0.70
     Davidson diagonalization with overlap
     ethr =  1.44E-03,  avg # of iterations =  1.0

     total cpu time spent up to now is        2.1 secs

     total energy              =     -31.48903923 Ry
     Harris-Foulkes estimate   =     -31.49088972 Ry
     estimated scf accuracy    <       0.06512738 Ry

     iteration # 35     ecut=    30.00 Ry     beta=0.70
     Davidson diagonalization with overlap
     ethr =  8.14E-04,  avg # of iterations =  1.0

     total cpu time spent up to now is        2.1 secs

     total energy              =     -31.48996520 Ry
     Harris-Foulkes estimate   =     -31.48996922 Ry
     estimated scf accuracy    <       0.00007975 Ry

     iteration # 36     ecut=    30.00 Ry     beta=0.70
     Davidson diagonalization with overlap
     ethr =  9.97E-07,  avg # of iterations = 19.0

     total cpu time spent up to now is        2.2 secs

     total energy              =     -31.48996647 Ry
     Harris-Foulkes estimate   =     -31.48996934 Ry
     estimated scf accuracy    <       0.00008078 Ry

     iteration # 37     ecut=    30.00 Ry     beta=0.70
     Davidson diagonalization with overlap
     ethr =  9.97E-07,  avg # of iterations =  1.0

     total cpu time spent up to now is        2.2 secs

     total energy              =     -31.48996858 Ry
     Harris-Foulkes estimate   =     -31.48996873 Ry
     estimated scf accuracy    <       0.00002092 Ry

     iteration # 38     ecut=    30.00 Ry     beta=0.70
     Davidson diagonalization with overlap
     ethr =  2.62E-07,  avg # of iterations =  1.0

     total cpu time spent up to now is        2.2 secs

     total energy              =     -31.48996855 Ry
     Harris-Foulkes estimate   =     -31.48996863 Ry
     estimated scf accuracy    <       0.00001077 Ry

     iteration # 39     ecut=    30.00 Ry     beta=0.70
     Davidson diagonalization with overlap
     ethr =  1.35E-07,  avg # of iterations =  1.0

     total cpu time spent up to now is        2.3 secs

     total energy              =     -31.48996853 Ry
     Harris-Foulkes estimate   =     -31.48996860 Ry
     estimated scf accuracy    <       0.00000196 Ry

     iteration # 40     ecut=    30.00 Ry     beta=0.70
     Davidson diagonalization with overlap
     ethr =  2.45E-08,  avg # of iterations =  1.0

     total cpu time spent up to now is        2.3 secs

     total energy              =     -31.48996858 Ry
     Harris-Foulkes estimate   =     -31.48996855 Ry
     estimated scf accuracy    <       0.00000023 Ry

     iteration # 41     ecut=    30.00 Ry     beta=0.70
     Davidson diagonalization with overlap
     ethr =  2.85E-09,  avg # of iterations =  1.0

     total cpu time spent up to now is        2.4 secs

     total energy              =     -31.48996857 Ry
     Harris-Foulkes estimate   =     -31.48996858 Ry
     estimated scf accuracy    <       0.00000008 Ry

     iteration # 42     ecut=    30.00 Ry     beta=0.70
     Davidson diagonalization with overlap
     ethr =  1.00E-09,  avg # of iterations =  1.0

     total cpu time spent up to now is        2.4 secs

     End of self-consistent calculation

          k = 0.0000 0.0000 0.0000 ( 22119 PWs)   bands (ev):

   -23.6269  -7.0336  -7.0334  -7.0330  -6.9406  -6.9172  -0.2466   0.5771

     the Fermi energy is    -6.8989 ev

!    total energy              =     -31.48996858 Ry
     Harris-Foulkes estimate   =     -31.48996857 Ry
     estimated scf accuracy    <          1.2E-10 Ry

     The total energy is the sum of the following terms:

     one-electron contribution =     -39.13037618 Ry
     hartree contribution      =      20.83028709 Ry
     xc contribution           =      -7.05984273 Ry
     ewald contribution        =      -6.09630780 Ry
     smearing contrib. (-TS)   =      -0.03372895 Ry

     convergence has been achieved in  42 iterations

     Writing output data file pwscf.save
 
     init_run     :      0.09s CPU      0.12s WALL (       1 calls)
     electrons    :      1.39s CPU      2.26s WALL (       1 calls)

     Called by init_run:
     wfcinit      :      0.01s CPU      0.03s WALL (       1 calls)
     potinit      :      0.02s CPU      0.03s WALL (       1 calls)

     Called by electrons:
     c_bands      :      0.50s CPU      0.73s WALL (      42 calls)
     sum_band     :      0.11s CPU      0.13s WALL (      42 calls)
     v_of_rho     :      0.33s CPU      0.37s WALL (      43 calls)
     mix_rho      :      0.40s CPU      0.74s WALL (      42 calls)

     Called by c_bands:
     init_us_2    :      0.00s CPU      0.00s WALL (      85 calls)
     cegterg      :      0.49s CPU      0.51s WALL (      42 calls)

     Called by sum_band:

     Called by *egterg:
     h_psi        :      0.42s CPU      0.45s WALL (     154 calls)
     g_psi        :      0.00s CPU      0.00s WALL (     111 calls)
     cdiaghg      :      0.03s CPU      0.03s WALL (     153 calls)

     Called by h_psi:
     h_psi:pot    :      0.42s CPU      0.44s WALL (     154 calls)
     h_psi:calbec :      0.00s CPU      0.01s WALL (     154 calls)
     vloc_psi     :      0.41s CPU      0.43s WALL (     154 calls)
     add_vuspsi   :      0.00s CPU      0.00s WALL (     154 calls)

     General routines
     calbec       :      0.00s CPU      0.01s WALL (     154 calls)
     fft          :      0.23s CPU      0.26s WALL (     472 calls)
     fftw         :      0.44s CPU      0.47s WALL (    2122 calls)
     davcio       :      0.04s CPU      0.27s WALL (     748 calls)
 
     Parallel routines
     fft_scatter  :      0.28s CPU      0.32s WALL (    2594 calls)
 
     PWSCF        :     1.59s CPU         2.71s WALL

 
   This run was terminated on:   0:58:57   7Feb2018            

=------------------------------------------------------------------------------=
   JOB DONE.
=------------------------------------------------------------------------------=
