
     Program PWSCF v.6.0 (svn rev. 13079) starts on  7Feb2018 at  1: 0:29 

     This program is part of the open-source Quantum ESPRESSO suite
     for quantum simulation of materials; please cite
         "P. Giannozzi et al., J. Phys.:Condens. Matter 21 395502 (2009);
          URL http://www.quantum-espresso.org", 
     in publications or presentations arising from this work. More details at
     http://www.quantum-espresso.org/quote

     Parallel version (MPI), running on    28 processors
     R & G space division:  proc/nbgrp/npool/nimage =      28
     Reading input from inputs/rand-water-1/9235.in
Warning: card &IONS ignored
Warning: card     POT_EXTRAPOLATION='SECOND-ORDER' ignored
Warning: card     WFC_EXTRAPOLATION='SECOND-ORDER' ignored
Warning: card     ION_TEMPERATURE = 'ANDERSEN' ignored
Warning: card     TEMPW = 1000 ignored
Warning: card / ignored

     Current dimensions of program PWSCF are:
     Max number of different atomic species (ntypx) = 10
     Max number of k-points (npk) =  40000
     Max angular momentum in pseudopotentials (lmaxx) =  3

     Subspace diagonalization in iterative solution of the eigenvalue problem:
     a serial algorithm will be used

 
     Parallelization info
     --------------------
     sticks:   dense  smooth     PW     G-vecs:    dense   smooth      PW
     Min         136     136     33                 6338     6338     787
     Max         137     137     34                 6341     6341     792
     Sum        3809    3809    949               177509   177509   22119
 


     bravais-lattice index     =            1
     lattice parameter (alat)  =      20.0000  a.u.
     unit-cell volume          =    8000.0000 (a.u.)^3
     number of atoms/cell      =            3
     number of atomic types    =            2
     number of electrons       =         8.00
     number of Kohn-Sham states=            8
     kinetic-energy cutoff     =      30.0000  Ry
     charge density cutoff     =     120.0000  Ry
     convergence threshold     =      1.0E-08
     mixing beta               =       0.7000
     number of iterations used =            8  plain     mixing
     Exchange-correlation      = BLYP ( 1  3  1  3 0 0)

     celldm(1)=  20.000000  celldm(2)=   0.000000  celldm(3)=   0.000000
     celldm(4)=   0.000000  celldm(5)=   0.000000  celldm(6)=   0.000000

     crystal axes: (cart. coord. in units of alat)
               a(1) = (   1.000000   0.000000   0.000000 )  
               a(2) = (   0.000000   1.000000   0.000000 )  
               a(3) = (   0.000000   0.000000   1.000000 )  

     reciprocal axes: (cart. coord. in units 2 pi/alat)
               b(1) = (  1.000000  0.000000  0.000000 )  
               b(2) = (  0.000000  1.000000  0.000000 )  
               b(3) = (  0.000000  0.000000  1.000000 )  


     PseudoPot. # 1 for  H read from file:
     ./H.blyp-hgh.UPF
     MD5 check sum: c576e69559cde411e611be972c763230
     Pseudo is Norm-conserving, Zval =  1.0
     Generated in analytical, separable form
     Using radial grid of  929 points,  0 beta functions with: 

     PseudoPot. # 2 for  O read from file:
     ./O.blyp-hgh.UPF
     MD5 check sum: d0b7156309aa9befef28faac7bc56342
     Pseudo is Norm-conserving, Zval =  6.0
     Generated in analytical, separable form
     Using radial grid of 1095 points,  1 beta functions with: 
                l(1) =   0

     atomic species   valence    mass     pseudopotential
        H              1.00     1.01000      H( 1.00)
        O              6.00    16.00000      O( 1.00)

     No symmetry found



   Cartesian axes

     site n.     atom                  positions (alat units)
         1           H   tau(   1) = (   0.1237559   0.3791769   0.7182865  )
         2           H   tau(   2) = (   0.3611318   0.7183683   0.2424056  )
         3           O   tau(   3) = (   0.8805309   0.8478779   0.0465192  )

     number of k points=     1  Marzari-Vanderbilt smearing, width (Ry)=  0.0250
                       cart. coord. in units 2pi/alat
        k(    1) = (   0.0000000   0.0000000   0.0000000), wk =   2.0000000

     Dense  grid:   177509 G-vectors     FFT dimensions: (  72,  72,  72)

     Estimated max dynamical RAM per process >       6.09Mb

     Estimated total allocated dynamical RAM >     170.64Mb

     Initial potential from superposition of free atoms
     Check: negative starting charge=   -0.350428

     starting charge    7.99998, renormalised to    8.00000

     negative rho (up, down):  3.504E-01 0.000E+00
     Starting wfc are    6 randomized atomic wfcs +    2 random wfc

     total cpu time spent up to now is        0.3 secs

     per-process dynamical memory:    18.8 Mb

     Self-consistent Calculation

     iteration #  1     ecut=    30.00 Ry     beta=0.70
     Davidson diagonalization with overlap
     ethr =  1.00E-02,  avg # of iterations =  9.0

     negative rho (up, down):  8.413E-02 0.000E+00

     total cpu time spent up to now is        0.4 secs

     total energy              =     -28.10436985 Ry
     Harris-Foulkes estimate   =     -32.07695721 Ry
     estimated scf accuracy    <       4.56245416 Ry

     iteration #  2     ecut=    30.00 Ry     beta=0.70
     Davidson diagonalization with overlap
     ethr =  1.00E-02,  avg # of iterations =  4.0

     negative rho (up, down):  6.161E-02 0.000E+00

     total cpu time spent up to now is        0.5 secs

     total energy              =     -32.64260734 Ry
     Harris-Foulkes estimate   =     -37.91062773 Ry
     estimated scf accuracy    <      12.84336061 Ry

     iteration #  3     ecut=    30.00 Ry     beta=0.70
     Davidson diagonalization with overlap
     ethr =  1.00E-02,  avg # of iterations =  2.0

     negative rho (up, down):  1.035E-01 0.000E+00

     total cpu time spent up to now is        0.6 secs

     total energy              =     -31.92683243 Ry
     Harris-Foulkes estimate   =     -32.98075515 Ry
     estimated scf accuracy    <       4.97056498 Ry

     iteration #  4     ecut=    30.00 Ry     beta=0.70
     Davidson diagonalization with overlap
     ethr =  1.00E-02,  avg # of iterations =  1.0

     negative rho (up, down):  5.540E-01 0.000E+00

     total cpu time spent up to now is        0.6 secs

     total energy              =     -29.83208367 Ry
     Harris-Foulkes estimate   =     -31.94242150 Ry
     estimated scf accuracy    <       3.42708653 Ry

     iteration #  5     ecut=    30.00 Ry     beta=0.70
     Davidson diagonalization with overlap
     ethr =  1.00E-02,  avg # of iterations =  7.0

     negative rho (up, down):  4.211E-01 0.000E+00

     total cpu time spent up to now is        0.7 secs

     total energy              =     -32.69958641 Ry
     Harris-Foulkes estimate   =     -35.02366792 Ry
     estimated scf accuracy    <      16.59016100 Ry

     iteration #  6     ecut=    30.00 Ry     beta=0.70
     Davidson diagonalization with overlap
     ethr =  1.00E-02,  avg # of iterations =  1.0

     negative rho (up, down):  4.609E-01 0.000E+00

     total cpu time spent up to now is        0.8 secs

     total energy              =     -33.72135232 Ry
     Harris-Foulkes estimate   =     -32.72144890 Ry
     estimated scf accuracy    <      13.48479927 Ry

     iteration #  7     ecut=    30.00 Ry     beta=0.70
     Davidson diagonalization with overlap
     ethr =  1.00E-02,  avg # of iterations =  1.0

     negative rho (up, down):  4.515E-01 0.000E+00

     total cpu time spent up to now is        0.9 secs

     total energy              =     -33.44017459 Ry
     Harris-Foulkes estimate   =     -33.72711606 Ry
     estimated scf accuracy    <      14.75568414 Ry

     iteration #  8     ecut=    30.00 Ry     beta=0.70
     Davidson diagonalization with overlap
     ethr =  1.00E-02,  avg # of iterations =  1.0

     negative rho (up, down):  4.748E-01 0.000E+00

     total cpu time spent up to now is        1.0 secs

     total energy              =     -30.46969523 Ry
     Harris-Foulkes estimate   =     -33.44157165 Ry
     estimated scf accuracy    <      14.38920100 Ry

     iteration #  9     ecut=    30.00 Ry     beta=0.70
     Davidson diagonalization with overlap
     ethr =  1.00E-02,  avg # of iterations =  1.0

     negative rho (up, down):  3.558E-01 0.000E+00

     total cpu time spent up to now is        1.0 secs

     total energy              =     -32.79383618 Ry
     Harris-Foulkes estimate   =     -30.50094430 Ry
     estimated scf accuracy    <      10.44752309 Ry

     iteration # 10     ecut=    30.00 Ry     beta=0.70
     Davidson diagonalization with overlap
     ethr =  1.00E-02,  avg # of iterations =  1.0

     negative rho (up, down):  2.471E-01 0.000E+00

     total cpu time spent up to now is        1.1 secs

     total energy              =     -29.78128155 Ry
     Harris-Foulkes estimate   =     -32.82634904 Ry
     estimated scf accuracy    <      13.54319357 Ry

     iteration # 11     ecut=    30.00 Ry     beta=0.70
     Davidson diagonalization with overlap
     ethr =  1.00E-02,  avg # of iterations =  5.0

     negative rho (up, down):  6.624E-02 0.000E+00

     total cpu time spent up to now is        1.2 secs

     total energy              =     -31.18940379 Ry
     Harris-Foulkes estimate   =     -31.73659256 Ry
     estimated scf accuracy    <       3.43076352 Ry

     iteration # 12     ecut=    30.00 Ry     beta=0.70
     Davidson diagonalization with overlap
     ethr =  1.00E-02,  avg # of iterations =  1.0

     negative rho (up, down):  4.335E-02 0.000E+00

     total cpu time spent up to now is        1.3 secs

     total energy              =     -31.80939878 Ry
     Harris-Foulkes estimate   =     -31.73940481 Ry
     estimated scf accuracy    <       4.13900824 Ry

     iteration # 13     ecut=    30.00 Ry     beta=0.70
     Davidson diagonalization with overlap
     ethr =  1.00E-02,  avg # of iterations =  1.0

     negative rho (up, down):  5.618E-02 0.000E+00

     total cpu time spent up to now is        1.3 secs

     total energy              =     -31.71153205 Ry
     Harris-Foulkes estimate   =     -31.81159116 Ry
     estimated scf accuracy    <       4.20720331 Ry

     iteration # 14     ecut=    30.00 Ry     beta=0.70
     Davidson diagonalization with overlap
     ethr =  1.00E-02,  avg # of iterations =  1.0

     negative rho (up, down):  5.808E-02 0.000E+00

     total cpu time spent up to now is        1.4 secs

     total energy              =     -31.92095696 Ry
     Harris-Foulkes estimate   =     -31.71217052 Ry
     estimated scf accuracy    <       4.11884558 Ry

     iteration # 15     ecut=    30.00 Ry     beta=0.70
     Davidson diagonalization with overlap
     ethr =  1.00E-02,  avg # of iterations =  1.0

     negative rho (up, down):  2.170E-01 0.000E+00

     total cpu time spent up to now is        1.5 secs

     total energy              =     -32.43598161 Ry
     Harris-Foulkes estimate   =     -31.92273049 Ry
     estimated scf accuracy    <       4.36594554 Ry

     iteration # 16     ecut=    30.00 Ry     beta=0.70
     Davidson diagonalization with overlap
     ethr =  1.00E-02,  avg # of iterations =  1.0

     negative rho (up, down):  2.526E-01 0.000E+00

     total cpu time spent up to now is        1.6 secs

     total energy              =     -32.70017107 Ry
     Harris-Foulkes estimate   =     -32.44799185 Ry
     estimated scf accuracy    <       5.22531684 Ry

     iteration # 17     ecut=    30.00 Ry     beta=0.70
     Davidson diagonalization with overlap
     ethr =  1.00E-02,  avg # of iterations =  1.0

     negative rho (up, down):  2.516E-01 0.000E+00

     total cpu time spent up to now is        1.6 secs

     total energy              =     -32.69667488 Ry
     Harris-Foulkes estimate   =     -32.70386789 Ry
     estimated scf accuracy    <       5.67693054 Ry

     iteration # 18     ecut=    30.00 Ry     beta=0.70
     Davidson diagonalization with overlap
     ethr =  1.00E-02,  avg # of iterations =  1.0

     negative rho (up, down):  4.237E-02 0.000E+00

     total cpu time spent up to now is        1.7 secs

     total energy              =     -31.36375083 Ry
     Harris-Foulkes estimate   =     -32.69756816 Ry
     estimated scf accuracy    <       5.69408172 Ry

     iteration # 19     ecut=    30.00 Ry     beta=0.70
     Davidson diagonalization with overlap
     ethr =  1.00E-02,  avg # of iterations =  2.0

     negative rho (up, down):  7.399E-03 0.000E+00

     total cpu time spent up to now is        1.8 secs

     total energy              =     -31.44551216 Ry
     Harris-Foulkes estimate   =     -31.48413707 Ry
     estimated scf accuracy    <       0.46197732 Ry

     iteration # 20     ecut=    30.00 Ry     beta=0.70
     Davidson diagonalization with overlap
     ethr =  5.77E-03,  avg # of iterations =  1.0

     negative rho (up, down):  9.098E-03 0.000E+00

     total cpu time spent up to now is        1.8 secs

     total energy              =     -31.33057009 Ry
     Harris-Foulkes estimate   =     -31.56343921 Ry
     estimated scf accuracy    <       4.03273235 Ry

     iteration # 21     ecut=    30.00 Ry     beta=0.70
     Davidson diagonalization with overlap
     ethr =  5.77E-03,  avg # of iterations =  1.0

     negative rho (up, down):  4.546E-03 0.000E+00

     total cpu time spent up to now is        1.9 secs

     total energy              =     -31.50245945 Ry
     Harris-Foulkes estimate   =     -31.55868641 Ry
     estimated scf accuracy    <       2.69824495 Ry

     iteration # 22     ecut=    30.00 Ry     beta=0.70
     Davidson diagonalization with overlap
     ethr =  5.77E-03,  avg # of iterations =  1.0

     negative rho (up, down):  2.527E-03 0.000E+00

     total cpu time spent up to now is        2.0 secs

     total energy              =     -31.48535342 Ry
     Harris-Foulkes estimate   =     -31.50702813 Ry
     estimated scf accuracy    <       1.43397165 Ry

     iteration # 23     ecut=    30.00 Ry     beta=0.70
     Davidson diagonalization with overlap
     ethr =  5.77E-03,  avg # of iterations =  1.0

     negative rho (up, down):  1.216E-03 0.000E+00

     total cpu time spent up to now is        2.0 secs

     total energy              =     -31.49732364 Ry
     Harris-Foulkes estimate   =     -31.50606068 Ry
     estimated scf accuracy    <       0.62944373 Ry

     iteration # 24     ecut=    30.00 Ry     beta=0.70
     Davidson diagonalization with overlap
     ethr =  5.77E-03,  avg # of iterations =  1.0

     negative rho (up, down):  5.178E-04 0.000E+00

     total cpu time spent up to now is        2.1 secs

     total energy              =     -31.47592564 Ry
     Harris-Foulkes estimate   =     -31.50158271 Ry
     estimated scf accuracy    <       0.71524309 Ry

     iteration # 25     ecut=    30.00 Ry     beta=0.70
     Davidson diagonalization with overlap
     ethr =  5.77E-03,  avg # of iterations =  1.0

     negative rho (up, down):  7.980E-04 0.000E+00

     total cpu time spent up to now is        2.2 secs

     total energy              =     -31.49547217 Ry
     Harris-Foulkes estimate   =     -31.49227771 Ry
     estimated scf accuracy    <       0.22355916 Ry

     iteration # 26     ecut=    30.00 Ry     beta=0.70
     Davidson diagonalization with overlap
     ethr =  2.79E-03,  avg # of iterations =  1.0

     negative rho (up, down):  6.249E-04 0.000E+00

     total cpu time spent up to now is        2.2 secs

     total energy              =     -31.47270534 Ry
     Harris-Foulkes estimate   =     -31.49648575 Ry
     estimated scf accuracy    <       0.59615453 Ry

     iteration # 27     ecut=    30.00 Ry     beta=0.70
     Davidson diagonalization with overlap
     ethr =  2.79E-03,  avg # of iterations =  1.0

     negative rho (up, down):  6.226E-04 0.000E+00

     total cpu time spent up to now is        2.3 secs

     total energy              =     -31.49780206 Ry
     Harris-Foulkes estimate   =     -31.50027663 Ry
     estimated scf accuracy    <       0.84826156 Ry

     iteration # 28     ecut=    30.00 Ry     beta=0.70
     Davidson diagonalization with overlap
     ethr =  2.79E-03,  avg # of iterations =  1.0

     negative rho (up, down):  8.748E-04 0.000E+00

     total cpu time spent up to now is        2.4 secs

     total energy              =     -31.49836479 Ry
     Harris-Foulkes estimate   =     -31.49802750 Ry
     estimated scf accuracy    <       0.63266160 Ry

     iteration # 29     ecut=    30.00 Ry     beta=0.70
     Davidson diagonalization with overlap
     ethr =  2.79E-03,  avg # of iterations =  1.0

     negative rho (up, down):  4.731E-04 0.000E+00

     total cpu time spent up to now is        2.5 secs

     total energy              =     -31.50079942 Ry
     Harris-Foulkes estimate   =     -31.49844289 Ry
     estimated scf accuracy    <       0.62595923 Ry

     iteration # 30     ecut=    30.00 Ry     beta=0.70
     Davidson diagonalization with overlap
     ethr =  2.79E-03,  avg # of iterations =  1.0

     negative rho (up, down):  6.684E-04 0.000E+00

     total cpu time spent up to now is        2.6 secs

     total energy              =     -31.49852699 Ry
     Harris-Foulkes estimate   =     -31.50146399 Ry
     estimated scf accuracy    <       0.95288191 Ry

     iteration # 31     ecut=    30.00 Ry     beta=0.70
     Davidson diagonalization with overlap
     ethr =  2.79E-03,  avg # of iterations =  1.0

     negative rho (up, down):  3.285E-05 0.000E+00

     total cpu time spent up to now is        2.6 secs

     total energy              =     -31.50670417 Ry
     Harris-Foulkes estimate   =     -31.49883860 Ry
     estimated scf accuracy    <       0.69171513 Ry

     iteration # 32     ecut=    30.00 Ry     beta=0.70
     Davidson diagonalization with overlap
     ethr =  2.79E-03,  avg # of iterations =  1.0

     negative rho (up, down):  3.478E-04 0.000E+00

     total cpu time spent up to now is        2.7 secs

     total energy              =     -31.47041952 Ry
     Harris-Foulkes estimate   =     -31.50810271 Ry
     estimated scf accuracy    <       1.18064828 Ry

     iteration # 33     ecut=    30.00 Ry     beta=0.70
     Davidson diagonalization with overlap
     ethr =  2.79E-03,  avg # of iterations =  1.0

     negative rho (up, down):  1.492E-04 0.000E+00

     total cpu time spent up to now is        2.8 secs

     total energy              =     -31.49048342 Ry
     Harris-Foulkes estimate   =     -31.49114640 Ry
     estimated scf accuracy    <       0.04751126 Ry

     iteration # 34     ecut=    30.00 Ry     beta=0.70
     Davidson diagonalization with overlap
     ethr =  5.94E-04,  avg # of iterations =  1.0

     negative rho (up, down):  5.821E-05 0.000E+00

     total cpu time spent up to now is        2.8 secs

     total energy              =     -31.49044238 Ry
     Harris-Foulkes estimate   =     -31.49066374 Ry
     estimated scf accuracy    <       0.01017822 Ry

     iteration # 35     ecut=    30.00 Ry     beta=0.70
     Davidson diagonalization with overlap
     ethr =  1.27E-04,  avg # of iterations =  1.0

     negative rho (up, down):  1.672E-05 0.000E+00

     total cpu time spent up to now is        2.9 secs

     total energy              =     -31.49051748 Ry
     Harris-Foulkes estimate   =     -31.49053110 Ry
     estimated scf accuracy    <       0.00053047 Ry

     iteration # 36     ecut=    30.00 Ry     beta=0.70
     Davidson diagonalization with overlap
     ethr =  6.63E-06,  avg # of iterations =  8.0

     negative rho (up, down):  2.270E-07 0.000E+00

     total cpu time spent up to now is        3.0 secs

     total energy              =     -31.49052509 Ry
     Harris-Foulkes estimate   =     -31.49052582 Ry
     estimated scf accuracy    <       0.00000135 Ry

     iteration # 37     ecut=    30.00 Ry     beta=0.70
     Davidson diagonalization with overlap
     ethr =  1.69E-08,  avg # of iterations =  3.0

     negative rho (up, down):  1.284E-08 0.000E+00

     total cpu time spent up to now is        3.1 secs

     total energy              =     -31.49052560 Ry
     Harris-Foulkes estimate   =     -31.49052686 Ry
     estimated scf accuracy    <       0.00011384 Ry

     iteration # 38     ecut=    30.00 Ry     beta=0.70
     Davidson diagonalization with overlap
     ethr =  1.69E-08,  avg # of iterations =  1.0

     total cpu time spent up to now is        3.1 secs

     total energy              =     -31.49052475 Ry
     Harris-Foulkes estimate   =     -31.49052577 Ry
     estimated scf accuracy    <       0.00005729 Ry

     iteration # 39     ecut=    30.00 Ry     beta=0.70
     Davidson diagonalization with overlap
     ethr =  1.69E-08,  avg # of iterations =  1.0

     total cpu time spent up to now is        3.2 secs

     total energy              =     -31.49052496 Ry
     Harris-Foulkes estimate   =     -31.49052521 Ry
     estimated scf accuracy    <       0.00000303 Ry

     iteration # 40     ecut=    30.00 Ry     beta=0.70
     Davidson diagonalization with overlap
     ethr =  1.69E-08,  avg # of iterations =  1.0

     total cpu time spent up to now is        3.3 secs

     total energy              =     -31.49052474 Ry
     Harris-Foulkes estimate   =     -31.49052498 Ry
     estimated scf accuracy    <       0.00000017 Ry

     iteration # 41     ecut=    30.00 Ry     beta=0.70
     Davidson diagonalization with overlap
     ethr =  2.12E-09,  avg # of iterations =  1.0

     total cpu time spent up to now is        3.3 secs

     End of self-consistent calculation

          k = 0.0000 0.0000 0.0000 ( 22119 PWs)   bands (ev):

   -23.5982  -7.0107  -7.0100  -7.0093  -6.9072  -6.9020  -0.2422   0.5966

     the Fermi energy is    -6.8752 ev

!    total energy              =     -31.49052461 Ry
     Harris-Foulkes estimate   =     -31.49052475 Ry
     estimated scf accuracy    <          8.5E-09 Ry

     The total energy is the sum of the following terms:

     one-electron contribution =     -39.31659538 Ry
     hartree contribution      =      20.93157170 Ry
     xc contribution           =      -7.06111878 Ry
     ewald contribution        =      -6.01065621 Ry
     smearing contrib. (-TS)   =      -0.03372594 Ry

     convergence has been achieved in  41 iterations

     Writing output data file pwscf.save
 
     init_run     :      0.08s CPU      0.14s WALL (       1 calls)
     electrons    :      1.98s CPU      3.10s WALL (       1 calls)

     Called by init_run:
     wfcinit      :      0.01s CPU      0.04s WALL (       1 calls)
     potinit      :      0.02s CPU      0.04s WALL (       1 calls)

     Called by electrons:
     c_bands      :      0.42s CPU      0.63s WALL (      41 calls)
     sum_band     :      0.12s CPU      0.12s WALL (      41 calls)
     v_of_rho     :      0.35s CPU      0.37s WALL (      42 calls)
     mix_rho      :      1.03s CPU      1.62s WALL (      41 calls)

     Called by c_bands:
     init_us_2    :      0.00s CPU      0.00s WALL (      83 calls)
     cegterg      :      0.40s CPU      0.42s WALL (      41 calls)

     Called by sum_band:

     Called by *egterg:
     h_psi        :      0.35s CPU      0.38s WALL (     115 calls)
     g_psi        :      0.00s CPU      0.00s WALL (      73 calls)
     cdiaghg      :      0.02s CPU      0.02s WALL (     114 calls)

     Called by h_psi:
     h_psi:pot    :      0.35s CPU      0.37s WALL (     115 calls)
     h_psi:calbec :      0.00s CPU      0.01s WALL (     115 calls)
     vloc_psi     :      0.34s CPU      0.37s WALL (     115 calls)
     add_vuspsi   :      0.00s CPU      0.00s WALL (     115 calls)

     General routines
     calbec       :      0.00s CPU      0.01s WALL (     115 calls)
     fft          :      0.22s CPU      0.24s WALL (     461 calls)
     fftw         :      0.38s CPU      0.41s WALL (    1836 calls)
     davcio       :      0.03s CPU      0.35s WALL (     728 calls)
 
     Parallel routines
     fft_scatter  :      0.25s CPU      0.29s WALL (    2297 calls)
 
     PWSCF        :     2.17s CPU         3.55s WALL

 
   This run was terminated on:   1: 0:33   7Feb2018            

=------------------------------------------------------------------------------=
   JOB DONE.
=------------------------------------------------------------------------------=
