
     Program PWSCF v.6.0 (svn rev. 13079) starts on 13Feb2018 at 13:35:46 

     This program is part of the open-source Quantum ESPRESSO suite
     for quantum simulation of materials; please cite
         "P. Giannozzi et al., J. Phys.:Condens. Matter 21 395502 (2009);
          URL http://www.quantum-espresso.org", 
     in publications or presentations arising from this work. More details at
     http://www.quantum-espresso.org/quote

     Parallel version (MPI), running on    28 processors
     R & G space division:  proc/nbgrp/npool/nimage =      28
     Reading input from inputs/MD-H2O-round1/119.in

     Current dimensions of program PWSCF are:
     Max number of different atomic species (ntypx) = 10
     Max number of k-points (npk) =  40000
     Max angular momentum in pseudopotentials (lmaxx) =  3

     Subspace diagonalization in iterative solution of the eigenvalue problem:
     a serial algorithm will be used

 
     Parallelization info
     --------------------
     sticks:   dense  smooth     PW     G-vecs:    dense   smooth      PW
     Min         136     136     33                 6338     6338     787
     Max         137     137     34                 6341     6341     792
     Sum        3809    3809    949               177509   177509   22119
 


     bravais-lattice index     =            1
     lattice parameter (alat)  =      20.0000  a.u.
     unit-cell volume          =    8000.0000 (a.u.)^3
     number of atoms/cell      =            3
     number of atomic types    =            2
     number of electrons       =         8.00
     number of Kohn-Sham states=            8
     kinetic-energy cutoff     =      30.0000  Ry
     charge density cutoff     =     120.0000  Ry
     convergence threshold     =      1.0E-08
     mixing beta               =       0.7000
     number of iterations used =            8  plain     mixing
     Exchange-correlation      = BLYP ( 1  3  1  3 0 0)
     nstep                     =         5000


     celldm(1)=  20.000000  celldm(2)=   0.000000  celldm(3)=   0.000000
     celldm(4)=   0.000000  celldm(5)=   0.000000  celldm(6)=   0.000000

     crystal axes: (cart. coord. in units of alat)
               a(1) = (   1.000000   0.000000   0.000000 )  
               a(2) = (   0.000000   1.000000   0.000000 )  
               a(3) = (   0.000000   0.000000   1.000000 )  

     reciprocal axes: (cart. coord. in units 2 pi/alat)
               b(1) = (  1.000000  0.000000  0.000000 )  
               b(2) = (  0.000000  1.000000  0.000000 )  
               b(3) = (  0.000000  0.000000  1.000000 )  


     PseudoPot. # 1 for  H read from file:
     ./H.blyp-hgh.UPF
     MD5 check sum: c576e69559cde411e611be972c763230
     Pseudo is Norm-conserving, Zval =  1.0
     Generated in analytical, separable form
     Using radial grid of  929 points,  0 beta functions with: 

     PseudoPot. # 2 for  O read from file:
     ./O.blyp-hgh.UPF
     MD5 check sum: d0b7156309aa9befef28faac7bc56342
     Pseudo is Norm-conserving, Zval =  6.0
     Generated in analytical, separable form
     Using radial grid of 1095 points,  1 beta functions with: 
                l(1) =   0

     atomic species   valence    mass     pseudopotential
        H              1.00     1.01000      H( 1.00)
        O              6.00    16.00000      O( 1.00)

     No symmetry found



   Cartesian axes

     site n.     atom                  positions (alat units)
         1           O   tau(   1) = (   0.8068731   0.2884768   0.1380492  )
         2           H   tau(   2) = (   0.7711794   0.2840095   0.2091081  )
         3           H   tau(   3) = (   0.3982852   0.9233064   0.6701397  )

     number of k points=     1  Marzari-Vanderbilt smearing, width (Ry)=  0.0250
                       cart. coord. in units 2pi/alat
        k(    1) = (   0.0000000   0.0000000   0.0000000), wk =   2.0000000

     Dense  grid:   177509 G-vectors     FFT dimensions: (  72,  72,  72)

     Estimated max dynamical RAM per process >       6.09Mb

     Estimated total allocated dynamical RAM >     170.64Mb

     Initial potential from superposition of free atoms
     Check: negative starting charge=   -0.352454

     starting charge    7.99998, renormalised to    8.00000

     negative rho (up, down):  3.525E-01 0.000E+00
     Starting wfc are    6 randomized atomic wfcs +    2 random wfc

     total cpu time spent up to now is        0.3 secs

     per-process dynamical memory:    18.8 Mb

     Self-consistent Calculation

     iteration #  1     ecut=    30.00 Ry     beta=0.70
     Davidson diagonalization with overlap
     ethr =  1.00E-02,  avg # of iterations =  7.0

     negative rho (up, down):  9.544E-02 0.000E+00

     total cpu time spent up to now is        0.4 secs

     total energy              =     -31.52966051 Ry
     Harris-Foulkes estimate   =     -32.06892915 Ry
     estimated scf accuracy    <       0.57173087 Ry

     iteration #  2     ecut=    30.00 Ry     beta=0.70
     Davidson diagonalization with overlap
     ethr =  7.15E-03,  avg # of iterations =  3.0

     negative rho (up, down):  7.367E-02 0.000E+00

     total cpu time spent up to now is        0.5 secs

     total energy              =     -31.73085628 Ry
     Harris-Foulkes estimate   =     -32.45979334 Ry
     estimated scf accuracy    <       2.42251390 Ry

     iteration #  3     ecut=    30.00 Ry     beta=0.70
     Davidson diagonalization with overlap
     ethr =  7.15E-03,  avg # of iterations =  2.0

     negative rho (up, down):  2.945E-02 0.000E+00

     total cpu time spent up to now is        0.5 secs

     total energy              =     -31.79277696 Ry
     Harris-Foulkes estimate   =     -31.78133156 Ry
     estimated scf accuracy    <       0.07200369 Ry

     iteration #  4     ecut=    30.00 Ry     beta=0.70
     Davidson diagonalization with overlap
     ethr =  9.00E-04,  avg # of iterations =  3.0

     negative rho (up, down):  5.707E-03 0.000E+00

     total cpu time spent up to now is        0.6 secs

     total energy              =     -31.61786665 Ry
     Harris-Foulkes estimate   =     -31.82797523 Ry
     estimated scf accuracy    <       0.84084668 Ry

     iteration #  5     ecut=    30.00 Ry     beta=0.70
     Davidson diagonalization with overlap
     ethr =  9.00E-04,  avg # of iterations =  2.0

     negative rho (up, down):  1.285E-03 0.000E+00

     total cpu time spent up to now is        0.7 secs

     total energy              =     -31.91541375 Ry
     Harris-Foulkes estimate   =     -32.10725992 Ry
     estimated scf accuracy    <       1.67552456 Ry

     iteration #  6     ecut=    30.00 Ry     beta=0.70
     Davidson diagonalization with overlap
     ethr =  9.00E-04,  avg # of iterations =  1.0

     negative rho (up, down):  9.964E-04 0.000E+00

     total cpu time spent up to now is        0.7 secs

     total energy              =     -31.86456298 Ry
     Harris-Foulkes estimate   =     -31.91807570 Ry
     estimated scf accuracy    <       1.36475888 Ry

     iteration #  7     ecut=    30.00 Ry     beta=0.70
     Davidson diagonalization with overlap
     ethr =  9.00E-04,  avg # of iterations =  1.0

     negative rho (up, down):  8.426E-04 0.000E+00

     total cpu time spent up to now is        0.8 secs

     total energy              =     -31.71250904 Ry
     Harris-Foulkes estimate   =     -31.86169851 Ry
     estimated scf accuracy    <       1.62177038 Ry

     iteration #  8     ecut=    30.00 Ry     beta=0.70
     Davidson diagonalization with overlap
     ethr =  9.00E-04,  avg # of iterations =  1.0

     negative rho (up, down):  6.337E-06 0.000E+00

     total cpu time spent up to now is        0.8 secs

     total energy              =     -31.84113617 Ry
     Harris-Foulkes estimate   =     -31.89820459 Ry
     estimated scf accuracy    <       0.97691906 Ry

     iteration #  9     ecut=    30.00 Ry     beta=0.70
     Davidson diagonalization with overlap
     ethr =  9.00E-04,  avg # of iterations =  1.0

     negative rho (up, down):  1.063E-06 0.000E+00

     total cpu time spent up to now is        0.9 secs

     total energy              =     -31.80739879 Ry
     Harris-Foulkes estimate   =     -31.84339610 Ry
     estimated scf accuracy    <       0.52608322 Ry

     iteration # 10     ecut=    30.00 Ry     beta=0.70
     Davidson diagonalization with overlap
     ethr =  9.00E-04,  avg # of iterations =  1.0

     negative rho (up, down):  9.713E-08 0.000E+00

     total cpu time spent up to now is        0.9 secs

     total energy              =     -31.77363594 Ry
     Harris-Foulkes estimate   =     -31.84874286 Ry
     estimated scf accuracy    <       1.09569534 Ry

     iteration # 11     ecut=    30.00 Ry     beta=0.70
     Davidson diagonalization with overlap
     ethr =  9.00E-04,  avg # of iterations =  1.0

     negative rho (up, down):  3.600E-08 0.000E+00

     total cpu time spent up to now is        1.0 secs

     total energy              =     -31.83822950 Ry
     Harris-Foulkes estimate   =     -31.86297404 Ry
     estimated scf accuracy    <       0.89933285 Ry

     iteration # 12     ecut=    30.00 Ry     beta=0.70
     Davidson diagonalization with overlap
     ethr =  9.00E-04,  avg # of iterations =  1.0

     negative rho (up, down):  3.445E-08 0.000E+00

     total cpu time spent up to now is        1.0 secs

     total energy              =     -31.83863590 Ry
     Harris-Foulkes estimate   =     -31.84082794 Ry
     estimated scf accuracy    <       0.41470358 Ry

     iteration # 13     ecut=    30.00 Ry     beta=0.70
     Davidson diagonalization with overlap
     ethr =  9.00E-04,  avg # of iterations =  1.0

     total cpu time spent up to now is        1.1 secs

     total energy              =     -31.83619855 Ry
     Harris-Foulkes estimate   =     -31.83877828 Ry
     estimated scf accuracy    <       0.31112804 Ry

     iteration # 14     ecut=    30.00 Ry     beta=0.70
     Davidson diagonalization with overlap
     ethr =  9.00E-04,  avg # of iterations =  1.0

     total cpu time spent up to now is        1.1 secs

     total energy              =     -31.83026604 Ry
     Harris-Foulkes estimate   =     -31.83649727 Ry
     estimated scf accuracy    <       0.17890600 Ry

     iteration # 15     ecut=    30.00 Ry     beta=0.70
     Davidson diagonalization with overlap
     ethr =  9.00E-04,  avg # of iterations =  1.0

     total cpu time spent up to now is        1.1 secs

     total energy              =     -31.83390140 Ry
     Harris-Foulkes estimate   =     -31.83410122 Ry
     estimated scf accuracy    <       0.01565956 Ry

     iteration # 16     ecut=    30.00 Ry     beta=0.70
     Davidson diagonalization with overlap
     ethr =  1.96E-04,  avg # of iterations =  1.0

     total cpu time spent up to now is        1.2 secs

     total energy              =     -31.83376751 Ry
     Harris-Foulkes estimate   =     -31.83395326 Ry
     estimated scf accuracy    <       0.00364420 Ry

     iteration # 17     ecut=    30.00 Ry     beta=0.70
     Davidson diagonalization with overlap
     ethr =  4.56E-05,  avg # of iterations =  4.0

     total cpu time spent up to now is        1.2 secs

     total energy              =     -31.83397388 Ry
     Harris-Foulkes estimate   =     -31.83395938 Ry
     estimated scf accuracy    <       0.00401993 Ry

     iteration # 18     ecut=    30.00 Ry     beta=0.70
     Davidson diagonalization with overlap
     ethr =  4.56E-05,  avg # of iterations =  1.0

     total cpu time spent up to now is        1.3 secs

     total energy              =     -31.83386678 Ry
     Harris-Foulkes estimate   =     -31.83397490 Ry
     estimated scf accuracy    <       0.00521686 Ry

     iteration # 19     ecut=    30.00 Ry     beta=0.70
     Davidson diagonalization with overlap
     ethr =  4.56E-05,  avg # of iterations =  1.0

     total cpu time spent up to now is        1.3 secs

     total energy              =     -31.83390773 Ry
     Harris-Foulkes estimate   =     -31.83391048 Ry
     estimated scf accuracy    <       0.00017612 Ry

     iteration # 20     ecut=    30.00 Ry     beta=0.70
     Davidson diagonalization with overlap
     ethr =  2.20E-06,  avg # of iterations =  8.0

     total cpu time spent up to now is        1.4 secs

     total energy              =     -31.83390794 Ry
     Harris-Foulkes estimate   =     -31.83390861 Ry
     estimated scf accuracy    <       0.00002412 Ry

     iteration # 21     ecut=    30.00 Ry     beta=0.70
     Davidson diagonalization with overlap
     ethr =  3.01E-07,  avg # of iterations =  1.0

     total cpu time spent up to now is        1.4 secs

     total energy              =     -31.83390869 Ry
     Harris-Foulkes estimate   =     -31.83390837 Ry
     estimated scf accuracy    <       0.00000095 Ry

     iteration # 22     ecut=    30.00 Ry     beta=0.70
     Davidson diagonalization with overlap
     ethr =  1.19E-08,  avg # of iterations =  1.0

     total cpu time spent up to now is        1.5 secs

     total energy              =     -31.83390870 Ry
     Harris-Foulkes estimate   =     -31.83390870 Ry
     estimated scf accuracy    <       0.00000013 Ry

     iteration # 23     ecut=    30.00 Ry     beta=0.70
     Davidson diagonalization with overlap
     ethr =  1.57E-09,  avg # of iterations =  1.0

     total cpu time spent up to now is        1.5 secs

     total energy              =     -31.83390868 Ry
     Harris-Foulkes estimate   =     -31.83390871 Ry
     estimated scf accuracy    <       0.00000013 Ry

     iteration # 24     ecut=    30.00 Ry     beta=0.70
     Davidson diagonalization with overlap
     ethr =  1.57E-09,  avg # of iterations =  1.0

     total cpu time spent up to now is        1.6 secs

     total energy              =     -31.83390862 Ry
     Harris-Foulkes estimate   =     -31.83390868 Ry
     estimated scf accuracy    <       0.00000003 Ry

     iteration # 25     ecut=    30.00 Ry     beta=0.70
     Davidson diagonalization with overlap
     ethr =  3.84E-10,  avg # of iterations =  1.0

     total cpu time spent up to now is        1.6 secs

     End of self-consistent calculation

          k = 0.0000 0.0000 0.0000 ( 22119 PWs)   bands (ev):

   -26.2207 -11.0837  -7.1638  -7.1631  -7.0200  -0.4432   0.5489   0.8146

     the Fermi energy is    -6.9917 ev

!    total energy              =     -31.83390865 Ry
     Harris-Foulkes estimate   =     -31.83390862 Ry
     estimated scf accuracy    <          2.4E-09 Ry

     convergence has been achieved in  25 iterations

     Forces acting on atoms (Ry/au):

     atom    1 type  2   force =     0.28830076    0.03415528   -0.57336066
     atom    2 type  1   force =    -0.28800145   -0.03517478    0.57344553
     atom    3 type  1   force =    -0.00029931    0.00101951   -0.00008488

     Total force =     0.908873     Total SCF correction =     0.000056

     Molecular Dynamics Calculation

     Starting temperature  =  1000.00 K

     temperature is controlled by Andersen thermostat
     Collision frequency = 1.0000/timestep
     mass H                =     1.01
     mass O                =    16.00
     Time step             =   100.00 a.u.,  4.8378 femto-seconds

     Entering Dynamics:    iteration =     1
                           time      =   0.0048 pico-seconds


     Andersen thermostat:    3 collisions

ATOMIC_POSITIONS (bohr)
O       16.223800287   5.773815250   2.542668908
H       13.860846328   5.669591877   7.199488409
H        8.160711438  18.408920181  13.843926501


     kinetic energy (Ekin) =     0.01337019 Ry
     temperature           =   703.66124461 K 
     Ekin + Etot (const)   =   -31.82053845 Ry

     Linear momentum :   -0.0000000000   -0.0000000000   -0.0000000000

     Writing output data file pwscf.save
     Check: negative starting charge=   -0.352454
     NEW-OLD atomic charge density approx. for the potential
     Check: negative starting charge=   -0.345002

     negative rho (up, down):  4.608E-01 0.000E+00

     total cpu time spent up to now is        2.1 secs

     per-process dynamical memory:    20.4 Mb

     Self-consistent Calculation

     iteration #  1     ecut=    30.00 Ry     beta=0.70
     Davidson diagonalization with overlap
     ethr =  1.00E-06,  avg # of iterations = 17.0

     negative rho (up, down):  1.174E-01 0.000E+00

     total cpu time spent up to now is        2.3 secs

     total energy              =      14.28732154 Ry
     Harris-Foulkes estimate   =     -43.38747984 Ry
     estimated scf accuracy    <      21.63610248 Ry

     iteration #  2     ecut=    30.00 Ry     beta=0.70
     Davidson diagonalization with overlap
     ethr =  1.00E-02,  avg # of iterations =  4.0

     negative rho (up, down):  7.379E-02 0.000E+00

     total cpu time spent up to now is        2.4 secs

     total energy              =     -32.79166584 Ry
     Harris-Foulkes estimate   =     -43.23783222 Ry
     estimated scf accuracy    <      20.32616594 Ry

     iteration #  3     ecut=    30.00 Ry     beta=0.70
     Davidson diagonalization with overlap
     ethr =  1.00E-02,  avg # of iterations =  3.0

     negative rho (up, down):  2.213E-02 0.000E+00

     total cpu time spent up to now is        2.4 secs

     total energy              =     -32.12083728 Ry
     Harris-Foulkes estimate   =     -36.28984899 Ry
     estimated scf accuracy    <      18.21570667 Ry

     iteration #  4     ecut=    30.00 Ry     beta=0.70
     Davidson diagonalization with overlap
     ethr =  1.00E-02,  avg # of iterations =  2.0

     negative rho (up, down):  2.245E-02 0.000E+00

     total cpu time spent up to now is        2.5 secs

     total energy              =     -34.39008436 Ry
     Harris-Foulkes estimate   =     -34.53521467 Ry
     estimated scf accuracy    <       5.71953921 Ry

     iteration #  5     ecut=    30.00 Ry     beta=0.70
     Davidson diagonalization with overlap
     ethr =  1.00E-02,  avg # of iterations =  3.0

     negative rho (up, down):  2.281E-02 0.000E+00

     total cpu time spent up to now is        2.5 secs

     total energy              =     -34.19573800 Ry
     Harris-Foulkes estimate   =     -34.38460716 Ry
     estimated scf accuracy    <       5.49959742 Ry

     iteration #  6     ecut=    30.00 Ry     beta=0.70
     Davidson diagonalization with overlap
     ethr =  1.00E-02,  avg # of iterations =  1.0

     negative rho (up, down):  4.194E-02 0.000E+00

     total cpu time spent up to now is        2.6 secs

     total energy              =     -32.47093863 Ry
     Harris-Foulkes estimate   =     -34.19439050 Ry
     estimated scf accuracy    <       5.24912223 Ry

     iteration #  7     ecut=    30.00 Ry     beta=0.70
     Davidson diagonalization with overlap
     ethr =  1.00E-02,  avg # of iterations =  1.0

     negative rho (up, down):  1.535E-02 0.000E+00

     total cpu time spent up to now is        2.6 secs

     total energy              =     -32.07226191 Ry
     Harris-Foulkes estimate   =     -33.02056455 Ry
     estimated scf accuracy    <       5.30151618 Ry

     iteration #  8     ecut=    30.00 Ry     beta=0.70
     Davidson diagonalization with overlap
     ethr =  1.00E-02,  avg # of iterations =  1.0

     negative rho (up, down):  2.304E-02 0.000E+00

     total cpu time spent up to now is        2.7 secs

     total energy              =     -32.23933740 Ry
     Harris-Foulkes estimate   =     -32.26538268 Ry
     estimated scf accuracy    <       2.73129070 Ry

     iteration #  9     ecut=    30.00 Ry     beta=0.70
     Davidson diagonalization with overlap
     ethr =  1.00E-02,  avg # of iterations =  1.0

     negative rho (up, down):  1.180E-01 0.000E+00

     total cpu time spent up to now is        2.7 secs

     total energy              =     -31.96135088 Ry
     Harris-Foulkes estimate   =     -32.24047341 Ry
     estimated scf accuracy    <       2.55391647 Ry

     iteration # 10     ecut=    30.00 Ry     beta=0.70
     Davidson diagonalization with overlap
     ethr =  1.00E-02,  avg # of iterations =  1.0

     negative rho (up, down):  8.367E-01 0.000E+00

     total cpu time spent up to now is        2.8 secs

     total energy              =     -45.76797515 Ry
     Harris-Foulkes estimate   =     -32.30998113 Ry
     estimated scf accuracy    <       4.29389365 Ry

     iteration # 11     ecut=    30.00 Ry     beta=0.70
     Davidson diagonalization with overlap
     ethr =  1.00E-02,  avg # of iterations =  7.0

     negative rho (up, down):  6.820E-01 0.000E+00

     total cpu time spent up to now is        2.8 secs

     total energy              =     -36.98833868 Ry
     Harris-Foulkes estimate   =     -73.65736717 Ry
     estimated scf accuracy    <      23.26332978 Ry

     iteration # 12     ecut=    30.00 Ry     beta=0.70
     Davidson diagonalization with overlap
     ethr =  1.00E-02,  avg # of iterations =  4.0

     negative rho (up, down):  9.363E-01 0.000E+00

     total cpu time spent up to now is        2.9 secs

     total energy              =     -31.44355097 Ry
     Harris-Foulkes estimate   =     -55.67604618 Ry
     estimated scf accuracy    <      12.47202761 Ry

     iteration # 13     ecut=    30.00 Ry     beta=0.70
     Davidson diagonalization with overlap
     ethr =  1.00E-02,  avg # of iterations =  7.0

     negative rho (up, down):  6.252E-02 0.000E+00

     total cpu time spent up to now is        3.0 secs

     total energy              =     -16.90771245 Ry
     Harris-Foulkes estimate   =     -63.09020837 Ry
     estimated scf accuracy    <      29.79015455 Ry

     iteration # 14     ecut=    30.00 Ry     beta=0.70
     Davidson diagonalization with overlap
     ethr =  1.00E-02,  avg # of iterations =  4.0

     negative rho (up, down):  7.091E-02 0.000E+00

     total cpu time spent up to now is        3.0 secs

     total energy              =     -12.38196385 Ry
     Harris-Foulkes estimate   =     -59.07809284 Ry
     estimated scf accuracy    <       7.26105870 Ry

     iteration # 15     ecut=    30.00 Ry     beta=0.70
     Davidson diagonalization with overlap
     ethr =  1.00E-02,  avg # of iterations =  5.0

     negative rho (up, down):  2.492E-03 0.000E+00

     total cpu time spent up to now is        3.1 secs

     total energy              =     -31.80129055 Ry
     Harris-Foulkes estimate   =     -32.24081832 Ry
     estimated scf accuracy    <       2.41407959 Ry

     iteration # 16     ecut=    30.00 Ry     beta=0.70
     Davidson diagonalization with overlap
     ethr =  1.00E-02,  avg # of iterations =  3.0

     negative rho (up, down):  1.316E-02 0.000E+00

     total cpu time spent up to now is        3.2 secs

     total energy              =     -10.32230730 Ry
     Harris-Foulkes estimate   =     -31.82817584 Ry
     estimated scf accuracy    <       1.59373077 Ry

     iteration # 17     ecut=    30.00 Ry     beta=0.70
     Davidson diagonalization with overlap
     ethr =  1.00E-02,  avg # of iterations =  5.0

     negative rho (up, down):  2.470E-03 0.000E+00

     total cpu time spent up to now is        3.2 secs

     total energy              =      -5.34610272 Ry
     Harris-Foulkes estimate   =     -92.61566937 Ry
     estimated scf accuracy    <       8.67615905 Ry

     iteration # 18     ecut=    30.00 Ry     beta=0.70
     Davidson diagonalization with overlap
     ethr =  1.00E-02,  avg # of iterations =  4.0

     negative rho (up, down):  4.552E-03 0.000E+00

     total cpu time spent up to now is        3.3 secs

     total energy              =     -30.61822849 Ry
     Harris-Foulkes estimate   =     -32.09881760 Ry
     estimated scf accuracy    <       1.71351654 Ry

     iteration # 19     ecut=    30.00 Ry     beta=0.70
     Davidson diagonalization with overlap
     ethr =  1.00E-02,  avg # of iterations =  3.0

     negative rho (up, down):  4.811E-02 0.000E+00

     total cpu time spent up to now is        3.4 secs

     total energy              =     -53.44160908 Ry
     Harris-Foulkes estimate   =     -32.39206664 Ry
     estimated scf accuracy    <       3.54035613 Ry

     iteration # 20     ecut=    30.00 Ry     beta=0.70
     Davidson diagonalization with overlap
     ethr =  1.00E-02,  avg # of iterations =  5.0

     negative rho (up, down):  5.047E-02 0.000E+00

     total cpu time spent up to now is        3.4 secs

     total energy              =     -51.33995448 Ry
     Harris-Foulkes estimate   =    -138.57540555 Ry
     estimated scf accuracy    <      13.40969333 Ry

     iteration # 21     ecut=    30.00 Ry     beta=0.70
     Davidson diagonalization with overlap
     ethr =  1.00E-02,  avg # of iterations =  7.0

     negative rho (up, down):  1.402E-01 0.000E+00

     total cpu time spent up to now is        3.5 secs

     total energy              =     -16.30187693 Ry
     Harris-Foulkes estimate   =    -400.55865444 Ry
     estimated scf accuracy    <      35.08420975 Ry

     iteration # 22     ecut=    30.00 Ry     beta=0.70
     Davidson diagonalization with overlap
     ethr =  1.00E-02,  avg # of iterations =  5.0

     negative rho (up, down):  2.172E-01 0.000E+00

     total cpu time spent up to now is        3.6 secs

     total energy              =     -95.71090723 Ry
     Harris-Foulkes estimate   =    -141.14579281 Ry
     estimated scf accuracy    <      67.02809686 Ry

     iteration # 23     ecut=    30.00 Ry     beta=0.70
     Davidson diagonalization with overlap
     ethr =  1.00E-02,  avg # of iterations =  8.0

     negative rho (up, down):  2.181E-01 0.000E+00

     total cpu time spent up to now is        3.6 secs

     total energy              =     -20.08454967 Ry
     Harris-Foulkes estimate   =    -506.96445878 Ry
     estimated scf accuracy    <      70.16942107 Ry

     iteration # 24     ecut=    30.00 Ry     beta=0.70
     Davidson diagonalization with overlap
     ethr =  1.00E-02,  avg # of iterations =  7.0

     negative rho (up, down):  2.041E-01 0.000E+00

     total cpu time spent up to now is        3.7 secs

     total energy              =      33.87058064 Ry
     Harris-Foulkes estimate   =    -350.79678829 Ry
     estimated scf accuracy    <      70.98242088 Ry

     iteration # 25     ecut=    30.00 Ry     beta=0.70
     Davidson diagonalization with overlap
     ethr =  1.00E-02,  avg # of iterations =  7.0

     negative rho (up, down):  3.532E-01 0.000E+00

     total cpu time spent up to now is        3.8 secs

     total energy              =    -280.98438159 Ry
     Harris-Foulkes estimate   =    -178.67681287 Ry
     estimated scf accuracy    <      65.19414602 Ry

     iteration # 26     ecut=    30.00 Ry     beta=0.70
     Davidson diagonalization with overlap
     ethr =  1.00E-02,  avg # of iterations =  5.0

     negative rho (up, down):  3.128E-01 0.000E+00

     total cpu time spent up to now is        3.9 secs

     total energy              =      34.05497144 Ry
     Harris-Foulkes estimate   =    -954.96933325 Ry
     estimated scf accuracy    <      63.17273415 Ry

     iteration # 27     ecut=    30.00 Ry     beta=0.70
     Davidson diagonalization with overlap
     ethr =  1.00E-02,  avg # of iterations =  6.0

     negative rho (up, down):  4.848E-01 0.000E+00

     total cpu time spent up to now is        4.0 secs

     total energy              =       8.87542847 Ry
     Harris-Foulkes estimate   =    -295.87252562 Ry
     estimated scf accuracy    <      71.33092105 Ry

     iteration # 28     ecut=    30.00 Ry     beta=0.70
     Davidson diagonalization with overlap
     ethr =  1.00E-02,  avg # of iterations =  6.0

     negative rho (up, down):  1.217E+00 0.000E+00

     total cpu time spent up to now is        4.1 secs

     total energy              =    -409.67420434 Ry
     Harris-Foulkes estimate   =   -9563.07440782 Ry
     estimated scf accuracy    <      70.93827880 Ry

     iteration # 29     ecut=    30.00 Ry     beta=0.70
     Davidson diagonalization with overlap
     ethr =  1.00E-02,  avg # of iterations =  8.0

     negative rho (up, down):  2.891E+00 0.000E+00

     total cpu time spent up to now is        4.2 secs

     total energy              =      14.63260319 Ry
     Harris-Foulkes estimate   =   -1439.46104414 Ry
     estimated scf accuracy    <      54.88047301 Ry

     iteration # 30     ecut=    30.00 Ry     beta=0.70
     Davidson diagonalization with overlap
     ethr =  1.00E-02,  avg # of iterations =  8.0

     negative rho (up, down):  1.442E+00 0.000E+00

     total cpu time spent up to now is        4.3 secs

     total energy              =      85.40299988 Ry
     Harris-Foulkes estimate   =   -6801.46658420 Ry
     estimated scf accuracy    <      39.52030347 Ry

     iteration # 31     ecut=    30.00 Ry     beta=0.70
     Davidson diagonalization with overlap
     ethr =  1.00E-02,  avg # of iterations =  5.0

     negative rho (up, down):  1.345E+00 0.000E+00

     total cpu time spent up to now is        4.3 secs

     total energy              =      43.35082914 Ry
     Harris-Foulkes estimate   =   -6494.00906850 Ry
     estimated scf accuracy    <      21.13908800 Ry

     iteration # 32     ecut=    30.00 Ry     beta=0.70
     Davidson diagonalization with overlap
     ethr =  1.00E-02,  avg # of iterations =  7.0

     negative rho (up, down):  1.375E+00 0.000E+00

     total cpu time spent up to now is        4.4 secs

     total energy              =     -45.81536705 Ry
     Harris-Foulkes estimate   =   -3392.66298629 Ry
     estimated scf accuracy    <      25.45563598 Ry

     iteration # 33     ecut=    30.00 Ry     beta=0.70
     Davidson diagonalization with overlap
     ethr =  1.00E-02,  avg # of iterations =  6.0

     negative rho (up, down):  1.179E+00 0.000E+00

     total cpu time spent up to now is        4.5 secs

     total energy              =     811.26749559 Ry
     Harris-Foulkes estimate   =   -2022.43929290 Ry
     estimated scf accuracy    <      14.07871906 Ry

     iteration # 34     ecut=    30.00 Ry     beta=0.70
     Davidson diagonalization with overlap
     ethr =  1.00E-02,  avg # of iterations =  7.0

     negative rho (up, down):  1.319E-01 0.000E+00

     total cpu time spent up to now is        4.6 secs

     total energy              =     135.84940165 Ry
     Harris-Foulkes estimate   =   -1138.24435574 Ry
     estimated scf accuracy    <      24.92167153 Ry

     iteration # 35     ecut=    30.00 Ry     beta=0.70
     Davidson diagonalization with overlap
     ethr =  1.00E-02,  avg # of iterations = 11.0

     negative rho (up, down):  2.833E-02 0.000E+00

     total cpu time spent up to now is        4.7 secs

     total energy              =      26.59601318 Ry
     Harris-Foulkes estimate   =    -236.45530304 Ry
     estimated scf accuracy    <      31.83796005 Ry

     iteration # 36     ecut=    30.00 Ry     beta=0.70
     Davidson diagonalization with overlap
     ethr =  1.00E-02,  avg # of iterations =  4.0

     negative rho (up, down):  1.313E-02 0.000E+00

     total cpu time spent up to now is        4.8 secs

     total energy              =      35.88966796 Ry
     Harris-Foulkes estimate   =   -1291.83442260 Ry
     estimated scf accuracy    <      21.30653523 Ry

     iteration # 37     ecut=    30.00 Ry     beta=0.70
     Davidson diagonalization with overlap
     ethr =  1.00E-02,  avg # of iterations =  9.0

     negative rho (up, down):  2.653E-03 0.000E+00

     total cpu time spent up to now is        4.9 secs

     total energy              =      23.53462240 Ry
     Harris-Foulkes estimate   =    -132.87412138 Ry
     estimated scf accuracy    <      18.18502378 Ry

     iteration # 38     ecut=    30.00 Ry     beta=0.70
     Davidson diagonalization with overlap
     ethr =  1.00E-02,  avg # of iterations =  5.0

     negative rho (up, down):  9.919E-03 0.000E+00

     total cpu time spent up to now is        4.9 secs

     total energy              =     -66.50716627 Ry
     Harris-Foulkes estimate   =     -69.25705323 Ry
     estimated scf accuracy    <      50.59071385 Ry

     iteration # 39     ecut=    30.00 Ry     beta=0.70
     Davidson diagonalization with overlap
     ethr =  1.00E-02,  avg # of iterations =  5.0

     negative rho (up, down):  3.895E-03 0.000E+00

     total cpu time spent up to now is        5.0 secs

     total energy              =      31.06146973 Ry
     Harris-Foulkes estimate   =    -307.13441828 Ry
     estimated scf accuracy    <      14.80001973 Ry

     iteration # 40     ecut=    30.00 Ry     beta=0.70
     Davidson diagonalization with overlap
     ethr =  1.00E-02,  avg # of iterations =  4.0

     negative rho (up, down):  1.737E-01 0.000E+00

     total cpu time spent up to now is        5.1 secs

     total energy              =    -391.16374645 Ry
     Harris-Foulkes estimate   =     -75.65653230 Ry
     estimated scf accuracy    <      58.53806860 Ry

     iteration # 41     ecut=    30.00 Ry     beta=0.70
     Davidson diagonalization with overlap
     ethr =  1.00E-02,  avg # of iterations =  6.0

     negative rho (up, down):  2.071E-01 0.000E+00

     total cpu time spent up to now is        5.1 secs

     total energy              =    -452.62299137 Ry
     Harris-Foulkes estimate   =   -1444.73834564 Ry
     estimated scf accuracy    <      53.05012392 Ry

     iteration # 42     ecut=    30.00 Ry     beta=0.70
     Davidson diagonalization with overlap
     ethr =  1.00E-02,  avg # of iterations =  5.0

     negative rho (up, down):  3.403E-01 0.000E+00

     total cpu time spent up to now is        5.2 secs

     total energy              =     -12.91993885 Ry
     Harris-Foulkes estimate   =   -2892.21592952 Ry
     estimated scf accuracy    <      78.76433113 Ry

     iteration # 43     ecut=    30.00 Ry     beta=0.70
     Davidson diagonalization with overlap
     ethr =  1.00E-02,  avg # of iterations =  7.0

     negative rho (up, down):  3.790E-01 0.000E+00

     total cpu time spent up to now is        5.3 secs

     total energy              =      29.77535959 Ry
     Harris-Foulkes estimate   =    -548.76301263 Ry
     estimated scf accuracy    <      80.09649300 Ry

     iteration # 44     ecut=    30.00 Ry     beta=0.70
     Davidson diagonalization with overlap
     ethr =  1.00E-02,  avg # of iterations =  6.0

     negative rho (up, down):  3.443E-01 0.000E+00

     total cpu time spent up to now is        5.4 secs

     total energy              =      28.58681275 Ry
     Harris-Foulkes estimate   =    -299.62786453 Ry
     estimated scf accuracy    <      65.99820241 Ry

     iteration # 45     ecut=    30.00 Ry     beta=0.70
     Davidson diagonalization with overlap
     ethr =  1.00E-02,  avg # of iterations =  8.0

     negative rho (up, down):  5.699E-01 0.000E+00

     total cpu time spent up to now is        5.5 secs

     total energy              =    -122.16827937 Ry
     Harris-Foulkes estimate   =    -495.14721367 Ry
     estimated scf accuracy    <      63.75579097 Ry

     iteration # 46     ecut=    30.00 Ry     beta=0.70
     Davidson diagonalization with overlap
     ethr =  1.00E-02,  avg # of iterations =  8.0

     negative rho (up, down):  8.471E-01 0.000E+00

     total cpu time spent up to now is        5.6 secs

     total energy              =      -6.90433052 Ry
     Harris-Foulkes estimate   =    -826.82051273 Ry
     estimated scf accuracy    <      62.18128048 Ry

     iteration # 47     ecut=    30.00 Ry     beta=0.70
     Davidson diagonalization with overlap
     ethr =  1.00E-02,  avg # of iterations = 19.0

     negative rho (up, down):  5.625E-01 0.000E+00

     total cpu time spent up to now is        5.7 secs

     total energy              =      61.33483407 Ry
     Harris-Foulkes estimate   =    -332.11110988 Ry
     estimated scf accuracy    <      29.31216665 Ry

     iteration # 48     ecut=    30.00 Ry     beta=0.70
     Davidson diagonalization with overlap
     ethr =  1.00E-02,  avg # of iterations =  7.0

     negative rho (up, down):  7.857E-01 0.000E+00

     total cpu time spent up to now is        5.8 secs

     total energy              =      47.64548798 Ry
     Harris-Foulkes estimate   =   -1548.76459686 Ry
     estimated scf accuracy    <      33.87494751 Ry

     iteration # 49     ecut=    30.00 Ry     beta=0.70
     Davidson diagonalization with overlap
     ethr =  1.00E-02,  avg # of iterations =  8.0

     negative rho (up, down):  1.113E+00 0.000E+00

     total cpu time spent up to now is        5.9 secs

     total energy              =      46.64717039 Ry
     Harris-Foulkes estimate   =   -3636.24514064 Ry
     estimated scf accuracy    <      37.25955214 Ry

     iteration # 50     ecut=    30.00 Ry     beta=0.70
     Davidson diagonalization with overlap
     ethr =  1.00E-02,  avg # of iterations =  8.0

     negative rho (up, down):  6.710E-01 0.000E+00

     total cpu time spent up to now is        6.0 secs

     total energy              =      67.52402582 Ry
     Harris-Foulkes estimate   =    -669.71678179 Ry
     estimated scf accuracy    <      29.19843512 Ry

     iteration # 51     ecut=    30.00 Ry     beta=0.70
     Davidson diagonalization with overlap
     ethr =  1.00E-02,  avg # of iterations =  8.0

     negative rho (up, down):  3.322E-01 0.000E+00

     total cpu time spent up to now is        6.1 secs

     total energy              =      81.53325261 Ry
     Harris-Foulkes estimate   =   -3763.83434567 Ry
     estimated scf accuracy    <      17.62695524 Ry

     iteration # 52     ecut=    30.00 Ry     beta=0.70
     Davidson diagonalization with overlap
     ethr =  1.00E-02,  avg # of iterations =  8.0

     negative rho (up, down):  2.265E-01 0.000E+00

     total cpu time spent up to now is        6.2 secs

     total energy              =      46.63149538 Ry
     Harris-Foulkes estimate   =   -3181.95164013 Ry
     estimated scf accuracy    <      20.71924904 Ry

     iteration # 53     ecut=    30.00 Ry     beta=0.70
     Davidson diagonalization with overlap
     ethr =  1.00E-02,  avg # of iterations =  8.0

     negative rho (up, down):  2.012E-01 0.000E+00

     total cpu time spent up to now is        6.3 secs

     total energy              =     -43.68715675 Ry
     Harris-Foulkes estimate   =   -1687.16425055 Ry
     estimated scf accuracy    <      43.30451284 Ry

     iteration # 54     ecut=    30.00 Ry     beta=0.70
     Davidson diagonalization with overlap
     ethr =  1.00E-02,  avg # of iterations =  9.0

     negative rho (up, down):  1.946E-01 0.000E+00

     total cpu time spent up to now is        6.3 secs

     total energy              =      70.09721567 Ry
     Harris-Foulkes estimate   =   -8212.23869724 Ry
     estimated scf accuracy    <      21.66459022 Ry

     iteration # 55     ecut=    30.00 Ry     beta=0.70
     Davidson diagonalization with overlap
     ethr =  1.00E-02,  avg # of iterations =  8.0

     negative rho (up, down):  8.272E-02 0.000E+00

     total cpu time spent up to now is        6.4 secs

     total energy              =    -169.47814035 Ry
     Harris-Foulkes estimate   =   -3610.50503263 Ry
     estimated scf accuracy    <      41.20808678 Ry

     iteration # 56     ecut=    30.00 Ry     beta=0.70
     Davidson diagonalization with overlap
     ethr =  1.00E-02,  avg # of iterations =  9.0

     negative rho (up, down):  1.187E-01 0.000E+00

     total cpu time spent up to now is        6.5 secs

     total energy              =     -74.79560380 Ry
     Harris-Foulkes estimate   =   -1459.00017010 Ry
     estimated scf accuracy    <      26.56170044 Ry

     iteration # 57     ecut=    30.00 Ry     beta=0.70
     Davidson diagonalization with overlap
     ethr =  1.00E-02,  avg # of iterations =  5.0

     negative rho (up, down):  2.057E-01 0.000E+00

     total cpu time spent up to now is        6.6 secs

     total energy              =      40.85423405 Ry
     Harris-Foulkes estimate   =    -622.84641694 Ry
     estimated scf accuracy    <      28.03742119 Ry

     iteration # 58     ecut=    30.00 Ry     beta=0.70
     Davidson diagonalization with overlap
     ethr =  1.00E-02,  avg # of iterations =  6.0

     negative rho (up, down):  3.378E-01 0.000E+00

     total cpu time spent up to now is        6.7 secs

     total energy              =     -13.44377383 Ry
     Harris-Foulkes estimate   =    -598.01267266 Ry
     estimated scf accuracy    <      21.29015887 Ry

     iteration # 59     ecut=    30.00 Ry     beta=0.70
     Davidson diagonalization with overlap
     ethr =  1.00E-02,  avg # of iterations =  7.0

     negative rho (up, down):  6.720E-01 0.000E+00

     total cpu time spent up to now is        6.8 secs

     total energy              =      72.28346529 Ry
     Harris-Foulkes estimate   =   -5118.81057082 Ry
     estimated scf accuracy    <      45.68991407 Ry

     iteration # 60     ecut=    30.00 Ry     beta=0.70
     Davidson diagonalization with overlap
     ethr =  1.00E-02,  avg # of iterations =  6.0

     negative rho (up, down):  8.951E-01 0.000E+00

     total cpu time spent up to now is        6.8 secs

     total energy              =      40.25664558 Ry
     Harris-Foulkes estimate   =   -1268.20747396 Ry
     estimated scf accuracy    <      35.62028388 Ry

     iteration # 61     ecut=    30.00 Ry     beta=0.70
     Davidson diagonalization with overlap
     ethr =  1.00E-02,  avg # of iterations =  7.0

     negative rho (up, down):  1.054E+00 0.000E+00

     total cpu time spent up to now is        6.9 secs

     total energy              =    -300.42334435 Ry
     Harris-Foulkes estimate   =   -1140.61520703 Ry
     estimated scf accuracy    <      25.90851540 Ry

     iteration # 62     ecut=    30.00 Ry     beta=0.70
     Davidson diagonalization with overlap
     ethr =  1.00E-02,  avg # of iterations =  7.0

     negative rho (up, down):  3.457E-01 0.000E+00

     total cpu time spent up to now is        7.0 secs

     total energy              =      71.64034215 Ry
     Harris-Foulkes estimate   =   -3456.60528439 Ry
     estimated scf accuracy    <      30.82403045 Ry

     iteration # 63     ecut=    30.00 Ry     beta=0.70
     Davidson diagonalization with overlap
     ethr =  1.00E-02,  avg # of iterations =  7.0

     negative rho (up, down):  3.280E-01 0.000E+00

     total cpu time spent up to now is        7.1 secs

     total energy              =      22.88965391 Ry
     Harris-Foulkes estimate   =   -1396.33807056 Ry
     estimated scf accuracy    <      32.12559043 Ry

     iteration # 64     ecut=    30.00 Ry     beta=0.70
     Davidson diagonalization with overlap
     ethr =  1.00E-02,  avg # of iterations =  9.0

     negative rho (up, down):  3.088E-01 0.000E+00

     total cpu time spent up to now is        7.2 secs

     total energy              =      68.97563969 Ry
     Harris-Foulkes estimate   =   -3120.09465041 Ry
     estimated scf accuracy    <      24.08998385 Ry

     iteration # 65     ecut=    30.00 Ry     beta=0.70
     Davidson diagonalization with overlap
     ethr =  1.00E-02,  avg # of iterations =  8.0

     negative rho (up, down):  5.143E-01 0.000E+00

     total cpu time spent up to now is        7.3 secs

     total energy              =     108.81496762 Ry
     Harris-Foulkes estimate   =   -1500.05350707 Ry
     estimated scf accuracy    <      31.60627987 Ry

     iteration # 66     ecut=    30.00 Ry     beta=0.70
     Davidson diagonalization with overlap
     ethr =  1.00E-02,  avg # of iterations =  8.0

     negative rho (up, down):  4.926E-01 0.000E+00

     total cpu time spent up to now is        7.4 secs

     total energy              =  -26769.58089903 Ry
     Harris-Foulkes estimate   =    -106.22352841 Ry
     estimated scf accuracy    <      32.53106236 Ry

     iteration # 67     ecut=    30.00 Ry     beta=0.70
     Davidson diagonalization with overlap
     ethr =  1.00E-02,  avg # of iterations =  6.0

     negative rho (up, down):  5.767E-01 0.000E+00

     total cpu time spent up to now is        7.5 secs

     total energy              =      23.33271866 Ry
     Harris-Foulkes estimate   =  -29569.77430557 Ry
     estimated scf accuracy    <      19.02173457 Ry

     iteration # 68     ecut=    30.00 Ry     beta=0.70
     Davidson diagonalization with overlap
     ethr =  1.00E-02,  avg # of iterations =  5.0

     negative rho (up, down):  8.472E-03 0.000E+00

     total cpu time spent up to now is        7.5 secs

     total energy              =     113.79191611 Ry
     Harris-Foulkes estimate   =    -576.85485690 Ry
     estimated scf accuracy    <      21.79126569 Ry

     iteration # 69     ecut=    30.00 Ry     beta=0.70
     Davidson diagonalization with overlap
     ethr =  1.00E-02,  avg # of iterations = 12.0

     negative rho (up, down):  1.448E-01 0.000E+00

     total cpu time spent up to now is        7.6 secs

     total energy              =    -224.36416243 Ry
     Harris-Foulkes estimate   =     -89.22298866 Ry
     estimated scf accuracy    <      15.49583841 Ry

     iteration # 70     ecut=    30.00 Ry     beta=0.70
     Davidson diagonalization with overlap
     ethr =  1.00E-02,  avg # of iterations =  6.0

     negative rho (up, down):  2.001E-01 0.000E+00

     total cpu time spent up to now is        7.7 secs

     total energy              =      -3.61157334 Ry
     Harris-Foulkes estimate   =   -1777.70299536 Ry
     estimated scf accuracy    <      32.86763303 Ry

     iteration # 71     ecut=    30.00 Ry     beta=0.70
     Davidson diagonalization with overlap
     ethr =  1.00E-02,  avg # of iterations =  5.0

     negative rho (up, down):  2.723E-01 0.000E+00

     total cpu time spent up to now is        7.8 secs

     total energy              =     -76.02515952 Ry
     Harris-Foulkes estimate   =    -894.20625376 Ry
     estimated scf accuracy    <      28.92646054 Ry

     iteration # 72     ecut=    30.00 Ry     beta=0.70
     Davidson diagonalization with overlap
     ethr =  1.00E-02,  avg # of iterations =  5.0

     negative rho (up, down):  2.575E-01 0.000E+00

     total cpu time spent up to now is        7.9 secs

     total energy              =     115.56544125 Ry
     Harris-Foulkes estimate   =    -927.87564000 Ry
     estimated scf accuracy    <      32.95687171 Ry

     iteration # 73     ecut=    30.00 Ry     beta=0.70
     Davidson diagonalization with overlap
     ethr =  1.00E-02,  avg # of iterations = 12.0

     negative rho (up, down):  1.071E-01 0.000E+00

     total cpu time spent up to now is        8.0 secs

     total energy              =     -46.95477518 Ry
     Harris-Foulkes estimate   =     -43.67604423 Ry
     estimated scf accuracy    <      18.97350465 Ry

     iteration # 74     ecut=    30.00 Ry     beta=0.70
     Davidson diagonalization with overlap
     ethr =  1.00E-02,  avg # of iterations =  8.0

     negative rho (up, down):  1.469E-01 0.000E+00

     total cpu time spent up to now is        8.1 secs

     total energy              =      38.60003311 Ry
     Harris-Foulkes estimate   =   -7582.51526741 Ry
     estimated scf accuracy    <      23.92497348 Ry

     iteration # 75     ecut=    30.00 Ry     beta=0.70
     Davidson diagonalization with overlap
     ethr =  1.00E-02,  avg # of iterations =  5.0

     negative rho (up, down):  1.240E-02 0.000E+00

     total cpu time spent up to now is        8.2 secs

     total energy              =     120.28336341 Ry
     Harris-Foulkes estimate   =   -1660.36135710 Ry
     estimated scf accuracy    <      30.87646738 Ry

     iteration # 76     ecut=    30.00 Ry     beta=0.70
     Davidson diagonalization with overlap
     ethr =  1.00E-02,  avg # of iterations = 12.0

     negative rho (up, down):  6.926E-02 0.000E+00

     total cpu time spent up to now is        8.3 secs

     total energy              =     -39.85310812 Ry
     Harris-Foulkes estimate   =     -41.58110710 Ry
     estimated scf accuracy    <      19.49157551 Ry

     iteration # 77     ecut=    30.00 Ry     beta=0.70
     Davidson diagonalization with overlap
     ethr =  1.00E-02,  avg # of iterations =  2.0

     negative rho (up, down):  2.565E-01 0.000E+00

     total cpu time spent up to now is        8.3 secs

     total energy              =     -39.08154413 Ry
     Harris-Foulkes estimate   =     -40.55599322 Ry
     estimated scf accuracy    <      14.01223871 Ry

     iteration # 78     ecut=    30.00 Ry     beta=0.70
     Davidson diagonalization with overlap
     ethr =  1.00E-02,  avg # of iterations =  8.0

     negative rho (up, down):  2.746E-03 0.000E+00

     total cpu time spent up to now is        8.4 secs

     total energy              =     102.16927251 Ry
     Harris-Foulkes estimate   =    -894.73552646 Ry
     estimated scf accuracy    <      25.07335820 Ry

     iteration # 79     ecut=    30.00 Ry     beta=0.70
     Davidson diagonalization with overlap
     ethr =  1.00E-02,  avg # of iterations = 11.0

     negative rho (up, down):  4.536E-05 0.000E+00

     total cpu time spent up to now is        8.5 secs

     total energy              =     -36.90936970 Ry
     Harris-Foulkes estimate   =     -38.35086479 Ry
     estimated scf accuracy    <      13.73314747 Ry

     iteration # 80     ecut=    30.00 Ry     beta=0.70
     Davidson diagonalization with overlap
     ethr =  1.00E-02,  avg # of iterations =  2.0

     negative rho (up, down):  4.633E-03 0.000E+00

     total cpu time spent up to now is        8.6 secs

     total energy              =     -36.52398287 Ry
     Harris-Foulkes estimate   =     -37.44168438 Ry
     estimated scf accuracy    <       9.88643227 Ry

     iteration # 81     ecut=    30.00 Ry     beta=0.70
     Davidson diagonalization with overlap
     ethr =  1.00E-02,  avg # of iterations =  3.0

     negative rho (up, down):  3.542E-03 0.000E+00

     total cpu time spent up to now is        8.6 secs

     total energy              =     -27.93481724 Ry
     Harris-Foulkes estimate   =     -38.54858935 Ry
     estimated scf accuracy    <       8.90635182 Ry

     iteration # 82     ecut=    30.00 Ry     beta=0.70
     Davidson diagonalization with overlap
     ethr =  1.00E-02,  avg # of iterations =  4.0

     total cpu time spent up to now is        8.7 secs

     total energy              =       0.62480856 Ry
     Harris-Foulkes estimate   =    -165.33929555 Ry
     estimated scf accuracy    <       8.12885818 Ry

     iteration # 83     ecut=    30.00 Ry     beta=0.70
     Davidson diagonalization with overlap
     ethr =  1.00E-02,  avg # of iterations =  4.0

     negative rho (up, down):  1.383E-02 0.000E+00

     total cpu time spent up to now is        8.8 secs

     total energy              =     -35.57614194 Ry
     Harris-Foulkes estimate   =     -36.66223867 Ry
     estimated scf accuracy    <       8.75860321 Ry

     iteration # 84     ecut=    30.00 Ry     beta=0.70
     Davidson diagonalization with overlap
     ethr =  1.00E-02,  avg # of iterations =  4.0

     negative rho (up, down):  1.836E-02 0.000E+00

     total cpu time spent up to now is        8.8 secs

     total energy              =      67.74995463 Ry
     Harris-Foulkes estimate   =    -423.00541915 Ry
     estimated scf accuracy    <      18.47052276 Ry

     iteration # 85     ecut=    30.00 Ry     beta=0.70
     Davidson diagonalization with overlap
     ethr =  1.00E-02,  avg # of iterations = 11.0

     negative rho (up, down):  9.752E-02 0.000E+00

     total cpu time spent up to now is        8.9 secs

     total energy              =     -31.33626054 Ry
     Harris-Foulkes estimate   =     -39.70231361 Ry
     estimated scf accuracy    <      10.04113303 Ry

     iteration # 86     ecut=    30.00 Ry     beta=0.70
     Davidson diagonalization with overlap
     ethr =  1.00E-02,  avg # of iterations =  4.0

     negative rho (up, down):  9.985E-02 0.000E+00

     total cpu time spent up to now is        9.0 secs

     total energy              =   -1357.65217168 Ry
     Harris-Foulkes estimate   =    -259.52777857 Ry
     estimated scf accuracy    <      15.87006563 Ry

     iteration # 87     ecut=    30.00 Ry     beta=0.70
     Davidson diagonalization with overlap
     ethr =  1.00E-02,  avg # of iterations =  5.0

     negative rho (up, down):  4.146E-02 0.000E+00

     total cpu time spent up to now is        9.1 secs

     total energy              =     104.96007662 Ry
     Harris-Foulkes estimate   =   -4504.79013060 Ry
     estimated scf accuracy    <      36.87039837 Ry

     iteration # 88     ecut=    30.00 Ry     beta=0.70
     Davidson diagonalization with overlap
     ethr =  1.00E-02,  avg # of iterations =  7.0

     negative rho (up, down):  1.024E-01 0.000E+00

     total cpu time spent up to now is        9.1 secs

     total energy              =     -35.41198530 Ry
     Harris-Foulkes estimate   =     -35.76658516 Ry
     estimated scf accuracy    <       9.87790272 Ry

     iteration # 89     ecut=    30.00 Ry     beta=0.70
     Davidson diagonalization with overlap
     ethr =  1.00E-02,  avg # of iterations =  7.0

     negative rho (up, down):  2.442E-02 0.000E+00

     total cpu time spent up to now is        9.2 secs

     total energy              =      89.82464523 Ry
     Harris-Foulkes estimate   =    -205.45741378 Ry
     estimated scf accuracy    <      30.47190664 Ry

     iteration # 90     ecut=    30.00 Ry     beta=0.70
     Davidson diagonalization with overlap
     ethr =  1.00E-02,  avg # of iterations =  9.0

     negative rho (up, down):  6.763E-02 0.000E+00

     total cpu time spent up to now is        9.3 secs

     total energy              =     -34.43067789 Ry
     Harris-Foulkes estimate   =     -36.01838267 Ry
     estimated scf accuracy    <       8.22139090 Ry

     iteration # 91     ecut=    30.00 Ry     beta=0.70
     Davidson diagonalization with overlap
     ethr =  1.00E-02,  avg # of iterations =  4.0

     negative rho (up, down):  4.038E-03 0.000E+00

     total cpu time spent up to now is        9.4 secs

     total energy              =     -40.38685097 Ry
     Harris-Foulkes estimate   =     -35.93459536 Ry
     estimated scf accuracy    <       6.28545452 Ry

     iteration # 92     ecut=    30.00 Ry     beta=0.70
     Davidson diagonalization with overlap
     ethr =  1.00E-02,  avg # of iterations =  4.0

     negative rho (up, down):  5.145E-03 0.000E+00

     total cpu time spent up to now is        9.4 secs

     total energy              =     -59.87348613 Ry
     Harris-Foulkes estimate   =    -143.77184962 Ry
     estimated scf accuracy    <      15.31272691 Ry

     iteration # 93     ecut=    30.00 Ry     beta=0.70
     Davidson diagonalization with overlap
     ethr =  1.00E-02,  avg # of iterations =  6.0

     negative rho (up, down):  2.362E-02 0.000E+00

     total cpu time spent up to now is        9.5 secs

     total energy              =      -6.18989842 Ry
     Harris-Foulkes estimate   =    -148.66955633 Ry
     estimated scf accuracy    <      10.41159098 Ry

     iteration # 94     ecut=    30.00 Ry     beta=0.70
     Davidson diagonalization with overlap
     ethr =  1.00E-02,  avg # of iterations =  4.0

     negative rho (up, down):  9.585E-02 0.000E+00

     total cpu time spent up to now is        9.6 secs

     total energy              =     -26.16112301 Ry
     Harris-Foulkes estimate   =     -41.93508851 Ry
     estimated scf accuracy    <       9.47352944 Ry

     iteration # 95     ecut=    30.00 Ry     beta=0.70
     Davidson diagonalization with overlap
     ethr =  1.00E-02,  avg # of iterations =  4.0

     negative rho (up, down):  1.197E-01 0.000E+00

     total cpu time spent up to now is        9.6 secs

     total energy              =    -146.21759445 Ry
     Harris-Foulkes estimate   =    -168.85862044 Ry
     estimated scf accuracy    <      27.24848366 Ry

     iteration # 96     ecut=    30.00 Ry     beta=0.70
     Davidson diagonalization with overlap
     ethr =  1.00E-02,  avg # of iterations =  4.0

     negative rho (up, down):  1.813E-01 0.000E+00

     total cpu time spent up to now is        9.7 secs

     total energy              =      65.64361856 Ry
     Harris-Foulkes estimate   =    -813.38488580 Ry
     estimated scf accuracy    <      23.37482138 Ry

     iteration # 97     ecut=    30.00 Ry     beta=0.70
     Davidson diagonalization with overlap
     ethr =  1.00E-02,  avg # of iterations =  5.0

     negative rho (up, down):  2.439E-01 0.000E+00

     total cpu time spent up to now is        9.8 secs

     total energy              =     -32.88815593 Ry
     Harris-Foulkes estimate   =     -37.93706817 Ry
     estimated scf accuracy    <       7.10787842 Ry

     iteration # 98     ecut=    30.00 Ry     beta=0.70
     Davidson diagonalization with overlap
     ethr =  1.00E-02,  avg # of iterations =  4.0

     negative rho (up, down):  5.331E-01 0.000E+00

     total cpu time spent up to now is        9.8 secs

     total energy              =     -35.59561530 Ry
     Harris-Foulkes estimate   =     -94.30844280 Ry
     estimated scf accuracy    <      12.98469949 Ry

     iteration # 99     ecut=    30.00 Ry     beta=0.70
     Davidson diagonalization with overlap
     ethr =  1.00E-02,  avg # of iterations =  5.0

     negative rho (up, down):  5.127E-01 0.000E+00

     total cpu time spent up to now is        9.9 secs

     total energy              =      72.07188487 Ry
     Harris-Foulkes estimate   =    -477.75914792 Ry
     estimated scf accuracy    <      31.64649944 Ry

     iteration #100     ecut=    30.00 Ry     beta=0.70
     Davidson diagonalization with overlap
     ethr =  1.00E-02,  avg # of iterations =  7.0

     negative rho (up, down):  4.625E-01 0.000E+00

     total cpu time spent up to now is       10.0 secs

     total energy              =   -6557.46507702 Ry
     Harris-Foulkes estimate   =    -164.37546712 Ry
     estimated scf accuracy    <      29.65553703 Ry

     End of self-consistent calculation

     convergence NOT achieved after 100 iterations: stopping

     Writing output data file pwscf.save
 
     init_run     :      0.17s CPU      0.19s WALL (       1 calls)
     electrons    :      8.14s CPU      9.38s WALL (       2 calls)
     update_pot   :      0.13s CPU      0.19s WALL (       1 calls)
     forces       :      0.04s CPU      0.04s WALL (       1 calls)

     Called by init_run:
     wfcinit      :      0.01s CPU      0.02s WALL (       1 calls)
     potinit      :      0.05s CPU      0.05s WALL (       1 calls)

     Called by electrons:
     c_bands      :      4.86s CPU      5.04s WALL (     125 calls)
     sum_band     :      0.63s CPU      0.67s WALL (     125 calls)
     v_of_rho     :      1.58s CPU      1.64s WALL (     127 calls)
     mix_rho      :      0.90s CPU      1.68s WALL (     125 calls)

     Called by c_bands:
     init_us_2    :      0.02s CPU      0.02s WALL (     251 calls)
     cegterg      :      4.83s CPU      4.97s WALL (     125 calls)

     Called by sum_band:

     Called by *egterg:
     h_psi        :      4.05s CPU      4.16s WALL (     790 calls)
     g_psi        :      0.05s CPU      0.05s WALL (     664 calls)
     cdiaghg      :      0.30s CPU      0.31s WALL (     788 calls)

     Called by h_psi:
     h_psi:pot    :      4.02s CPU      4.14s WALL (     790 calls)
     h_psi:calbec :      0.06s CPU      0.08s WALL (     790 calls)
     vloc_psi     :      3.94s CPU      4.04s WALL (     790 calls)
     add_vuspsi   :      0.01s CPU      0.01s WALL (     790 calls)

     General routines
     calbec       :      0.06s CPU      0.08s WALL (     794 calls)
     fft          :      0.89s CPU      0.93s WALL (    1399 calls)
     fftw         :      4.00s CPU      4.12s WALL (   10164 calls)
     davcio       :      0.15s CPU      0.65s WALL (    2336 calls)
 
     Parallel routines
     fft_scatter  :      1.51s CPU      1.60s WALL (   11563 calls)
 
     PWSCF        :     8.68s CPU        10.15s WALL

 
   This run was terminated on:  13:35:57  13Feb2018            

=------------------------------------------------------------------------------=
   JOB DONE.
=------------------------------------------------------------------------------=
