
     Program PWSCF v.6.0 (svn rev. 13079) starts on 13Feb2018 at 13:39:40 

     This program is part of the open-source Quantum ESPRESSO suite
     for quantum simulation of materials; please cite
         "P. Giannozzi et al., J. Phys.:Condens. Matter 21 395502 (2009);
          URL http://www.quantum-espresso.org", 
     in publications or presentations arising from this work. More details at
     http://www.quantum-espresso.org/quote

     Parallel version (MPI), running on    28 processors
     R & G space division:  proc/nbgrp/npool/nimage =      28
     Reading input from inputs/MD-H2O-round1/131.in

     Current dimensions of program PWSCF are:
     Max number of different atomic species (ntypx) = 10
     Max number of k-points (npk) =  40000
     Max angular momentum in pseudopotentials (lmaxx) =  3

     Subspace diagonalization in iterative solution of the eigenvalue problem:
     a serial algorithm will be used

 
     Parallelization info
     --------------------
     sticks:   dense  smooth     PW     G-vecs:    dense   smooth      PW
     Min         136     136     33                 6338     6338     787
     Max         137     137     34                 6341     6341     792
     Sum        3809    3809    949               177509   177509   22119
 


     bravais-lattice index     =            1
     lattice parameter (alat)  =      20.0000  a.u.
     unit-cell volume          =    8000.0000 (a.u.)^3
     number of atoms/cell      =            3
     number of atomic types    =            2
     number of electrons       =         8.00
     number of Kohn-Sham states=            8
     kinetic-energy cutoff     =      30.0000  Ry
     charge density cutoff     =     120.0000  Ry
     convergence threshold     =      1.0E-08
     mixing beta               =       0.7000
     number of iterations used =            8  plain     mixing
     Exchange-correlation      = BLYP ( 1  3  1  3 0 0)
     nstep                     =         5000


     celldm(1)=  20.000000  celldm(2)=   0.000000  celldm(3)=   0.000000
     celldm(4)=   0.000000  celldm(5)=   0.000000  celldm(6)=   0.000000

     crystal axes: (cart. coord. in units of alat)
               a(1) = (   1.000000   0.000000   0.000000 )  
               a(2) = (   0.000000   1.000000   0.000000 )  
               a(3) = (   0.000000   0.000000   1.000000 )  

     reciprocal axes: (cart. coord. in units 2 pi/alat)
               b(1) = (  1.000000  0.000000  0.000000 )  
               b(2) = (  0.000000  1.000000  0.000000 )  
               b(3) = (  0.000000  0.000000  1.000000 )  


     PseudoPot. # 1 for  H read from file:
     ./H.blyp-hgh.UPF
     MD5 check sum: c576e69559cde411e611be972c763230
     Pseudo is Norm-conserving, Zval =  1.0
     Generated in analytical, separable form
     Using radial grid of  929 points,  0 beta functions with: 

     PseudoPot. # 2 for  O read from file:
     ./O.blyp-hgh.UPF
     MD5 check sum: d0b7156309aa9befef28faac7bc56342
     Pseudo is Norm-conserving, Zval =  6.0
     Generated in analytical, separable form
     Using radial grid of 1095 points,  1 beta functions with: 
                l(1) =   0

     atomic species   valence    mass     pseudopotential
        H              1.00     1.01000      H( 1.00)
        O              6.00    16.00000      O( 1.00)

     No symmetry found



   Cartesian axes

     site n.     atom                  positions (alat units)
         1           O   tau(   1) = (   0.8405952   0.4486875   0.3126089  )
         2           H   tau(   2) = (   0.8840504   0.4889243   0.3671786  )
         3           H   tau(   3) = (   0.2914711   0.2816457   0.1739852  )

     number of k points=     1  Marzari-Vanderbilt smearing, width (Ry)=  0.0250
                       cart. coord. in units 2pi/alat
        k(    1) = (   0.0000000   0.0000000   0.0000000), wk =   2.0000000

     Dense  grid:   177509 G-vectors     FFT dimensions: (  72,  72,  72)

     Estimated max dynamical RAM per process >       6.09Mb

     Estimated total allocated dynamical RAM >     170.64Mb

     Initial potential from superposition of free atoms
     Check: negative starting charge=   -0.351135

     starting charge    7.99998, renormalised to    8.00000

     negative rho (up, down):  3.511E-01 0.000E+00
     Starting wfc are    6 randomized atomic wfcs +    2 random wfc

     total cpu time spent up to now is        0.3 secs

     per-process dynamical memory:    18.8 Mb

     Self-consistent Calculation

     iteration #  1     ecut=    30.00 Ry     beta=0.70
     Davidson diagonalization with overlap
     ethr =  1.00E-02,  avg # of iterations =  7.0

     negative rho (up, down):  9.458E-02 0.000E+00

     total cpu time spent up to now is        0.4 secs

     total energy              =     -31.59252603 Ry
     Harris-Foulkes estimate   =     -32.07005665 Ry
     estimated scf accuracy    <       0.50554311 Ry

     iteration #  2     ecut=    30.00 Ry     beta=0.70
     Davidson diagonalization with overlap
     ethr =  6.32E-03,  avg # of iterations =  3.0

     negative rho (up, down):  7.359E-02 0.000E+00

     total cpu time spent up to now is        0.5 secs

     total energy              =     -31.69607124 Ry
     Harris-Foulkes estimate   =     -32.32392883 Ry
     estimated scf accuracy    <       2.16294071 Ry

     iteration #  3     ecut=    30.00 Ry     beta=0.70
     Davidson diagonalization with overlap
     ethr =  6.32E-03,  avg # of iterations =  2.0

     negative rho (up, down):  2.646E-02 0.000E+00

     total cpu time spent up to now is        0.5 secs

     total energy              =     -31.66824656 Ry
     Harris-Foulkes estimate   =     -31.81768155 Ry
     estimated scf accuracy    <       0.93224932 Ry

     iteration #  4     ecut=    30.00 Ry     beta=0.70
     Davidson diagonalization with overlap
     ethr =  6.32E-03,  avg # of iterations =  1.0

     negative rho (up, down):  1.268E-02 0.000E+00

     total cpu time spent up to now is        0.6 secs

     total energy              =     -31.77296774 Ry
     Harris-Foulkes estimate   =     -31.98200545 Ry
     estimated scf accuracy    <       1.43726849 Ry

     iteration #  5     ecut=    30.00 Ry     beta=0.70
     Davidson diagonalization with overlap
     ethr =  6.32E-03,  avg # of iterations =  1.0

     negative rho (up, down):  1.311E-03 0.000E+00

     total cpu time spent up to now is        0.6 secs

     total energy              =     -31.81943634 Ry
     Harris-Foulkes estimate   =     -31.86066045 Ry
     estimated scf accuracy    <       0.80979752 Ry

     iteration #  6     ecut=    30.00 Ry     beta=0.70
     Davidson diagonalization with overlap
     ethr =  6.32E-03,  avg # of iterations =  1.0

     negative rho (up, down):  1.063E-03 0.000E+00

     total cpu time spent up to now is        0.6 secs

     total energy              =     -31.84079929 Ry
     Harris-Foulkes estimate   =     -31.84903389 Ry
     estimated scf accuracy    <       0.29793969 Ry

     iteration #  7     ecut=    30.00 Ry     beta=0.70
     Davidson diagonalization with overlap
     ethr =  3.72E-03,  avg # of iterations =  1.0

     negative rho (up, down):  2.272E-04 0.000E+00

     total cpu time spent up to now is        0.7 secs

     total energy              =     -31.84425663 Ry
     Harris-Foulkes estimate   =     -31.84541393 Ry
     estimated scf accuracy    <       0.00312279 Ry

     iteration #  8     ecut=    30.00 Ry     beta=0.70
     Davidson diagonalization with overlap
     ethr =  3.90E-05,  avg # of iterations =  8.0

     negative rho (up, down):  8.272E-07 0.000E+00

     total cpu time spent up to now is        0.8 secs

     total energy              =     -31.81999151 Ry
     Harris-Foulkes estimate   =     -31.85819072 Ry
     estimated scf accuracy    <       0.92629264 Ry

     iteration #  9     ecut=    30.00 Ry     beta=0.70
     Davidson diagonalization with overlap
     ethr =  3.90E-05,  avg # of iterations =  2.0

     negative rho (up, down):  2.294E-08 0.000E+00

     total cpu time spent up to now is        0.8 secs

     total energy              =     -31.84455853 Ry
     Harris-Foulkes estimate   =     -31.84925725 Ry
     estimated scf accuracy    <       0.23496453 Ry

     iteration # 10     ecut=    30.00 Ry     beta=0.70
     Davidson diagonalization with overlap
     ethr =  3.90E-05,  avg # of iterations =  1.0

     negative rho (up, down):  3.378E-07 0.000E+00

     total cpu time spent up to now is        0.9 secs

     total energy              =     -31.84473148 Ry
     Harris-Foulkes estimate   =     -31.84596664 Ry
     estimated scf accuracy    <       0.03185525 Ry

     iteration # 11     ecut=    30.00 Ry     beta=0.70
     Davidson diagonalization with overlap
     ethr =  3.90E-05,  avg # of iterations =  1.0

     negative rho (up, down):  5.175E-08 0.000E+00

     total cpu time spent up to now is        0.9 secs

     total energy              =     -31.84516268 Ry
     Harris-Foulkes estimate   =     -31.84561163 Ry
     estimated scf accuracy    <       0.00658550 Ry

     iteration # 12     ecut=    30.00 Ry     beta=0.70
     Davidson diagonalization with overlap
     ethr =  3.90E-05,  avg # of iterations =  1.0

     total cpu time spent up to now is        1.0 secs

     total energy              =     -31.84546573 Ry
     Harris-Foulkes estimate   =     -31.84575671 Ry
     estimated scf accuracy    <       0.01690043 Ry

     iteration # 13     ecut=    30.00 Ry     beta=0.70
     Davidson diagonalization with overlap
     ethr =  3.90E-05,  avg # of iterations =  1.0

     total cpu time spent up to now is        1.0 secs

     total energy              =     -31.84551129 Ry
     Harris-Foulkes estimate   =     -31.84555736 Ry
     estimated scf accuracy    <       0.00224048 Ry

     iteration # 14     ecut=    30.00 Ry     beta=0.70
     Davidson diagonalization with overlap
     ethr =  2.80E-05,  avg # of iterations =  1.0

     total cpu time spent up to now is        1.0 secs

     total energy              =     -31.84552530 Ry
     Harris-Foulkes estimate   =     -31.84552856 Ry
     estimated scf accuracy    <       0.00012511 Ry

     iteration # 15     ecut=    30.00 Ry     beta=0.70
     Davidson diagonalization with overlap
     ethr =  1.56E-06,  avg # of iterations =  1.0

     total cpu time spent up to now is        1.1 secs

     total energy              =     -31.84552735 Ry
     Harris-Foulkes estimate   =     -31.84552703 Ry
     estimated scf accuracy    <       0.00000005 Ry

     iteration # 16     ecut=    30.00 Ry     beta=0.70
     Davidson diagonalization with overlap
     ethr =  6.75E-10,  avg # of iterations =  2.0

     total cpu time spent up to now is        1.1 secs

     total energy              =     -31.84552756 Ry
     Harris-Foulkes estimate   =     -31.84552736 Ry
     estimated scf accuracy    <       0.00000049 Ry

     iteration # 17     ecut=    30.00 Ry     beta=0.70
     Davidson diagonalization with overlap
     ethr =  6.75E-10,  avg # of iterations =  2.0

     total cpu time spent up to now is        1.2 secs

     total energy              =     -31.84552759 Ry
     Harris-Foulkes estimate   =     -31.84552759 Ry
     estimated scf accuracy    <       0.00000055 Ry

     iteration # 18     ecut=    30.00 Ry     beta=0.70
     Davidson diagonalization with overlap
     ethr =  6.75E-10,  avg # of iterations =  1.0

     total cpu time spent up to now is        1.2 secs

     total energy              =     -31.84552759 Ry
     Harris-Foulkes estimate   =     -31.84552760 Ry
     estimated scf accuracy    <       0.00000003 Ry

     iteration # 19     ecut=    30.00 Ry     beta=0.70
     Davidson diagonalization with overlap
     ethr =  4.18E-10,  avg # of iterations =  1.0

     total cpu time spent up to now is        1.3 secs

     End of self-consistent calculation

          k = 0.0000 0.0000 0.0000 ( 22119 PWs)   bands (ev):

   -26.1101 -11.0487  -7.1403  -7.1381  -6.9914  -0.4437   0.4943   0.8595

     the Fermi energy is    -6.9660 ev

!    total energy              =     -31.84552755 Ry
     Harris-Foulkes estimate   =     -31.84552759 Ry
     estimated scf accuracy    <          3.8E-10 Ry

     convergence has been achieved in  19 iterations

     Forces acting on atoms (Ry/au):

     atom    1 type  2   force =    -0.32290143   -0.29866874   -0.40693696
     atom    2 type  1   force =     0.32284346    0.29886387    0.40677764
     atom    3 type  1   force =     0.00005796   -0.00019513    0.00015933

     Total force =     0.847397     Total SCF correction =     0.000045

     Molecular Dynamics Calculation

     Starting temperature  =  1000.00 K

     temperature is controlled by Andersen thermostat
     Collision frequency = 1.0000/timestep
     mass H                =     1.01
     mass O                =    16.00
     Time step             =   100.00 a.u.,  4.8378 femto-seconds

     Entering Dynamics:    iteration =     1
                           time      =   0.0048 pico-seconds


     Andersen thermostat:    3 collisions

ATOMIC_POSITIONS (bohr)
O       16.688684010   8.863917393   6.090923343
H       19.436058886  11.582212574   9.455644346
H        6.026369949   5.569108910   3.922160879


     kinetic energy (Ekin) =     0.01337019 Ry
     temperature           =   703.66124461 K 
     Ekin + Etot (const)   =   -31.83215736 Ry

     Linear momentum :   -0.0000000000   -0.0000000000    0.0000000000

     Writing output data file pwscf.save
     Check: negative starting charge=   -0.351135
     NEW-OLD atomic charge density approx. for the potential
     Check: negative starting charge=   -0.339055

     negative rho (up, down):  4.535E-01 0.000E+00

     total cpu time spent up to now is        1.7 secs

     per-process dynamical memory:    20.4 Mb

     Self-consistent Calculation

     iteration #  1     ecut=    30.00 Ry     beta=0.70
     Davidson diagonalization with overlap
     ethr =  1.00E-06,  avg # of iterations = 19.0

     negative rho (up, down):  1.085E-01 0.000E+00

     total cpu time spent up to now is        1.9 secs

     total energy              =     -22.77868439 Ry
     Harris-Foulkes estimate   =     -33.99610288 Ry
     estimated scf accuracy    <       6.94994750 Ry

     iteration #  2     ecut=    30.00 Ry     beta=0.70
     Davidson diagonalization with overlap
     ethr =  1.00E-02,  avg # of iterations =  3.0

     negative rho (up, down):  7.748E-02 0.000E+00

     total cpu time spent up to now is        1.9 secs

     total energy              =     -32.72155112 Ry
     Harris-Foulkes estimate   =     -39.24409324 Ry
     estimated scf accuracy    <      15.40646831 Ry

     iteration #  3     ecut=    30.00 Ry     beta=0.70
     Davidson diagonalization with overlap
     ethr =  1.00E-02,  avg # of iterations =  2.0

     negative rho (up, down):  5.909E-02 0.000E+00

     total cpu time spent up to now is        2.0 secs

     total energy              =     -31.70146348 Ry
     Harris-Foulkes estimate   =     -33.16876887 Ry
     estimated scf accuracy    <       5.42453480 Ry

     iteration #  4     ecut=    30.00 Ry     beta=0.70
     Davidson diagonalization with overlap
     ethr =  1.00E-02,  avg # of iterations =  1.0

     negative rho (up, down):  2.918E-02 0.000E+00

     total cpu time spent up to now is        2.0 secs

     total energy              =     -31.03100152 Ry
     Harris-Foulkes estimate   =     -31.76505823 Ry
     estimated scf accuracy    <       2.47505189 Ry

     iteration #  5     ecut=    30.00 Ry     beta=0.70
     Davidson diagonalization with overlap
     ethr =  1.00E-02,  avg # of iterations =  2.0

     negative rho (up, down):  3.701E-02 0.000E+00

     total cpu time spent up to now is        2.1 secs

     total energy              =     -31.31290750 Ry
     Harris-Foulkes estimate   =     -32.23158307 Ry
     estimated scf accuracy    <       4.43470767 Ry

     iteration #  6     ecut=    30.00 Ry     beta=0.70
     Davidson diagonalization with overlap
     ethr =  1.00E-02,  avg # of iterations =  1.0

     negative rho (up, down):  3.230E-02 0.000E+00

     total cpu time spent up to now is        2.1 secs

     total energy              =     -31.61160723 Ry
     Harris-Foulkes estimate   =     -31.64561543 Ry
     estimated scf accuracy    <       2.32718939 Ry

     iteration #  7     ecut=    30.00 Ry     beta=0.70
     Davidson diagonalization with overlap
     ethr =  1.00E-02,  avg # of iterations =  1.0

     negative rho (up, down):  6.620E-03 0.000E+00

     total cpu time spent up to now is        2.2 secs

     total energy              =     -31.07649575 Ry
     Harris-Foulkes estimate   =     -31.61396289 Ry
     estimated scf accuracy    <       2.08824820 Ry

     iteration #  8     ecut=    30.00 Ry     beta=0.70
     Davidson diagonalization with overlap
     ethr =  1.00E-02,  avg # of iterations =  1.0

     negative rho (up, down):  6.722E-03 0.000E+00

     total cpu time spent up to now is        2.2 secs

     total energy              =     -32.03751936 Ry
     Harris-Foulkes estimate   =     -32.08546372 Ry
     estimated scf accuracy    <       4.17209811 Ry

     iteration #  9     ecut=    30.00 Ry     beta=0.70
     Davidson diagonalization with overlap
     ethr =  1.00E-02,  avg # of iterations =  1.0

     negative rho (up, down):  3.876E-03 0.000E+00

     total cpu time spent up to now is        2.3 secs

     total energy              =     -31.74868947 Ry
     Harris-Foulkes estimate   =     -32.03882738 Ry
     estimated scf accuracy    <       4.05568180 Ry

     iteration # 10     ecut=    30.00 Ry     beta=0.70
     Davidson diagonalization with overlap
     ethr =  1.00E-02,  avg # of iterations =  1.0

     negative rho (up, down):  4.677E-04 0.000E+00

     total cpu time spent up to now is        2.3 secs

     total energy              =     -31.77754694 Ry
     Harris-Foulkes estimate   =     -31.75995145 Ry
     estimated scf accuracy    <       2.92489525 Ry

     iteration # 11     ecut=    30.00 Ry     beta=0.70
     Davidson diagonalization with overlap
     ethr =  1.00E-02,  avg # of iterations =  1.0

     negative rho (up, down):  3.672E-04 0.000E+00

     total cpu time spent up to now is        2.4 secs

     total energy              =     -31.53052639 Ry
     Harris-Foulkes estimate   =     -31.77860361 Ry
     estimated scf accuracy    <       3.10765879 Ry

     iteration # 12     ecut=    30.00 Ry     beta=0.70
     Davidson diagonalization with overlap
     ethr =  1.00E-02,  avg # of iterations =  1.0

     negative rho (up, down):  5.697E-04 0.000E+00

     total cpu time spent up to now is        2.4 secs

     total energy              =     -31.45754950 Ry
     Harris-Foulkes estimate   =     -31.56788407 Ry
     estimated scf accuracy    <       1.26489327 Ry

     iteration # 13     ecut=    30.00 Ry     beta=0.70
     Davidson diagonalization with overlap
     ethr =  1.00E-02,  avg # of iterations =  1.0

     negative rho (up, down):  4.854E-04 0.000E+00

     total cpu time spent up to now is        2.5 secs

     total energy              =     -31.60308173 Ry
     Harris-Foulkes estimate   =     -31.63639688 Ry
     estimated scf accuracy    <       1.99725518 Ry

     iteration # 14     ecut=    30.00 Ry     beta=0.70
     Davidson diagonalization with overlap
     ethr =  1.00E-02,  avg # of iterations =  1.0

     negative rho (up, down):  1.003E-04 0.000E+00

     total cpu time spent up to now is        2.5 secs

     total energy              =     -31.53900213 Ry
     Harris-Foulkes estimate   =     -31.60465580 Ry
     estimated scf accuracy    <       1.70219901 Ry

     iteration # 15     ecut=    30.00 Ry     beta=0.70
     Davidson diagonalization with overlap
     ethr =  1.00E-02,  avg # of iterations =  1.0

     negative rho (up, down):  1.930E-04 0.000E+00

     total cpu time spent up to now is        2.6 secs

     total energy              =     -31.50702043 Ry
     Harris-Foulkes estimate   =     -31.55369771 Ry
     estimated scf accuracy    <       0.42303107 Ry

     iteration # 16     ecut=    30.00 Ry     beta=0.70
     Davidson diagonalization with overlap
     ethr =  5.29E-03,  avg # of iterations =  1.0

     negative rho (up, down):  5.203E-05 0.000E+00

     total cpu time spent up to now is        2.6 secs

     total energy              =     -31.57701973 Ry
     Harris-Foulkes estimate   =     -31.61749411 Ry
     estimated scf accuracy    <       2.77390382 Ry

     iteration # 17     ecut=    30.00 Ry     beta=0.70
     Davidson diagonalization with overlap
     ethr =  5.29E-03,  avg # of iterations =  1.0

     negative rho (up, down):  1.531E-05 0.000E+00

     total cpu time spent up to now is        2.7 secs

     total energy              =     -31.47525293 Ry
     Harris-Foulkes estimate   =     -31.57872959 Ry
     estimated scf accuracy    <       1.98280961 Ry

     iteration # 18     ecut=    30.00 Ry     beta=0.70
     Davidson diagonalization with overlap
     ethr =  5.29E-03,  avg # of iterations =  1.0

     negative rho (up, down):  3.037E-06 0.000E+00

     total cpu time spent up to now is        2.7 secs

     total energy              =     -31.55150579 Ry
     Harris-Foulkes estimate   =     -31.56611664 Ry
     estimated scf accuracy    <       0.91598248 Ry

     iteration # 19     ecut=    30.00 Ry     beta=0.70
     Davidson diagonalization with overlap
     ethr =  5.29E-03,  avg # of iterations =  1.0

     negative rho (up, down):  7.069E-07 0.000E+00

     total cpu time spent up to now is        2.8 secs

     total energy              =     -31.53719145 Ry
     Harris-Foulkes estimate   =     -31.55368821 Ry
     estimated scf accuracy    <       0.43054637 Ry

     iteration # 20     ecut=    30.00 Ry     beta=0.70
     Davidson diagonalization with overlap
     ethr =  5.29E-03,  avg # of iterations =  1.0

     negative rho (up, down):  8.344E-06 0.000E+00

     total cpu time spent up to now is        2.8 secs

     total energy              =     -31.55453000 Ry
     Harris-Foulkes estimate   =     -31.54828021 Ry
     estimated scf accuracy    <       0.10454715 Ry

     iteration # 21     ecut=    30.00 Ry     beta=0.70
     Davidson diagonalization with overlap
     ethr =  1.31E-03,  avg # of iterations =  1.0

     negative rho (up, down):  8.819E-06 0.000E+00

     total cpu time spent up to now is        2.9 secs

     total energy              =     -31.57674616 Ry
     Harris-Foulkes estimate   =     -31.56357925 Ry
     estimated scf accuracy    <       1.25278006 Ry

     iteration # 22     ecut=    30.00 Ry     beta=0.70
     Davidson diagonalization with overlap
     ethr =  1.31E-03,  avg # of iterations =  1.0

     negative rho (up, down):  9.177E-06 0.000E+00

     total cpu time spent up to now is        2.9 secs

     total energy              =     -31.57474839 Ry
     Harris-Foulkes estimate   =     -31.57838058 Ry
     estimated scf accuracy    <       1.81606972 Ry

     iteration # 23     ecut=    30.00 Ry     beta=0.70
     Davidson diagonalization with overlap
     ethr =  1.31E-03,  avg # of iterations =  1.0

     negative rho (up, down):  1.207E-05 0.000E+00

     total cpu time spent up to now is        3.0 secs

     total energy              =     -31.55497564 Ry
     Harris-Foulkes estimate   =     -31.57478350 Ry
     estimated scf accuracy    <       1.73902445 Ry

     iteration # 24     ecut=    30.00 Ry     beta=0.70
     Davidson diagonalization with overlap
     ethr =  1.31E-03,  avg # of iterations =  1.0

     negative rho (up, down):  1.139E-05 0.000E+00

     total cpu time spent up to now is        3.0 secs

     total energy              =     -31.55892843 Ry
     Harris-Foulkes estimate   =     -31.55732160 Ry
     estimated scf accuracy    <       0.89197736 Ry

     iteration # 25     ecut=    30.00 Ry     beta=0.70
     Davidson diagonalization with overlap
     ethr =  1.31E-03,  avg # of iterations =  1.0

     negative rho (up, down):  1.283E-06 0.000E+00

     total cpu time spent up to now is        3.1 secs

     total energy              =     -31.56324112 Ry
     Harris-Foulkes estimate   =     -31.55900355 Ry
     estimated scf accuracy    <       1.00544070 Ry

     iteration # 26     ecut=    30.00 Ry     beta=0.70
     Davidson diagonalization with overlap
     ethr =  1.31E-03,  avg # of iterations =  1.0

     negative rho (up, down):  9.755E-08 0.000E+00

     total cpu time spent up to now is        3.1 secs

     total energy              =     -31.51703464 Ry
     Harris-Foulkes estimate   =     -31.56422344 Ry
     estimated scf accuracy    <       1.23449109 Ry

     iteration # 27     ecut=    30.00 Ry     beta=0.70
     Davidson diagonalization with overlap
     ethr =  1.31E-03,  avg # of iterations =  1.0

     negative rho (up, down):  7.874E-08 0.000E+00

     total cpu time spent up to now is        3.2 secs

     total energy              =     -31.53784808 Ry
     Harris-Foulkes estimate   =     -31.54931194 Ry
     estimated scf accuracy    <       0.19837791 Ry

     iteration # 28     ecut=    30.00 Ry     beta=0.70
     Davidson diagonalization with overlap
     ethr =  1.31E-03,  avg # of iterations =  1.0

     negative rho (up, down):  1.303E-08 0.000E+00

     total cpu time spent up to now is        3.2 secs

     total energy              =     -31.54640998 Ry
     Harris-Foulkes estimate   =     -31.54899794 Ry
     estimated scf accuracy    <       0.21993259 Ry

     iteration # 29     ecut=    30.00 Ry     beta=0.70
     Davidson diagonalization with overlap
     ethr =  1.31E-03,  avg # of iterations =  1.0

     total cpu time spent up to now is        3.3 secs

     total energy              =     -31.54469425 Ry
     Harris-Foulkes estimate   =     -31.54699144 Ry
     estimated scf accuracy    <       0.06477325 Ry

     iteration # 30     ecut=    30.00 Ry     beta=0.70
     Davidson diagonalization with overlap
     ethr =  8.10E-04,  avg # of iterations =  1.0

     total cpu time spent up to now is        3.3 secs

     total energy              =     -31.54601668 Ry
     Harris-Foulkes estimate   =     -31.54621515 Ry
     estimated scf accuracy    <       0.00765173 Ry

     iteration # 31     ecut=    30.00 Ry     beta=0.70
     Davidson diagonalization with overlap
     ethr =  9.56E-05,  avg # of iterations =  1.0

     total cpu time spent up to now is        3.3 secs

     total energy              =     -31.54611940 Ry
     Harris-Foulkes estimate   =     -31.54611976 Ry
     estimated scf accuracy    <       0.00001571 Ry

     iteration # 32     ecut=    30.00 Ry     beta=0.70
     Davidson diagonalization with overlap
     ethr =  1.96E-07,  avg # of iterations = 11.0

     total cpu time spent up to now is        3.4 secs

     total energy              =     -31.54611926 Ry
     Harris-Foulkes estimate   =     -31.54611968 Ry
     estimated scf accuracy    <       0.00000806 Ry

     iteration # 33     ecut=    30.00 Ry     beta=0.70
     Davidson diagonalization with overlap
     ethr =  1.01E-07,  avg # of iterations =  1.0

     total cpu time spent up to now is        3.5 secs

     total energy              =     -31.54611942 Ry
     Harris-Foulkes estimate   =     -31.54611947 Ry
     estimated scf accuracy    <       0.00000098 Ry

     iteration # 34     ecut=    30.00 Ry     beta=0.70
     Davidson diagonalization with overlap
     ethr =  1.23E-08,  avg # of iterations =  1.0

     total cpu time spent up to now is        3.5 secs

     total energy              =     -31.54611931 Ry
     Harris-Foulkes estimate   =     -31.54611943 Ry
     estimated scf accuracy    <       0.00000099 Ry

     iteration # 35     ecut=    30.00 Ry     beta=0.70
     Davidson diagonalization with overlap
     ethr =  1.23E-08,  avg # of iterations =  1.0

     total cpu time spent up to now is        3.6 secs

     total energy              =     -31.54611927 Ry
     Harris-Foulkes estimate   =     -31.54611933 Ry
     estimated scf accuracy    <       0.00000002 Ry

     iteration # 36     ecut=    30.00 Ry     beta=0.70
     Davidson diagonalization with overlap
     ethr =  2.40E-10,  avg # of iterations =  1.0

     total cpu time spent up to now is        3.6 secs

     total energy              =     -31.54611927 Ry
     Harris-Foulkes estimate   =     -31.54611927 Ry
     estimated scf accuracy    <       0.00000002 Ry

     iteration # 37     ecut=    30.00 Ry     beta=0.70
     Davidson diagonalization with overlap
     ethr =  2.40E-10,  avg # of iterations =  1.0

     total cpu time spent up to now is        3.6 secs

     End of self-consistent calculation

          k = 0.0000 0.0000 0.0000 ( 22119 PWs)   bands (ev):

   -23.6042  -7.5526  -6.9564  -6.9545  -6.8288  -6.4791  -0.1528   0.7829

     the Fermi energy is    -6.7991 ev

!    total energy              =     -31.54611926 Ry
     Harris-Foulkes estimate   =     -31.54611927 Ry
     estimated scf accuracy    <          8.5E-11 Ry

     convergence has been achieved in  37 iterations

     Forces acting on atoms (Ry/au):

     atom    1 type  2   force =     0.02817703    0.02537138    0.03201310
     atom    2 type  1   force =    -0.02743270   -0.02593275   -0.03240846
     atom    3 type  1   force =    -0.00074433    0.00056137    0.00039536

     Total force =     0.070277     Total SCF correction =     0.000019

     Entering Dynamics:    iteration =     2
                           time      =   0.0097 pico-seconds


     Andersen thermostat:    3 collisions

ATOMIC_POSITIONS (bohr)
O       16.710515293   8.865636661   6.108778215
H       19.181854413  11.174961125   9.247722538
H        5.934732314   5.949124434   3.847233218


     kinetic energy (Ekin) =     0.01321315 Ry
     temperature           =   695.39643012 K 
     Ekin + Etot (const)   =   -31.53290610 Ry
     Message from routine dynamics:
     Total linear momentum <> 0

     Linear momentum :    0.0316409203    0.3676783473    0.1781879288

     Writing output data file pwscf.save

     first order wave-functions extrapolation
     Message from extrapolate_wfcs: 
     the matrix <psi(t-dt)|psi(t)> has  1 small (< 0.1) eigenvalues
     Check: negative starting charge=   -0.339055
     first order charge density extrapolation
     Check: negative starting charge=   -0.338947

     negative rho (up, down):  4.741E-01 0.000E+00

     total cpu time spent up to now is        4.2 secs

     per-process dynamical memory:    20.4 Mb

     Self-consistent Calculation

     iteration #  1     ecut=    30.00 Ry     beta=0.70
     Davidson diagonalization with overlap
     ethr =  1.00E-06,  avg # of iterations = 13.0

     negative rho (up, down):  1.083E-01 0.000E+00

     total cpu time spent up to now is        4.4 secs

     total energy              =      38.87664901 Ry
     Harris-Foulkes estimate   =    -114.39410298 Ry
     estimated scf accuracy    <      16.52646737 Ry

     iteration #  2     ecut=    30.00 Ry     beta=0.70
     Davidson diagonalization with overlap
     ethr =  1.00E-02,  avg # of iterations =  6.0

     negative rho (up, down):  6.765E-02 0.000E+00

     total cpu time spent up to now is        4.5 secs

     total energy              =     -33.50389059 Ry
     Harris-Foulkes estimate   =     -40.92191810 Ry
     estimated scf accuracy    <      15.07501541 Ry

     iteration #  3     ecut=    30.00 Ry     beta=0.70
     Davidson diagonalization with overlap
     ethr =  1.00E-02,  avg # of iterations =  2.0

     negative rho (up, down):  6.088E-02 0.000E+00

     total cpu time spent up to now is        4.5 secs

     total energy              =     -32.99685683 Ry
     Harris-Foulkes estimate   =     -34.19881693 Ry
     estimated scf accuracy    <       7.15018054 Ry

     iteration #  4     ecut=    30.00 Ry     beta=0.70
     Davidson diagonalization with overlap
     ethr =  1.00E-02,  avg # of iterations =  1.0

     negative rho (up, down):  3.710E-02 0.000E+00

     total cpu time spent up to now is        4.6 secs

     total energy              =     -31.92819566 Ry
     Harris-Foulkes estimate   =     -33.53720034 Ry
     estimated scf accuracy    <       4.47143218 Ry

     iteration #  5     ecut=    30.00 Ry     beta=0.70
     Davidson diagonalization with overlap
     ethr =  1.00E-02,  avg # of iterations =  4.0

     negative rho (up, down):  3.310E-02 0.000E+00

     total cpu time spent up to now is        4.6 secs

     total energy              =     -31.65253988 Ry
     Harris-Foulkes estimate   =     -32.04131515 Ry
     estimated scf accuracy    <       1.57055662 Ry

     iteration #  6     ecut=    30.00 Ry     beta=0.70
     Davidson diagonalization with overlap
     ethr =  1.00E-02,  avg # of iterations =  2.0

     negative rho (up, down):  2.152E-02 0.000E+00

     total cpu time spent up to now is        4.7 secs

     total energy              =     -31.54522420 Ry
     Harris-Foulkes estimate   =     -32.03364949 Ry
     estimated scf accuracy    <       1.93921036 Ry

     iteration #  7     ecut=    30.00 Ry     beta=0.70
     Davidson diagonalization with overlap
     ethr =  1.00E-02,  avg # of iterations =  1.0

     negative rho (up, down):  1.437E-02 0.000E+00

     total cpu time spent up to now is        4.7 secs

     total energy              =     -31.54898765 Ry
     Harris-Foulkes estimate   =     -31.61965021 Ry
     estimated scf accuracy    <       0.53388710 Ry

     iteration #  8     ecut=    30.00 Ry     beta=0.70
     Davidson diagonalization with overlap
     ethr =  6.67E-03,  avg # of iterations =  1.0

     negative rho (up, down):  1.680E-02 0.000E+00

     total cpu time spent up to now is        4.8 secs

     total energy              =     -31.57951463 Ry
     Harris-Foulkes estimate   =     -31.56887693 Ry
     estimated scf accuracy    <       0.23743088 Ry

     iteration #  9     ecut=    30.00 Ry     beta=0.70
     Davidson diagonalization with overlap
     ethr =  2.97E-03,  avg # of iterations =  1.0

     negative rho (up, down):  1.630E-02 0.000E+00

     total cpu time spent up to now is        4.8 secs

     total energy              =     -31.59309481 Ry
     Harris-Foulkes estimate   =     -31.60962560 Ry
     estimated scf accuracy    <       1.25824035 Ry

     iteration # 10     ecut=    30.00 Ry     beta=0.70
     Davidson diagonalization with overlap
     ethr =  2.97E-03,  avg # of iterations =  1.0

     negative rho (up, down):  1.240E-02 0.000E+00

     total cpu time spent up to now is        4.9 secs

     total energy              =     -31.34597955 Ry
     Harris-Foulkes estimate   =     -31.59443630 Ry
     estimated scf accuracy    <       0.83775251 Ry

     iteration # 11     ecut=    30.00 Ry     beta=0.70
     Davidson diagonalization with overlap
     ethr =  2.97E-03,  avg # of iterations =  2.0

     negative rho (up, down):  3.162E-03 0.000E+00

     total cpu time spent up to now is        4.9 secs

     total energy              =     -31.75094352 Ry
     Harris-Foulkes estimate   =     -31.78457862 Ry
     estimated scf accuracy    <       1.84277399 Ry

     iteration # 12     ecut=    30.00 Ry     beta=0.70
     Davidson diagonalization with overlap
     ethr =  2.97E-03,  avg # of iterations =  2.0

     negative rho (up, down):  2.595E-05 0.000E+00

     total cpu time spent up to now is        5.0 secs

     total energy              =     -31.69211621 Ry
     Harris-Foulkes estimate   =     -31.84381499 Ry
     estimated scf accuracy    <       2.90359103 Ry

     iteration # 13     ecut=    30.00 Ry     beta=0.70
     Davidson diagonalization with overlap
     ethr =  2.97E-03,  avg # of iterations =  2.0

     negative rho (up, down):  4.163E-03 0.000E+00

     total cpu time spent up to now is        5.0 secs

     total energy              =     -31.58480182 Ry
     Harris-Foulkes estimate   =     -31.70749095 Ry
     estimated scf accuracy    <       2.65329722 Ry

     iteration # 14     ecut=    30.00 Ry     beta=0.70
     Davidson diagonalization with overlap
     ethr =  2.97E-03,  avg # of iterations =  2.0

     negative rho (up, down):  4.230E-03 0.000E+00

     total cpu time spent up to now is        5.1 secs

     total energy              =     -31.64483921 Ry
     Harris-Foulkes estimate   =     -31.68064162 Ry
     estimated scf accuracy    <       1.89063634 Ry

     iteration # 15     ecut=    30.00 Ry     beta=0.70
     Davidson diagonalization with overlap
     ethr =  2.97E-03,  avg # of iterations =  3.0

     negative rho (up, down):  1.756E-03 0.000E+00

     total cpu time spent up to now is        5.1 secs

     total energy              =     -31.10320605 Ry
     Harris-Foulkes estimate   =     -31.77464238 Ry
     estimated scf accuracy    <       3.25732319 Ry

     iteration # 16     ecut=    30.00 Ry     beta=0.70
     Davidson diagonalization with overlap
     ethr =  2.97E-03,  avg # of iterations =  3.0

     negative rho (up, down):  8.546E-05 0.000E+00

     total cpu time spent up to now is        5.2 secs

     total energy              =     -31.56964045 Ry
     Harris-Foulkes estimate   =     -31.56212775 Ry
     estimated scf accuracy    <       0.01624443 Ry

     iteration # 17     ecut=    30.00 Ry     beta=0.70
     Davidson diagonalization with overlap
     ethr =  2.03E-04,  avg # of iterations =  2.0

     negative rho (up, down):  2.309E-07 0.000E+00

     total cpu time spent up to now is        5.2 secs

     total energy              =     -31.56299825 Ry
     Harris-Foulkes estimate   =     -31.61455292 Ry
     estimated scf accuracy    <       1.95186916 Ry

     iteration # 18     ecut=    30.00 Ry     beta=0.70
     Davidson diagonalization with overlap
     ethr =  2.03E-04,  avg # of iterations =  1.0

     negative rho (up, down):  4.562E-05 0.000E+00

     total cpu time spent up to now is        5.3 secs

     total energy              =     -31.58933457 Ry
     Harris-Foulkes estimate   =     -31.58342786 Ry
     estimated scf accuracy    <       0.06888129 Ry

     iteration # 19     ecut=    30.00 Ry     beta=0.70
     Davidson diagonalization with overlap
     ethr =  2.03E-04,  avg # of iterations =  1.0

     negative rho (up, down):  4.397E-08 0.000E+00

     total cpu time spent up to now is        5.3 secs

     total energy              =     -31.56101331 Ry
     Harris-Foulkes estimate   =     -31.59585475 Ry
     estimated scf accuracy    <       0.73389856 Ry

     iteration # 20     ecut=    30.00 Ry     beta=0.70
     Davidson diagonalization with overlap
     ethr =  2.03E-04,  avg # of iterations =  1.0

     negative rho (up, down):  1.539E-08 0.000E+00

     total cpu time spent up to now is        5.4 secs

     total energy              =     -31.58637739 Ry
     Harris-Foulkes estimate   =     -31.58812107 Ry
     estimated scf accuracy    <       0.34889536 Ry

     iteration # 21     ecut=    30.00 Ry     beta=0.70
     Davidson diagonalization with overlap
     ethr =  2.03E-04,  avg # of iterations =  1.0

     negative rho (up, down):  2.287E-08 0.000E+00

     total cpu time spent up to now is        5.4 secs

     total energy              =     -31.58353633 Ry
     Harris-Foulkes estimate   =     -31.58658040 Ry
     estimated scf accuracy    <       0.25020930 Ry

     iteration # 22     ecut=    30.00 Ry     beta=0.70
     Davidson diagonalization with overlap
     ethr =  2.03E-04,  avg # of iterations =  1.0

     negative rho (up, down):  1.255E-07 0.000E+00

     total cpu time spent up to now is        5.5 secs

     total energy              =     -31.58855748 Ry
     Harris-Foulkes estimate   =     -31.58400309 Ry
     estimated scf accuracy    <       0.12570302 Ry

     iteration # 23     ecut=    30.00 Ry     beta=0.70
     Davidson diagonalization with overlap
     ethr =  2.03E-04,  avg # of iterations =  1.0

     negative rho (up, down):  2.252E-03 0.000E+00

     total cpu time spent up to now is        5.5 secs

     total energy              =     -31.49658087 Ry
     Harris-Foulkes estimate   =     -31.59210423 Ry
     estimated scf accuracy    <       0.51856732 Ry

     iteration # 24     ecut=    30.00 Ry     beta=0.70
     Davidson diagonalization with overlap
     ethr =  2.03E-04,  avg # of iterations =  5.0

     negative rho (up, down):  7.928E-08 0.000E+00

     total cpu time spent up to now is        5.6 secs

     total energy              =     -31.55882192 Ry
     Harris-Foulkes estimate   =     -31.57238319 Ry
     estimated scf accuracy    <       0.49352039 Ry

     iteration # 25     ecut=    30.00 Ry     beta=0.70
     Davidson diagonalization with overlap
     ethr =  2.03E-04,  avg # of iterations =  3.0

     negative rho (up, down):  1.633E-07 0.000E+00

     total cpu time spent up to now is        5.6 secs

     total energy              =     -31.58224752 Ry
     Harris-Foulkes estimate   =     -31.58572265 Ry
     estimated scf accuracy    <       0.21872001 Ry

     iteration # 26     ecut=    30.00 Ry     beta=0.70
     Davidson diagonalization with overlap
     ethr =  2.03E-04,  avg # of iterations =  1.0

     total cpu time spent up to now is        5.7 secs

     total energy              =     -31.57910607 Ry
     Harris-Foulkes estimate   =     -31.58293184 Ry
     estimated scf accuracy    <       0.09597584 Ry

     iteration # 27     ecut=    30.00 Ry     beta=0.70
     Davidson diagonalization with overlap
     ethr =  2.03E-04,  avg # of iterations =  1.0

     total cpu time spent up to now is        5.7 secs

     total energy              =     -31.58454016 Ry
     Harris-Foulkes estimate   =     -31.58373344 Ry
     estimated scf accuracy    <       0.19205796 Ry

     iteration # 28     ecut=    30.00 Ry     beta=0.70
     Davidson diagonalization with overlap
     ethr =  2.03E-04,  avg # of iterations =  1.0

     negative rho (up, down):  1.702E-07 0.000E+00

     total cpu time spent up to now is        5.8 secs

     total energy              =     -31.58021144 Ry
     Harris-Foulkes estimate   =     -31.58464762 Ry
     estimated scf accuracy    <       0.27198898 Ry

     iteration # 29     ecut=    30.00 Ry     beta=0.70
     Davidson diagonalization with overlap
     ethr =  2.03E-04,  avg # of iterations =  1.0

     negative rho (up, down):  1.601E-07 0.000E+00

     total cpu time spent up to now is        5.8 secs

     total energy              =     -31.58186510 Ry
     Harris-Foulkes estimate   =     -31.58177380 Ry
     estimated scf accuracy    <       0.05418580 Ry

     iteration # 30     ecut=    30.00 Ry     beta=0.70
     Davidson diagonalization with overlap
     ethr =  2.03E-04,  avg # of iterations =  1.0

     negative rho (up, down):  5.079E-08 0.000E+00

     total cpu time spent up to now is        5.9 secs

     total energy              =     -31.57836914 Ry
     Harris-Foulkes estimate   =     -31.58186654 Ry
     estimated scf accuracy    <       0.05701184 Ry

     iteration # 31     ecut=    30.00 Ry     beta=0.70
     Davidson diagonalization with overlap
     ethr =  2.03E-04,  avg # of iterations =  1.0

     total cpu time spent up to now is        5.9 secs

     total energy              =     -31.57799598 Ry
     Harris-Foulkes estimate   =     -31.58062901 Ry
     estimated scf accuracy    <       0.05437771 Ry

     iteration # 32     ecut=    30.00 Ry     beta=0.70
     Davidson diagonalization with overlap
     ethr =  2.03E-04,  avg # of iterations =  1.0

     total cpu time spent up to now is        6.0 secs

     total energy              =     -31.57957294 Ry
     Harris-Foulkes estimate   =     -31.57960895 Ry
     estimated scf accuracy    <       0.00103744 Ry

     iteration # 33     ecut=    30.00 Ry     beta=0.70
     Davidson diagonalization with overlap
     ethr =  1.30E-05,  avg # of iterations =  1.0

     total cpu time spent up to now is        6.0 secs

     total energy              =     -31.57958123 Ry
     Harris-Foulkes estimate   =     -31.57959314 Ry
     estimated scf accuracy    <       0.00020012 Ry

     iteration # 34     ecut=    30.00 Ry     beta=0.70
     Davidson diagonalization with overlap
     ethr =  2.50E-06,  avg # of iterations = 10.0

     total cpu time spent up to now is        6.1 secs

     total energy              =     -31.57958950 Ry
     Harris-Foulkes estimate   =     -31.57958950 Ry
     estimated scf accuracy    <       0.00000304 Ry

     iteration # 35     ecut=    30.00 Ry     beta=0.70
     Davidson diagonalization with overlap
     ethr =  3.80E-08,  avg # of iterations =  1.0

     total cpu time spent up to now is        6.1 secs

     total energy              =     -31.57959002 Ry
     Harris-Foulkes estimate   =     -31.57958972 Ry
     estimated scf accuracy    <       0.00000017 Ry

     iteration # 36     ecut=    30.00 Ry     beta=0.70
     Davidson diagonalization with overlap
     ethr =  2.10E-09,  avg # of iterations =  2.0

     total cpu time spent up to now is        6.2 secs

     total energy              =     -31.57959002 Ry
     Harris-Foulkes estimate   =     -31.57959004 Ry
     estimated scf accuracy    <       0.00000003 Ry

     iteration # 37     ecut=    30.00 Ry     beta=0.70
     Davidson diagonalization with overlap
     ethr =  3.82E-10,  avg # of iterations =  1.0

     total cpu time spent up to now is        6.2 secs

     End of self-consistent calculation

          k = 0.0000 0.0000 0.0000 ( 22119 PWs)   bands (ev):

   -23.5817  -7.8227  -6.9063  -6.9042  -6.7673  -6.2253  -0.1375   0.8057

     the Fermi energy is    -6.7361 ev

!    total energy              =     -31.57959002 Ry
     Harris-Foulkes estimate   =     -31.57959002 Ry
     estimated scf accuracy    <          8.5E-09 Ry

     convergence has been achieved in  37 iterations

     Forces acting on atoms (Ry/au):

     atom    1 type  2   force =     0.04618280    0.04030164    0.05624432
     atom    2 type  1   force =    -0.04524279   -0.04079674   -0.05630501
     atom    3 type  1   force =    -0.00094002    0.00049510    0.00006068

     Total force =     0.117487     Total SCF correction =     0.000039

     Entering Dynamics:    iteration =     3
                           time      =   0.0145 pico-seconds


     Andersen thermostat:    3 collisions

ATOMIC_POSITIONS (bohr)
O       16.726902287   8.899679937   6.145227989
H       18.818354809  10.817949146   8.925721954
H        6.038635981   5.766836990   3.591811650


     kinetic energy (Ekin) =     0.01084771 Ry
     temperature           =   570.90545834 K 
     Ekin + Etot (const)   =   -31.56874231 Ry
     Message from routine dynamics:
     Total linear momentum <> 0

     Linear momentum :    0.3679424336   -0.4059240373    0.0655390169

     Writing output data file pwscf.save

     second order wave-functions extrapolation
     Check: negative starting charge=   -0.338947
     second order charge density extrapolation
     Check: negative starting charge=   -0.340916

     negative rho (up, down):  8.786E-02 0.000E+00

     total cpu time spent up to now is        6.7 secs

     per-process dynamical memory:    20.4 Mb

     Self-consistent Calculation

     iteration #  1     ecut=    30.00 Ry     beta=0.70
     Davidson diagonalization with overlap
     ethr =  1.00E-06,  avg # of iterations = 16.0

     negative rho (up, down):  2.035E-02 0.000E+00

     total cpu time spent up to now is        6.9 secs

     total energy              =     -12.97315695 Ry
     Harris-Foulkes estimate   =     -44.67823908 Ry
     estimated scf accuracy    <       5.63183307 Ry

     iteration #  2     ecut=    30.00 Ry     beta=0.70
     Davidson diagonalization with overlap
     ethr =  1.00E-02,  avg # of iterations =  3.0

     negative rho (up, down):  1.277E-02 0.000E+00

     total cpu time spent up to now is        7.0 secs

     total energy              =     -32.21367767 Ry
     Harris-Foulkes estimate   =     -34.87395903 Ry
     estimated scf accuracy    <       5.81063661 Ry

     iteration #  3     ecut=    30.00 Ry     beta=0.70
     Davidson diagonalization with overlap
     ethr =  1.00E-02,  avg # of iterations =  2.0

     negative rho (up, down):  1.159E-02 0.000E+00

     total cpu time spent up to now is        7.0 secs

     total energy              =     -32.14985590 Ry
     Harris-Foulkes estimate   =     -32.93499811 Ry
     estimated scf accuracy    <       4.13718451 Ry

     iteration #  4     ecut=    30.00 Ry     beta=0.70
     Davidson diagonalization with overlap
     ethr =  1.00E-02,  avg # of iterations =  1.0

     negative rho (up, down):  9.439E-03 0.000E+00

     total cpu time spent up to now is        7.1 secs

     total energy              =     -31.97998426 Ry
     Harris-Foulkes estimate   =     -32.33531496 Ry
     estimated scf accuracy    <       2.13268865 Ry

     iteration #  5     ecut=    30.00 Ry     beta=0.70
     Davidson diagonalization with overlap
     ethr =  1.00E-02,  avg # of iterations =  1.0

     negative rho (up, down):  6.467E-03 0.000E+00

     total cpu time spent up to now is        7.1 secs

     total energy              =     -31.63374605 Ry
     Harris-Foulkes estimate   =     -32.03547325 Ry
     estimated scf accuracy    <       1.87609899 Ry

     iteration #  6     ecut=    30.00 Ry     beta=0.70
     Davidson diagonalization with overlap
     ethr =  1.00E-02,  avg # of iterations =  2.0

     negative rho (up, down):  4.848E-03 0.000E+00

     total cpu time spent up to now is        7.2 secs

     total energy              =     -31.80171233 Ry
     Harris-Foulkes estimate   =     -31.94731110 Ry
     estimated scf accuracy    <       1.54642324 Ry

     iteration #  7     ecut=    30.00 Ry     beta=0.70
     Davidson diagonalization with overlap
     ethr =  1.00E-02,  avg # of iterations =  1.0

     negative rho (up, down):  3.229E-03 0.000E+00

     total cpu time spent up to now is        7.2 secs

     total energy              =     -31.65030566 Ry
     Harris-Foulkes estimate   =     -31.80376776 Ry
     estimated scf accuracy    <       1.32186468 Ry

     iteration #  8     ecut=    30.00 Ry     beta=0.70
     Davidson diagonalization with overlap
     ethr =  1.00E-02,  avg # of iterations =  1.0

     negative rho (up, down):  2.975E-03 0.000E+00

     total cpu time spent up to now is        7.3 secs

     total energy              =     -31.66152351 Ry
     Harris-Foulkes estimate   =     -31.66396986 Ry
     estimated scf accuracy    <       0.13352622 Ry

     iteration #  9     ecut=    30.00 Ry     beta=0.70
     Davidson diagonalization with overlap
     ethr =  1.67E-03,  avg # of iterations =  1.0

     negative rho (up, down):  2.344E-03 0.000E+00

     total cpu time spent up to now is        7.3 secs

     total energy              =     -31.64070372 Ry
     Harris-Foulkes estimate   =     -31.66584829 Ry
     estimated scf accuracy    <       0.46362479 Ry

     iteration # 10     ecut=    30.00 Ry     beta=0.70
     Davidson diagonalization with overlap
     ethr =  1.67E-03,  avg # of iterations =  1.0

     negative rho (up, down):  2.184E-05 0.000E+00

     total cpu time spent up to now is        7.4 secs

     total energy              =     -31.63478005 Ry
     Harris-Foulkes estimate   =     -31.64755301 Ry
     estimated scf accuracy    <       0.09561125 Ry

     iteration # 11     ecut=    30.00 Ry     beta=0.70
     Davidson diagonalization with overlap
     ethr =  1.20E-03,  avg # of iterations =  1.0

     negative rho (up, down):  1.896E-05 0.000E+00

     total cpu time spent up to now is        7.4 secs

     total energy              =     -31.64198465 Ry
     Harris-Foulkes estimate   =     -31.64436439 Ry
     estimated scf accuracy    <       0.20306152 Ry

     iteration # 12     ecut=    30.00 Ry     beta=0.70
     Davidson diagonalization with overlap
     ethr =  1.20E-03,  avg # of iterations =  1.0

     negative rho (up, down):  5.474E-06 0.000E+00

     total cpu time spent up to now is        7.5 secs

     total energy              =     -31.63644472 Ry
     Harris-Foulkes estimate   =     -31.64258166 Ry
     estimated scf accuracy    <       0.07899259 Ry

     iteration # 13     ecut=    30.00 Ry     beta=0.70
     Davidson diagonalization with overlap
     ethr =  9.87E-04,  avg # of iterations =  1.0

     negative rho (up, down):  1.555E-06 0.000E+00

     total cpu time spent up to now is        7.5 secs

     total energy              =     -31.64761012 Ry
     Harris-Foulkes estimate   =     -31.64460512 Ry
     estimated scf accuracy    <       0.23215875 Ry

     iteration # 14     ecut=    30.00 Ry     beta=0.70
     Davidson diagonalization with overlap
     ethr =  9.87E-04,  avg # of iterations =  1.0

     negative rho (up, down):  2.339E-06 0.000E+00

     total cpu time spent up to now is        7.6 secs

     total energy              =     -31.65404864 Ry
     Harris-Foulkes estimate   =     -31.64823111 Ry
     estimated scf accuracy    <       0.39869150 Ry

     iteration # 15     ecut=    30.00 Ry     beta=0.70
     Davidson diagonalization with overlap
     ethr =  9.87E-04,  avg # of iterations =  1.0

     negative rho (up, down):  5.234E-06 0.000E+00

     total cpu time spent up to now is        7.6 secs

     total energy              =     -31.65999974 Ry
     Harris-Foulkes estimate   =     -31.65513206 Ry
     estimated scf accuracy    <       0.67198248 Ry

     iteration # 16     ecut=    30.00 Ry     beta=0.70
     Davidson diagonalization with overlap
     ethr =  9.87E-04,  avg # of iterations =  1.0

     negative rho (up, down):  6.072E-06 0.000E+00

     total cpu time spent up to now is        7.7 secs

     total energy              =     -31.64615894 Ry
     Harris-Foulkes estimate   =     -31.66018676 Ry
     estimated scf accuracy    <       0.77424902 Ry

     iteration # 17     ecut=    30.00 Ry     beta=0.70
     Davidson diagonalization with overlap
     ethr =  9.87E-04,  avg # of iterations =  1.0

     negative rho (up, down):  8.826E-07 0.000E+00

     total cpu time spent up to now is        7.7 secs

     total energy              =     -31.63882469 Ry
     Harris-Foulkes estimate   =     -31.64773682 Ry
     estimated scf accuracy    <       0.40232886 Ry

     iteration # 18     ecut=    30.00 Ry     beta=0.70
     Davidson diagonalization with overlap
     ethr =  9.87E-04,  avg # of iterations =  1.0

     negative rho (up, down):  1.840E-07 0.000E+00

     total cpu time spent up to now is        7.8 secs

     total energy              =     -31.64054075 Ry
     Harris-Foulkes estimate   =     -31.64134962 Ry
     estimated scf accuracy    <       0.05606408 Ry

     iteration # 19     ecut=    30.00 Ry     beta=0.70
     Davidson diagonalization with overlap
     ethr =  7.01E-04,  avg # of iterations =  1.0

     negative rho (up, down):  1.205E-08 0.000E+00

     total cpu time spent up to now is        7.8 secs

     total energy              =     -31.64054090 Ry
     Harris-Foulkes estimate   =     -31.64078358 Ry
     estimated scf accuracy    <       0.02384570 Ry

     iteration # 20     ecut=    30.00 Ry     beta=0.70
     Davidson diagonalization with overlap
     ethr =  2.98E-04,  avg # of iterations =  1.0

     total cpu time spent up to now is        7.9 secs

     total energy              =     -31.64037074 Ry
     Harris-Foulkes estimate   =     -31.64060631 Ry
     estimated scf accuracy    <       0.00719240 Ry

     iteration # 21     ecut=    30.00 Ry     beta=0.70
     Davidson diagonalization with overlap
     ethr =  8.99E-05,  avg # of iterations =  1.0

     total cpu time spent up to now is        7.9 secs

     total energy              =     -31.64052453 Ry
     Harris-Foulkes estimate   =     -31.64053642 Ry
     estimated scf accuracy    <       0.00084002 Ry

     iteration # 22     ecut=    30.00 Ry     beta=0.70
     Davidson diagonalization with overlap
     ethr =  1.05E-05,  avg # of iterations = 15.0

     total cpu time spent up to now is        8.0 secs

     total energy              =     -31.64052120 Ry
     Harris-Foulkes estimate   =     -31.64052752 Ry
     estimated scf accuracy    <       0.00020910 Ry

     iteration # 23     ecut=    30.00 Ry     beta=0.70
     Davidson diagonalization with overlap
     ethr =  2.61E-06,  avg # of iterations =  7.0

     total cpu time spent up to now is        8.1 secs

     total energy              =     -31.64052401 Ry
     Harris-Foulkes estimate   =     -31.64052411 Ry
     estimated scf accuracy    <       0.00000031 Ry

     iteration # 24     ecut=    30.00 Ry     beta=0.70
     Davidson diagonalization with overlap
     ethr =  3.84E-09,  avg # of iterations =  1.0

     total cpu time spent up to now is        8.1 secs

     End of self-consistent calculation

          k = 0.0000 0.0000 0.0000 ( 22119 PWs)   bands (ev):

   -23.5652  -8.1790  -6.8902  -6.8885  -6.7515  -5.5464  -0.1201   0.8173

     the Fermi energy is    -6.7195 ev

!    total energy              =     -31.64052388 Ry
     Harris-Foulkes estimate   =     -31.64052402 Ry
     estimated scf accuracy    <          6.9E-10 Ry

     convergence has been achieved in  24 iterations

     Forces acting on atoms (Ry/au):

     atom    1 type  2   force =     0.05954899    0.05314445    0.07757342
     atom    2 type  1   force =    -0.05869911   -0.05305800   -0.07725404
     atom    3 type  1   force =    -0.00084988   -0.00008645   -0.00031938

     Total force =     0.156901     Total SCF correction =     0.000072

     Entering Dynamics:    iteration =     4
                           time      =   0.0194 pico-seconds


     Andersen thermostat:    3 collisions

ATOMIC_POSITIONS (bohr)
O       16.735256510   8.916768012   6.221047273
H       18.074389621  10.004117739   7.882001490
H        6.650257037   6.309966213   3.434434548


     kinetic energy (Ekin) =     0.07490544 Ry
     temperature           =  3942.20660975 K 
     Ekin + Etot (const)   =   -31.56561844 Ry
     Message from routine dynamics:
     Total linear momentum <> 0

     Linear momentum :    0.2868737536    0.0527050046   -0.2617939527

     Writing output data file pwscf.save

     second order wave-functions extrapolation
     Check: negative starting charge=   -0.340916
     second order charge density extrapolation
     Check: negative starting charge=   -0.345163

     negative rho (up, down):  2.707E-01 0.000E+00

     total cpu time spent up to now is        8.7 secs

     per-process dynamical memory:    20.4 Mb

     Self-consistent Calculation

     iteration #  1     ecut=    30.00 Ry     beta=0.70
     Davidson diagonalization with overlap
     ethr =  1.00E-06,  avg # of iterations = 15.0

     negative rho (up, down):  4.025E-02 0.000E+00

     total cpu time spent up to now is        8.9 secs

     total energy              =     -10.05899650 Ry
     Harris-Foulkes estimate   =     -46.62986492 Ry
     estimated scf accuracy    <       6.13425996 Ry

     iteration #  2     ecut=    30.00 Ry     beta=0.70
     Davidson diagonalization with overlap
     ethr =  1.00E-02,  avg # of iterations =  4.0

     negative rho (up, down):  2.671E-02 0.000E+00

     total cpu time spent up to now is        9.0 secs

     total energy              =     -32.48946381 Ry
     Harris-Foulkes estimate   =     -36.39973866 Ry
     estimated scf accuracy    <       8.15463037 Ry

     iteration #  3     ecut=    30.00 Ry     beta=0.70
     Davidson diagonalization with overlap
     ethr =  1.00E-02,  avg # of iterations =  2.0

     negative rho (up, down):  1.808E-02 0.000E+00

     total cpu time spent up to now is        9.0 secs

     total energy              =     -32.17933578 Ry
     Harris-Foulkes estimate   =     -32.95761423 Ry
     estimated scf accuracy    <       2.17221514 Ry

     iteration #  4     ecut=    30.00 Ry     beta=0.70
     Davidson diagonalization with overlap
     ethr =  1.00E-02,  avg # of iterations =  3.0

     negative rho (up, down):  4.704E-03 0.000E+00

     total cpu time spent up to now is        9.1 secs

     total energy              =     -31.30929436 Ry
     Harris-Foulkes estimate   =     -32.26580508 Ry
     estimated scf accuracy    <       1.48975594 Ry

     iteration #  5     ecut=    30.00 Ry     beta=0.70
     Davidson diagonalization with overlap
     ethr =  1.00E-02,  avg # of iterations =  2.0

     negative rho (up, down):  1.783E-03 0.000E+00

     total cpu time spent up to now is        9.1 secs

     total energy              =     -31.66212347 Ry
     Harris-Foulkes estimate   =     -33.06692452 Ry
     estimated scf accuracy    <       4.62222739 Ry

     iteration #  6     ecut=    30.00 Ry     beta=0.70
     Davidson diagonalization with overlap
     ethr =  1.00E-02,  avg # of iterations =  3.0

     negative rho (up, down):  6.849E-03 0.000E+00

     total cpu time spent up to now is        9.2 secs

     total energy              =     -31.93654313 Ry
     Harris-Foulkes estimate   =     -31.98714605 Ry
     estimated scf accuracy    <       0.71864133 Ry

     iteration #  7     ecut=    30.00 Ry     beta=0.70
     Davidson diagonalization with overlap
     ethr =  8.98E-03,  avg # of iterations =  1.0

     total cpu time spent up to now is        9.2 secs

     total energy              =     -31.42977823 Ry
     Harris-Foulkes estimate   =     -32.05533680 Ry
     estimated scf accuracy    <       1.13720333 Ry

     iteration #  8     ecut=    30.00 Ry     beta=0.70
     Davidson diagonalization with overlap
     ethr =  8.98E-03,  avg # of iterations =  2.0

     total cpu time spent up to now is        9.3 secs

     total energy              =     -32.70294131 Ry
     Harris-Foulkes estimate   =     -32.72177683 Ry
     estimated scf accuracy    <       2.63386278 Ry

     iteration #  9     ecut=    30.00 Ry     beta=0.70
     Davidson diagonalization with overlap
     ethr =  8.98E-03,  avg # of iterations =  1.0

     total cpu time spent up to now is        9.3 secs

     total energy              =     -32.71045520 Ry
     Harris-Foulkes estimate   =     -32.70437786 Ry
     estimated scf accuracy    <       2.61300014 Ry

     iteration # 10     ecut=    30.00 Ry     beta=0.70
     Davidson diagonalization with overlap
     ethr =  8.98E-03,  avg # of iterations =  1.0

     total cpu time spent up to now is        9.4 secs

     total energy              =     -32.80791816 Ry
     Harris-Foulkes estimate   =     -32.71073527 Ry
     estimated scf accuracy    <       2.64192300 Ry

     iteration # 11     ecut=    30.00 Ry     beta=0.70
     Davidson diagonalization with overlap
     ethr =  8.98E-03,  avg # of iterations =  1.0

     negative rho (up, down):  9.457E-02 0.000E+00

     total cpu time spent up to now is        9.4 secs

     total energy              =     -31.87936590 Ry
     Harris-Foulkes estimate   =     -32.80914494 Ry
     estimated scf accuracy    <       2.83356532 Ry

     iteration # 12     ecut=    30.00 Ry     beta=0.70
     Davidson diagonalization with overlap
     ethr =  8.98E-03,  avg # of iterations =  2.0

     negative rho (up, down):  1.056E-01 0.000E+00

     total cpu time spent up to now is        9.5 secs

     total energy              =     -31.79650812 Ry
     Harris-Foulkes estimate   =     -31.94262663 Ry
     estimated scf accuracy    <       1.50075604 Ry

     iteration # 13     ecut=    30.00 Ry     beta=0.70
     Davidson diagonalization with overlap
     ethr =  8.98E-03,  avg # of iterations =  1.0

     negative rho (up, down):  9.116E-02 0.000E+00

     total cpu time spent up to now is        9.5 secs

     total energy              =     -31.82181329 Ry
     Harris-Foulkes estimate   =     -31.95474696 Ry
     estimated scf accuracy    <       1.01224044 Ry

     iteration # 14     ecut=    30.00 Ry     beta=0.70
     Davidson diagonalization with overlap
     ethr =  8.98E-03,  avg # of iterations =  1.0

     negative rho (up, down):  2.134E-02 0.000E+00

     total cpu time spent up to now is        9.6 secs

     total energy              =     -32.11635251 Ry
     Harris-Foulkes estimate   =     -31.96517428 Ry
     estimated scf accuracy    <       1.24988426 Ry

     iteration # 15     ecut=    30.00 Ry     beta=0.70
     Davidson diagonalization with overlap
     ethr =  8.98E-03,  avg # of iterations =  1.0

     negative rho (up, down):  3.462E-03 0.000E+00

     total cpu time spent up to now is        9.6 secs

     total energy              =     -32.10459880 Ry
     Harris-Foulkes estimate   =     -32.11775625 Ry
     estimated scf accuracy    <       1.49650689 Ry

     iteration # 16     ecut=    30.00 Ry     beta=0.70
     Davidson diagonalization with overlap
     ethr =  8.98E-03,  avg # of iterations =  1.0

     negative rho (up, down):  8.792E-04 0.000E+00

     total cpu time spent up to now is        9.6 secs

     total energy              =     -32.09167527 Ry
     Harris-Foulkes estimate   =     -32.10516978 Ry
     estimated scf accuracy    <       1.49246275 Ry

     iteration # 17     ecut=    30.00 Ry     beta=0.70
     Davidson diagonalization with overlap
     ethr =  8.98E-03,  avg # of iterations =  1.0

     negative rho (up, down):  1.367E-04 0.000E+00

     total cpu time spent up to now is        9.7 secs

     total energy              =     -31.99510812 Ry
     Harris-Foulkes estimate   =     -32.09176777 Ry
     estimated scf accuracy    <       1.47475047 Ry

     iteration # 18     ecut=    30.00 Ry     beta=0.70
     Davidson diagonalization with overlap
     ethr =  8.98E-03,  avg # of iterations =  1.0

     negative rho (up, down):  3.362E-08 0.000E+00

     total cpu time spent up to now is        9.7 secs

     total energy              =     -31.97498154 Ry
     Harris-Foulkes estimate   =     -31.99632116 Ry
     estimated scf accuracy    <       1.29482145 Ry

     iteration # 19     ecut=    30.00 Ry     beta=0.70
     Davidson diagonalization with overlap
     ethr =  8.98E-03,  avg # of iterations =  1.0

     total cpu time spent up to now is        9.8 secs

     total energy              =     -31.96527688 Ry
     Harris-Foulkes estimate   =     -31.97513136 Ry
     estimated scf accuracy    <       1.27581913 Ry

     iteration # 20     ecut=    30.00 Ry     beta=0.70
     Davidson diagonalization with overlap
     ethr =  8.98E-03,  avg # of iterations =  1.0

     total cpu time spent up to now is        9.8 secs

     total energy              =     -31.92325955 Ry
     Harris-Foulkes estimate   =     -31.96529349 Ry
     estimated scf accuracy    <       1.29070085 Ry

     iteration # 21     ecut=    30.00 Ry     beta=0.70
     Davidson diagonalization with overlap
     ethr =  8.98E-03,  avg # of iterations =  1.0

     total cpu time spent up to now is        9.9 secs

     total energy              =     -31.94226171 Ry
     Harris-Foulkes estimate   =     -31.92036001 Ry
     estimated scf accuracy    <       1.31467639 Ry

     iteration # 22     ecut=    30.00 Ry     beta=0.70
     Davidson diagonalization with overlap
     ethr =  8.98E-03,  avg # of iterations =  1.0

     total cpu time spent up to now is        9.9 secs

     total energy              =     -31.77732744 Ry
     Harris-Foulkes estimate   =     -31.94374324 Ry
     estimated scf accuracy    <       1.50194260 Ry

     iteration # 23     ecut=    30.00 Ry     beta=0.70
     Davidson diagonalization with overlap
     ethr =  8.98E-03,  avg # of iterations =  1.0

     total cpu time spent up to now is       10.0 secs

     total energy              =     -31.91451749 Ry
     Harris-Foulkes estimate   =     -31.96906319 Ry
     estimated scf accuracy    <       0.98805345 Ry

     iteration # 24     ecut=    30.00 Ry     beta=0.70
     Davidson diagonalization with overlap
     ethr =  8.98E-03,  avg # of iterations =  1.0

     total cpu time spent up to now is       10.0 secs

     total energy              =     -31.91616067 Ry
     Harris-Foulkes estimate   =     -31.91577976 Ry
     estimated scf accuracy    <       0.71412253 Ry

     iteration # 25     ecut=    30.00 Ry     beta=0.70
     Davidson diagonalization with overlap
     ethr =  8.93E-03,  avg # of iterations =  1.0

     total cpu time spent up to now is       10.1 secs

     total energy              =     -31.92625304 Ry
     Harris-Foulkes estimate   =     -31.91618075 Ry
     estimated scf accuracy    <       0.72084066 Ry

     iteration # 26     ecut=    30.00 Ry     beta=0.70
     Davidson diagonalization with overlap
     ethr =  8.93E-03,  avg # of iterations =  1.0

     total cpu time spent up to now is       10.1 secs

     total energy              =     -31.87980859 Ry
     Harris-Foulkes estimate   =     -31.92679393 Ry
     estimated scf accuracy    <       0.87102905 Ry

     iteration # 27     ecut=    30.00 Ry     beta=0.70
     Davidson diagonalization with overlap
     ethr =  8.93E-03,  avg # of iterations =  1.0

     total cpu time spent up to now is       10.2 secs

     total energy              =     -31.89287498 Ry
     Harris-Foulkes estimate   =     -31.90043944 Ry
     estimated scf accuracy    <       0.06128534 Ry

     iteration # 28     ecut=    30.00 Ry     beta=0.70
     Davidson diagonalization with overlap
     ethr =  7.66E-04,  avg # of iterations =  1.0

     total cpu time spent up to now is       10.2 secs

     total energy              =     -31.95019735 Ry
     Harris-Foulkes estimate   =     -31.91022054 Ry
     estimated scf accuracy    <       0.54405413 Ry

     iteration # 29     ecut=    30.00 Ry     beta=0.70
     Davidson diagonalization with overlap
     ethr =  7.66E-04,  avg # of iterations =  1.0

     negative rho (up, down):  1.467E-07 0.000E+00

     total cpu time spent up to now is       10.3 secs

     total energy              =     -31.91037433 Ry
     Harris-Foulkes estimate   =     -31.95921364 Ry
     estimated scf accuracy    <       0.96237659 Ry

     iteration # 30     ecut=    30.00 Ry     beta=0.70
     Davidson diagonalization with overlap
     ethr =  7.66E-04,  avg # of iterations =  1.0

     negative rho (up, down):  6.647E-08 0.000E+00

     total cpu time spent up to now is       10.3 secs

     total energy              =     -31.92927589 Ry
     Harris-Foulkes estimate   =     -31.91211982 Ry
     estimated scf accuracy    <       0.60349772 Ry

     iteration # 31     ecut=    30.00 Ry     beta=0.70
     Davidson diagonalization with overlap
     ethr =  7.66E-04,  avg # of iterations =  1.0

     negative rho (up, down):  3.898E-07 0.000E+00

     total cpu time spent up to now is       10.4 secs

     total energy              =     -31.93229611 Ry
     Harris-Foulkes estimate   =     -31.93150187 Ry
     estimated scf accuracy    <       0.89181049 Ry

     iteration # 32     ecut=    30.00 Ry     beta=0.70
     Davidson diagonalization with overlap
     ethr =  7.66E-04,  avg # of iterations =  1.0

     negative rho (up, down):  5.299E-07 0.000E+00

     total cpu time spent up to now is       10.4 secs

     total energy              =     -31.93066576 Ry
     Harris-Foulkes estimate   =     -31.93229893 Ry
     estimated scf accuracy    <       0.89525719 Ry

     iteration # 33     ecut=    30.00 Ry     beta=0.70
     Davidson diagonalization with overlap
     ethr =  7.66E-04,  avg # of iterations =  1.0

     negative rho (up, down):  2.222E-07 0.000E+00

     total cpu time spent up to now is       10.5 secs

     total energy              =     -31.93224159 Ry
     Harris-Foulkes estimate   =     -31.93066834 Ry
     estimated scf accuracy    <       0.88757958 Ry

     iteration # 34     ecut=    30.00 Ry     beta=0.70
     Davidson diagonalization with overlap
     ethr =  7.66E-04,  avg # of iterations =  1.0

     total cpu time spent up to now is       10.5 secs

     total energy              =     -31.96993510 Ry
     Harris-Foulkes estimate   =     -31.93224535 Ry
     estimated scf accuracy    <       0.89612607 Ry

     iteration # 35     ecut=    30.00 Ry     beta=0.70
     Davidson diagonalization with overlap
     ethr =  7.66E-04,  avg # of iterations =  1.0

     negative rho (up, down):  6.880E-07 0.000E+00

     total cpu time spent up to now is       10.5 secs

     total energy              =     -31.87382085 Ry
     Harris-Foulkes estimate   =     -31.97043541 Ry
     estimated scf accuracy    <       0.98019260 Ry

     iteration # 36     ecut=    30.00 Ry     beta=0.70
     Davidson diagonalization with overlap
     ethr =  7.66E-04,  avg # of iterations =  1.0

     negative rho (up, down):  2.081E-08 0.000E+00

     total cpu time spent up to now is       10.6 secs

     total energy              =     -31.89468039 Ry
     Harris-Foulkes estimate   =     -31.90192686 Ry
     estimated scf accuracy    <       0.18330058 Ry

     iteration # 37     ecut=    30.00 Ry     beta=0.70
     Davidson diagonalization with overlap
     ethr =  7.66E-04,  avg # of iterations =  1.0

     total cpu time spent up to now is       10.6 secs

     total energy              =     -31.89852362 Ry
     Harris-Foulkes estimate   =     -31.90040986 Ry
     estimated scf accuracy    <       0.05189484 Ry

     iteration # 38     ecut=    30.00 Ry     beta=0.70
     Davidson diagonalization with overlap
     ethr =  6.49E-04,  avg # of iterations =  1.0

     total cpu time spent up to now is       10.7 secs

     total energy              =     -31.89990252 Ry
     Harris-Foulkes estimate   =     -31.89972313 Ry
     estimated scf accuracy    <       0.00525438 Ry

     iteration # 39     ecut=    30.00 Ry     beta=0.70
     Davidson diagonalization with overlap
     ethr =  6.57E-05,  avg # of iterations =  1.0

     total cpu time spent up to now is       10.7 secs

     total energy              =     -31.89828402 Ry
     Harris-Foulkes estimate   =     -31.90002162 Ry
     estimated scf accuracy    <       0.02778037 Ry

     iteration # 40     ecut=    30.00 Ry     beta=0.70
     Davidson diagonalization with overlap
     ethr =  6.57E-05,  avg # of iterations =  1.0

     total cpu time spent up to now is       10.8 secs

     total energy              =     -31.89929993 Ry
     Harris-Foulkes estimate   =     -31.90038582 Ry
     estimated scf accuracy    <       0.05193701 Ry

     iteration # 41     ecut=    30.00 Ry     beta=0.70
     Davidson diagonalization with overlap
     ethr =  6.57E-05,  avg # of iterations =  1.0

     total cpu time spent up to now is       10.8 secs

     total energy              =     -31.89947225 Ry
     Harris-Foulkes estimate   =     -31.89970046 Ry
     estimated scf accuracy    <       0.00312352 Ry

     iteration # 42     ecut=    30.00 Ry     beta=0.70
     Davidson diagonalization with overlap
     ethr =  3.90E-05,  avg # of iterations =  1.0

     total cpu time spent up to now is       10.9 secs

     total energy              =     -31.89961151 Ry
     Harris-Foulkes estimate   =     -31.89980014 Ry
     estimated scf accuracy    <       0.01084926 Ry

     iteration # 43     ecut=    30.00 Ry     beta=0.70
     Davidson diagonalization with overlap
     ethr =  3.90E-05,  avg # of iterations =  1.0

     total cpu time spent up to now is       10.9 secs

     total energy              =     -31.89966336 Ry
     Harris-Foulkes estimate   =     -31.89967447 Ry
     estimated scf accuracy    <       0.00115978 Ry

     iteration # 44     ecut=    30.00 Ry     beta=0.70
     Davidson diagonalization with overlap
     ethr =  1.45E-05,  avg # of iterations =  1.0

     total cpu time spent up to now is       11.0 secs

     total energy              =     -31.89965375 Ry
     Harris-Foulkes estimate   =     -31.89966547 Ry
     estimated scf accuracy    <       0.00045588 Ry

     iteration # 45     ecut=    30.00 Ry     beta=0.70
     Davidson diagonalization with overlap
     ethr =  5.70E-06,  avg # of iterations = 14.0

     total cpu time spent up to now is       11.0 secs

     total energy              =     -31.89965941 Ry
     Harris-Foulkes estimate   =     -31.89965947 Ry
     estimated scf accuracy    <       0.00000014 Ry

     iteration # 46     ecut=    30.00 Ry     beta=0.70
     Davidson diagonalization with overlap
     ethr =  1.69E-09,  avg # of iterations =  2.0

     total cpu time spent up to now is       11.1 secs

     total energy              =     -31.89965949 Ry
     Harris-Foulkes estimate   =     -31.89965942 Ry
     estimated scf accuracy    <       0.00000014 Ry

     iteration # 47     ecut=    30.00 Ry     beta=0.70
     Davidson diagonalization with overlap
     ethr =  1.69E-09,  avg # of iterations =  1.0

     total cpu time spent up to now is       11.1 secs

     total energy              =     -31.89965952 Ry
     Harris-Foulkes estimate   =     -31.89965949 Ry
     estimated scf accuracy    <       0.00000024 Ry

     iteration # 48     ecut=    30.00 Ry     beta=0.70
     Davidson diagonalization with overlap
     ethr =  1.69E-09,  avg # of iterations =  1.0

     total cpu time spent up to now is       11.2 secs

     total energy              =     -31.89965954 Ry
     Harris-Foulkes estimate   =     -31.89965952 Ry
     estimated scf accuracy    <       0.00000013 Ry

     iteration # 49     ecut=    30.00 Ry     beta=0.70
     Davidson diagonalization with overlap
     ethr =  1.57E-09,  avg # of iterations =  1.0

     total cpu time spent up to now is       11.2 secs

     End of self-consistent calculation

          k = 0.0000 0.0000 0.0000 ( 22119 PWs)   bands (ev):

   -24.0379  -9.9509  -6.9437  -6.9426  -6.8043  -1.5402   0.0970   0.8404

     the Fermi energy is    -6.7729 ev

!    total energy              =     -31.89965954 Ry
     Harris-Foulkes estimate   =     -31.89965954 Ry
     estimated scf accuracy    <          6.5E-10 Ry

     convergence has been achieved in  49 iterations

     Forces acting on atoms (Ry/au):

     atom    1 type  2   force =     0.10618572    0.08604949    0.13180159
     atom    2 type  1   force =    -0.10590031   -0.08585085   -0.13166057
     atom    3 type  1   force =    -0.00028541   -0.00019864   -0.00014102

     Total force =     0.268275     Total SCF correction =     0.000006

     Entering Dynamics:    iteration =     5
                           time      =   0.0242 pico-seconds


     Andersen thermostat:    3 collisions

ATOMIC_POSITIONS (bohr)
O       16.807143347   8.976672819   6.345422975
H       16.481076869   9.221510701   6.102464784
H        7.104768411   6.143586221   3.243663096


     kinetic energy (Ekin) =     0.12469014 Ry
     temperature           =  6562.33109204 K 
     Ekin + Etot (const)   =   -31.77496940 Ry
     Message from routine dynamics:
     Total linear momentum <> 0

     Linear momentum :   -0.1210900472    0.3090709673    0.1362435771

     Writing output data file pwscf.save

     second order wave-functions extrapolation
     Check: negative starting charge=   -0.345163
     second order charge density extrapolation
     Check: negative starting charge=   -0.355060

     negative rho (up, down):  6.194E-01 0.000E+00

     total cpu time spent up to now is       11.8 secs

     per-process dynamical memory:    20.4 Mb

     Self-consistent Calculation

     iteration #  1     ecut=    30.00 Ry     beta=0.70
     Davidson diagonalization with overlap
     ethr =  1.00E-06,  avg # of iterations = 14.0

     negative rho (up, down):  1.179E-01 0.000E+00

     total cpu time spent up to now is       12.0 secs

     total energy              =      25.58826515 Ry
     Harris-Foulkes estimate   =    -217.84439370 Ry
     estimated scf accuracy    <      10.22433202 Ry

[...]
     Harris-Foulkes estimate   =   -2189.23739946 Ry
     estimated scf accuracy    <      44.08670972 Ry

     iteration # 59     ecut=    30.00 Ry     beta=0.70
     Davidson diagonalization with overlap
     ethr =  1.00E-02,  avg # of iterations =  5.0

     negative rho (up, down):  8.144E-01 0.000E+00

     total cpu time spent up to now is       16.4 secs

     total energy              =      56.81431533 Ry
     Harris-Foulkes estimate   =   -1297.87302659 Ry
     estimated scf accuracy    <      45.15777451 Ry

     iteration # 60     ecut=    30.00 Ry     beta=0.70
     Davidson diagonalization with overlap
     ethr =  1.00E-02,  avg # of iterations =  8.0

     negative rho (up, down):  1.429E+00 0.000E+00

     total cpu time spent up to now is       16.5 secs

     total energy              =     107.19854599 Ry
     Harris-Foulkes estimate   =   -4337.01927574 Ry
     estimated scf accuracy    <      39.45916290 Ry

     iteration # 61     ecut=    30.00 Ry     beta=0.70
     Davidson diagonalization with overlap
     ethr =  1.00E-02,  avg # of iterations =  9.0

     negative rho (up, down):  1.921E+00 0.000E+00

     total cpu time spent up to now is       16.5 secs

     total energy              =    -112.99227861 Ry
     Harris-Foulkes estimate   =   -1222.00100825 Ry
     estimated scf accuracy    <      26.19339568 Ry

     iteration # 62     ecut=    30.00 Ry     beta=0.70
     Davidson diagonalization with overlap
     ethr =  1.00E-02,  avg # of iterations =  8.0

     negative rho (up, down):  1.550E+00 0.000E+00

     total cpu time spent up to now is       16.6 secs

     total energy              =      92.39508820 Ry
     Harris-Foulkes estimate   =   -3816.60032955 Ry
     estimated scf accuracy    <      26.68577534 Ry

     iteration # 63     ecut=    30.00 Ry     beta=0.70
     Davidson diagonalization with overlap
     ethr =  1.00E-02,  avg # of iterations =  8.0

     negative rho (up, down):  1.612E+00 0.000E+00

     total cpu time spent up to now is       16.7 secs

     total energy              =      13.23025829 Ry
     Harris-Foulkes estimate   =   -1446.54657715 Ry
     estimated scf accuracy    <      29.85097517 Ry

     iteration # 64     ecut=    30.00 Ry     beta=0.70
     Davidson diagonalization with overlap
     ethr =  1.00E-02,  avg # of iterations =  9.0

     negative rho (up, down):  1.546E+00 0.000E+00

     total cpu time spent up to now is       16.8 secs

     total energy              =     100.95220882 Ry
     Harris-Foulkes estimate   =  -36696.91264518 Ry
     estimated scf accuracy    <      25.54328675 Ry

     iteration # 65     ecut=    30.00 Ry     beta=0.70
     Davidson diagonalization with overlap
     ethr =  1.00E-02,  avg # of iterations =  7.0

     negative rho (up, down):  7.669E-01 0.000E+00

     total cpu time spent up to now is       16.9 secs

     total energy              =      90.55284521 Ry
     Harris-Foulkes estimate   =   -3566.99667001 Ry
     estimated scf accuracy    <      23.84594812 Ry

     iteration # 66     ecut=    30.00 Ry     beta=0.70
     Davidson diagonalization with overlap
     ethr =  1.00E-02,  avg # of iterations =  8.0

     negative rho (up, down):  4.156E-01 0.000E+00

     total cpu time spent up to now is       17.0 secs

     total energy              =     176.04492281 Ry
     Harris-Foulkes estimate   =   -6456.14577494 Ry
     estimated scf accuracy    <      25.73458696 Ry

     iteration # 67     ecut=    30.00 Ry     beta=0.70
     Davidson diagonalization with overlap
     ethr =  1.00E-02,  avg # of iterations = 12.0

     negative rho (up, down):  3.681E-01 0.000E+00

     total cpu time spent up to now is       17.1 secs

     total energy              =     168.51030540 Ry
     Harris-Foulkes estimate   =   -1451.71768629 Ry
     estimated scf accuracy    <      22.84323783 Ry

     iteration # 68     ecut=    30.00 Ry     beta=0.70
     Davidson diagonalization with overlap
     ethr =  1.00E-02,  avg # of iterations =  7.0

     negative rho (up, down):  1.060E-01 0.000E+00

     total cpu time spent up to now is       17.2 secs

     total energy              =     139.03201734 Ry
     Harris-Foulkes estimate   =    -453.76105163 Ry
     estimated scf accuracy    <      36.15610888 Ry

     iteration # 69     ecut=    30.00 Ry     beta=0.70
     Davidson diagonalization with overlap
     ethr =  1.00E-02,  avg # of iterations =  9.0

     negative rho (up, down):  5.270E-02 0.000E+00

     total cpu time spent up to now is       17.3 secs

     total energy              =      39.60013229 Ry
     Harris-Foulkes estimate   =    -736.66759397 Ry
     estimated scf accuracy    <      22.78269192 Ry

     iteration # 70     ecut=    30.00 Ry     beta=0.70
     Davidson diagonalization with overlap
     ethr =  1.00E-02,  avg # of iterations =  5.0

     negative rho (up, down):  4.178E-03 0.000E+00

     total cpu time spent up to now is       17.4 secs

     total energy              =     159.65930892 Ry
     Harris-Foulkes estimate   =   -1156.10354814 Ry
     estimated scf accuracy    <      21.64346019 Ry

     iteration # 71     ecut=    30.00 Ry     beta=0.70
     Davidson diagonalization with overlap
     ethr =  1.00E-02,  avg # of iterations = 11.0

     negative rho (up, down):  3.605E-03 0.000E+00

     total cpu time spent up to now is       17.5 secs

     total energy              =      -9.53529740 Ry
     Harris-Foulkes estimate   =     -83.71550912 Ry
     estimated scf accuracy    <      34.98881442 Ry

     iteration # 72     ecut=    30.00 Ry     beta=0.70
     Davidson diagonalization with overlap
     ethr =  1.00E-02,  avg # of iterations =  4.0

     negative rho (up, down):  7.018E-04 0.000E+00

     total cpu time spent up to now is       17.5 secs

     total energy              =     -54.63964552 Ry
     Harris-Foulkes estimate   =     -56.43917842 Ry
     estimated scf accuracy    <      49.77654693 Ry

     iteration # 73     ecut=    30.00 Ry     beta=0.70
     Davidson diagonalization with overlap
     ethr =  1.00E-02,  avg # of iterations =  1.0

     negative rho (up, down):  5.150E-04 0.000E+00

     total cpu time spent up to now is       17.6 secs

     total energy              =     -55.04312226 Ry
     Harris-Foulkes estimate   =     -54.64275207 Ry
     estimated scf accuracy    <      47.35634183 Ry

     iteration # 74     ecut=    30.00 Ry     beta=0.70
     Davidson diagonalization with overlap
     ethr =  1.00E-02,  avg # of iterations =  1.0

     negative rho (up, down):  4.164E-01 0.000E+00

     total cpu time spent up to now is       17.6 secs

     total energy              =     -44.14015449 Ry
     Harris-Foulkes estimate   =     -55.04373462 Ry
     estimated scf accuracy    <      47.83042213 Ry

     iteration # 75     ecut=    30.00 Ry     beta=0.70
     Davidson diagonalization with overlap
     ethr =  1.00E-02,  avg # of iterations =  8.0

     negative rho (up, down):  6.498E-01 0.000E+00

     total cpu time spent up to now is       17.7 secs

     total energy              =     110.63281545 Ry
     Harris-Foulkes estimate   =   -1703.93835819 Ry
     estimated scf accuracy    <      45.49310588 Ry

     iteration # 76     ecut=    30.00 Ry     beta=0.70
     Davidson diagonalization with overlap
     ethr =  1.00E-02,  avg # of iterations =  7.0

     negative rho (up, down):  8.613E-01 0.000E+00

     total cpu time spent up to now is       17.8 secs

     total energy              =      79.73832702 Ry
     Harris-Foulkes estimate   =    -187.93390883 Ry
     estimated scf accuracy    <      42.30025417 Ry

     iteration # 77     ecut=    30.00 Ry     beta=0.70
     Davidson diagonalization with overlap
     ethr =  1.00E-02,  avg # of iterations =  7.0

     negative rho (up, down):  4.255E-01 0.000E+00

     total cpu time spent up to now is       17.9 secs

     total energy              =     139.41948301 Ry
     Harris-Foulkes estimate   =    -644.65737760 Ry
     estimated scf accuracy    <      39.04247289 Ry

     iteration # 78     ecut=    30.00 Ry     beta=0.70
     Davidson diagonalization with overlap
     ethr =  1.00E-02,  avg # of iterations =  9.0

     negative rho (up, down):  7.316E-01 0.000E+00

     total cpu time spent up to now is       18.0 secs

     total energy              =      41.52248125 Ry
     Harris-Foulkes estimate   =    -226.24595453 Ry
     estimated scf accuracy    <      19.88802898 Ry

     iteration # 79     ecut=    30.00 Ry     beta=0.70
     Davidson diagonalization with overlap
     ethr =  1.00E-02,  avg # of iterations = 10.0

     negative rho (up, down):  1.010E-01 0.000E+00

     total cpu time spent up to now is       18.1 secs

     total energy              =     122.48543119 Ry
     Harris-Foulkes estimate   =    -499.29162735 Ry
     estimated scf accuracy    <      34.64518310 Ry

     iteration # 80     ecut=    30.00 Ry     beta=0.70
     Davidson diagonalization with overlap
     ethr =  1.00E-02,  avg # of iterations =  7.0

     negative rho (up, down):  1.416E-02 0.000E+00

     total cpu time spent up to now is       18.2 secs

     total energy              =     162.19713363 Ry
     Harris-Foulkes estimate   =   -9465.17779530 Ry
     estimated scf accuracy    <      25.90318782 Ry

     iteration # 81     ecut=    30.00 Ry     beta=0.70
     Davidson diagonalization with overlap
     ethr =  1.00E-02,  avg # of iterations = 12.0

     negative rho (up, down):  1.217E-01 0.000E+00

     total cpu time spent up to now is       18.3 secs

     total energy              =     -37.51037668 Ry
     Harris-Foulkes estimate   =     -44.31599473 Ry
     estimated scf accuracy    <      33.82942814 Ry

     iteration # 82     ecut=    30.00 Ry     beta=0.70
     Davidson diagonalization with overlap
     ethr =  1.00E-02,  avg # of iterations = 14.0

     negative rho (up, down):  1.016E-01 0.000E+00

     total cpu time spent up to now is       18.4 secs

     total energy              =      62.58603125 Ry
     Harris-Foulkes estimate   =    -261.36544382 Ry
     estimated scf accuracy    <      37.86357423 Ry

     iteration # 83     ecut=    30.00 Ry     beta=0.70
     Davidson diagonalization with overlap
     ethr =  1.00E-02,  avg # of iterations = 10.0

     negative rho (up, down):  1.503E-01 0.000E+00

     total cpu time spent up to now is       18.5 secs

     total energy              =     -20.27679785 Ry
     Harris-Foulkes estimate   =    -350.41008733 Ry
     estimated scf accuracy    <      12.54412312 Ry

     iteration # 84     ecut=    30.00 Ry     beta=0.70
     Davidson diagonalization with overlap
     ethr =  1.00E-02,  avg # of iterations =  4.0

     negative rho (up, down):  1.476E-01 0.000E+00

     total cpu time spent up to now is       18.5 secs

     total energy              =      27.99035123 Ry
     Harris-Foulkes estimate   =   -1738.87673924 Ry
     estimated scf accuracy    <      12.84025672 Ry

     iteration # 85     ecut=    30.00 Ry     beta=0.70
     Davidson diagonalization with overlap
     ethr =  1.00E-02,  avg # of iterations =  6.0

     negative rho (up, down):  1.405E-01 0.000E+00

     total cpu time spent up to now is       18.6 secs

     total energy              =      -3.57614994 Ry
     Harris-Foulkes estimate   =    -105.41547100 Ry
     estimated scf accuracy    <      17.46089615 Ry

     iteration # 86     ecut=    30.00 Ry     beta=0.70
     Davidson diagonalization with overlap
     ethr =  1.00E-02,  avg # of iterations =  6.0

     negative rho (up, down):  1.298E-01 0.000E+00

     total cpu time spent up to now is       18.7 secs

     total energy              =    -558.98582774 Ry
     Harris-Foulkes estimate   =    -854.76988411 Ry
     estimated scf accuracy    <      44.74370702 Ry

     iteration # 87     ecut=    30.00 Ry     beta=0.70
     Davidson diagonalization with overlap
     ethr =  1.00E-02,  avg # of iterations =  4.0

     negative rho (up, down):  1.148E-02 0.000E+00

     total cpu time spent up to now is       18.7 secs

     total energy              =     158.73945428 Ry
     Harris-Foulkes estimate   =   -3106.52732555 Ry
     estimated scf accuracy    <      41.30109133 Ry

     iteration # 88     ecut=    30.00 Ry     beta=0.70
     Davidson diagonalization with overlap
     ethr =  1.00E-02,  avg # of iterations =  7.0

     negative rho (up, down):  1.438E-01 0.000E+00

     total cpu time spent up to now is       18.8 secs

     total energy              =     -33.69565299 Ry
     Harris-Foulkes estimate   =     -39.42120106 Ry
     estimated scf accuracy    <      27.50391090 Ry

     iteration # 89     ecut=    30.00 Ry     beta=0.70
     Davidson diagonalization with overlap
     ethr =  1.00E-02,  avg # of iterations = 10.0

     negative rho (up, down):  1.660E-01 0.000E+00

     total cpu time spent up to now is       18.9 secs

     total energy              =      77.28423904 Ry
     Harris-Foulkes estimate   =    -189.29576729 Ry
     estimated scf accuracy    <      18.91262757 Ry

     iteration # 90     ecut=    30.00 Ry     beta=0.70
     Davidson diagonalization with overlap
     ethr =  1.00E-02,  avg # of iterations =  9.0

     negative rho (up, down):  6.187E-02 0.000E+00

     total cpu time spent up to now is       19.0 secs

     total energy              =     102.96295717 Ry
     Harris-Foulkes estimate   =    -216.63334275 Ry
     estimated scf accuracy    <      17.49253193 Ry

     iteration # 91     ecut=    30.00 Ry     beta=0.70
     Davidson diagonalization with overlap
     ethr =  1.00E-02,  avg # of iterations =  8.0

     negative rho (up, down):  6.561E-02 0.000E+00

     total cpu time spent up to now is       19.1 secs

     total energy              =       0.66109974 Ry
     Harris-Foulkes estimate   =     -49.59303024 Ry
     estimated scf accuracy    <      15.30508284 Ry

     iteration # 92     ecut=    30.00 Ry     beta=0.70
     Davidson diagonalization with overlap
     ethr =  1.00E-02,  avg # of iterations = 10.0

     negative rho (up, down):  5.472E-02 0.000E+00

     total cpu time spent up to now is       19.1 secs

     total energy              =     -32.81842593 Ry
     Harris-Foulkes estimate   =     -34.80910119 Ry
     estimated scf accuracy    <      21.36732529 Ry

     iteration # 93     ecut=    30.00 Ry     beta=0.70
     Davidson diagonalization with overlap
     ethr =  1.00E-02,  avg # of iterations =  1.0

     negative rho (up, down):  2.081E-02 0.000E+00

     total cpu time spent up to now is       19.2 secs

     total energy              =     -31.60281385 Ry
     Harris-Foulkes estimate   =     -32.82970696 Ry
     estimated scf accuracy    <      18.90490976 Ry

     iteration # 94     ecut=    30.00 Ry     beta=0.70
     Davidson diagonalization with overlap
     ethr =  1.00E-02,  avg # of iterations =  4.0

     negative rho (up, down):  1.431E-02 0.000E+00

     total cpu time spent up to now is       19.3 secs

     total energy              =      12.78880324 Ry
     Harris-Foulkes estimate   =    -155.57319782 Ry
     estimated scf accuracy    <       8.76748980 Ry

     iteration # 95     ecut=    30.00 Ry     beta=0.70
     Davidson diagonalization with overlap
     ethr =  1.00E-02,  avg # of iterations =  6.0

     negative rho (up, down):  1.644E-02 0.000E+00

     total cpu time spent up to now is       19.3 secs

     total energy              =     -10.24733318 Ry
     Harris-Foulkes estimate   =     -31.34777024 Ry
     estimated scf accuracy    <      11.32813542 Ry

     iteration # 96     ecut=    30.00 Ry     beta=0.70
     Davidson diagonalization with overlap
     ethr =  1.00E-02,  avg # of iterations =  5.0

     negative rho (up, down):  1.035E-01 0.000E+00

     total cpu time spent up to now is       19.4 secs

     total energy              =      26.44043847 Ry
     Harris-Foulkes estimate   =     -60.31782253 Ry
     estimated scf accuracy    <      13.93675105 Ry

     iteration # 97     ecut=    30.00 Ry     beta=0.70
     Davidson diagonalization with overlap
     ethr =  1.00E-02,  avg # of iterations =  5.0

     negative rho (up, down):  2.378E-01 0.000E+00

     total cpu time spent up to now is       19.4 secs

     total energy              =      -2.07251664 Ry
     Harris-Foulkes estimate   =     -37.29406492 Ry
     estimated scf accuracy    <       9.57384091 Ry

     iteration # 98     ecut=    30.00 Ry     beta=0.70
     Davidson diagonalization with overlap
     ethr =  1.00E-02,  avg # of iterations =  4.0

     negative rho (up, down):  3.684E-01 0.000E+00

     total cpu time spent up to now is       19.5 secs

     total energy              =     -20.50935424 Ry
     Harris-Foulkes estimate   =     -95.62849716 Ry
     estimated scf accuracy    <      10.71628175 Ry

     iteration # 99     ecut=    30.00 Ry     beta=0.70
     Davidson diagonalization with overlap
     ethr =  1.00E-02,  avg # of iterations =  6.0

     negative rho (up, down):  4.140E-01 0.000E+00

     total cpu time spent up to now is       19.6 secs

     total energy              =     270.02473874 Ry
     Harris-Foulkes estimate   =    -266.31343215 Ry
     estimated scf accuracy    <      28.22631638 Ry

     iteration #100     ecut=    30.00 Ry     beta=0.70
     Davidson diagonalization with overlap
     ethr =  1.00E-02,  avg # of iterations =  6.0

     negative rho (up, down):  3.935E-01 0.000E+00

     total cpu time spent up to now is       19.7 secs

     total energy              =      14.96075615 Ry
     Harris-Foulkes estimate   =     -88.95521672 Ry
     estimated scf accuracy    <      11.42325056 Ry

     End of self-consistent calculation

     convergence NOT achieved after 100 iterations: stopping

     Writing output data file pwscf.save
 
     init_run     :      0.17s CPU      0.19s WALL (       1 calls)
     electrons    :     14.35s CPU     17.19s WALL (       6 calls)
     update_pot   :      1.02s CPU      1.50s WALL (       5 calls)
     forces       :      0.21s CPU      0.21s WALL (       5 calls)

     Called by init_run:
     wfcinit      :      0.01s CPU      0.02s WALL (       1 calls)
     potinit      :      0.05s CPU      0.05s WALL (       1 calls)

     Called by electrons:
     c_bands      :      7.50s CPU      7.80s WALL (     266 calls)
     sum_band     :      1.35s CPU      1.42s WALL (     266 calls)
     v_of_rho     :      3.22s CPU      3.35s WALL (     272 calls)
     mix_rho      :      1.83s CPU      3.59s WALL (     266 calls)

     Called by c_bands:
     init_us_2    :      0.04s CPU      0.05s WALL (     533 calls)
     cegterg      :      7.43s CPU      7.65s WALL (     266 calls)

     Called by sum_band:

     Called by *egterg:
     h_psi        :      6.29s CPU      6.43s WALL (    1282 calls)
     g_psi        :      0.07s CPU      0.08s WALL (    1015 calls)
     cdiaghg      :      0.44s CPU      0.47s WALL (    1276 calls)

     Called by h_psi:
     h_psi:pot    :      6.26s CPU      6.39s WALL (    1282 calls)
     h_psi:calbec :      0.06s CPU      0.07s WALL (    1282 calls)
     vloc_psi     :      6.17s CPU      6.30s WALL (    1282 calls)
     add_vuspsi   :      0.02s CPU      0.02s WALL (    1282 calls)

     General routines
     calbec       :      0.07s CPU      0.09s WALL (    1306 calls)
     fft          :      2.04s CPU      2.13s WALL (    3002 calls)
     fftw         :      6.48s CPU      6.64s WALL (   16706 calls)
     davcio       :      0.33s CPU      1.60s WALL (    4799 calls)
 
     Parallel routines
     fft_scatter  :      2.70s CPU      2.82s WALL (   19708 calls)
 
     PWSCF        :    16.12s CPU        19.80s WALL

 
   This run was terminated on:  13:39:59  13Feb2018            

=------------------------------------------------------------------------------=
   JOB DONE.
=------------------------------------------------------------------------------=
