
     Program PWSCF v.6.0 (svn rev. 13079) starts on 13Feb2018 at 13:40:55 

     This program is part of the open-source Quantum ESPRESSO suite
     for quantum simulation of materials; please cite
         "P. Giannozzi et al., J. Phys.:Condens. Matter 21 395502 (2009);
          URL http://www.quantum-espresso.org", 
     in publications or presentations arising from this work. More details at
     http://www.quantum-espresso.org/quote

     Parallel version (MPI), running on    28 processors
     R & G space division:  proc/nbgrp/npool/nimage =      28
     Reading input from inputs/MD-H2O-round1/135.in

     Current dimensions of program PWSCF are:
     Max number of different atomic species (ntypx) = 10
     Max number of k-points (npk) =  40000
     Max angular momentum in pseudopotentials (lmaxx) =  3

     Subspace diagonalization in iterative solution of the eigenvalue problem:
     a serial algorithm will be used

 
     Parallelization info
     --------------------
     sticks:   dense  smooth     PW     G-vecs:    dense   smooth      PW
     Min         136     136     33                 6338     6338     787
     Max         137     137     34                 6341     6341     792
     Sum        3809    3809    949               177509   177509   22119
 


     bravais-lattice index     =            1
     lattice parameter (alat)  =      20.0000  a.u.
     unit-cell volume          =    8000.0000 (a.u.)^3
     number of atoms/cell      =            3
     number of atomic types    =            2
     number of electrons       =         8.00
     number of Kohn-Sham states=            8
     kinetic-energy cutoff     =      30.0000  Ry
     charge density cutoff     =     120.0000  Ry
     convergence threshold     =      1.0E-08
     mixing beta               =       0.7000
     number of iterations used =            8  plain     mixing
     Exchange-correlation      = BLYP ( 1  3  1  3 0 0)
     nstep                     =         5000


     celldm(1)=  20.000000  celldm(2)=   0.000000  celldm(3)=   0.000000
     celldm(4)=   0.000000  celldm(5)=   0.000000  celldm(6)=   0.000000

     crystal axes: (cart. coord. in units of alat)
               a(1) = (   1.000000   0.000000   0.000000 )  
               a(2) = (   0.000000   1.000000   0.000000 )  
               a(3) = (   0.000000   0.000000   1.000000 )  

     reciprocal axes: (cart. coord. in units 2 pi/alat)
               b(1) = (  1.000000  0.000000  0.000000 )  
               b(2) = (  0.000000  1.000000  0.000000 )  
               b(3) = (  0.000000  0.000000  1.000000 )  


     PseudoPot. # 1 for  H read from file:
     ./H.blyp-hgh.UPF
     MD5 check sum: c576e69559cde411e611be972c763230
     Pseudo is Norm-conserving, Zval =  1.0
     Generated in analytical, separable form
     Using radial grid of  929 points,  0 beta functions with: 

     PseudoPot. # 2 for  O read from file:
     ./O.blyp-hgh.UPF
     MD5 check sum: d0b7156309aa9befef28faac7bc56342
     Pseudo is Norm-conserving, Zval =  6.0
     Generated in analytical, separable form
     Using radial grid of 1095 points,  1 beta functions with: 
                l(1) =   0

     atomic species   valence    mass     pseudopotential
        H              1.00     1.01000      H( 1.00)
        O              6.00    16.00000      O( 1.00)

     No symmetry found



   Cartesian axes

     site n.     atom                  positions (alat units)
         1           O   tau(   1) = (   0.3524222   0.4373434   0.6519609  )
         2           H   tau(   2) = (   0.3305137   0.4894129   0.7085335  )
         3           H   tau(   3) = (   0.2046676   0.8922541   0.1051702  )

     number of k points=     1  Marzari-Vanderbilt smearing, width (Ry)=  0.0250
                       cart. coord. in units 2pi/alat
        k(    1) = (   0.0000000   0.0000000   0.0000000), wk =   2.0000000

     Dense  grid:   177509 G-vectors     FFT dimensions: (  72,  72,  72)

     Estimated max dynamical RAM per process >       6.09Mb

     Estimated total allocated dynamical RAM >     170.64Mb

     Initial potential from superposition of free atoms
     Check: negative starting charge=   -0.353051

     starting charge    7.99998, renormalised to    8.00000

     negative rho (up, down):  3.531E-01 0.000E+00
     Starting wfc are    6 randomized atomic wfcs +    2 random wfc

     total cpu time spent up to now is        0.3 secs

     per-process dynamical memory:    18.8 Mb

     Self-consistent Calculation

     iteration #  1     ecut=    30.00 Ry     beta=0.70
     Davidson diagonalization with overlap
     ethr =  1.00E-02,  avg # of iterations =  7.0

     negative rho (up, down):  9.542E-02 0.000E+00

     total cpu time spent up to now is        0.4 secs

     total energy              =     -31.53007401 Ry
     Harris-Foulkes estimate   =     -32.07388866 Ry
     estimated scf accuracy    <       0.57759389 Ry

     iteration #  2     ecut=    30.00 Ry     beta=0.70
     Davidson diagonalization with overlap
     ethr =  7.22E-03,  avg # of iterations =  3.0

     negative rho (up, down):  7.349E-02 0.000E+00

     total cpu time spent up to now is        0.7 secs

     total energy              =     -31.73169156 Ry
     Harris-Foulkes estimate   =     -32.45718885 Ry
     estimated scf accuracy    <       2.40824031 Ry

     iteration #  3     ecut=    30.00 Ry     beta=0.70
     Davidson diagonalization with overlap
     ethr =  7.22E-03,  avg # of iterations =  2.0

     negative rho (up, down):  2.944E-02 0.000E+00

     total cpu time spent up to now is        0.7 secs

     total energy              =     -31.80346810 Ry
     Harris-Foulkes estimate   =     -31.78559669 Ry
     estimated scf accuracy    <       0.04363578 Ry

     iteration #  4     ecut=    30.00 Ry     beta=0.70
     Davidson diagonalization with overlap
     ethr =  5.45E-04,  avg # of iterations =  3.0

     negative rho (up, down):  2.502E-03 0.000E+00

     total cpu time spent up to now is        0.8 secs

     total energy              =     -31.81830478 Ry
     Harris-Foulkes estimate   =     -31.81097491 Ry
     estimated scf accuracy    <       0.05913419 Ry

     iteration #  5     ecut=    30.00 Ry     beta=0.70
     Davidson diagonalization with overlap
     ethr =  5.45E-04,  avg # of iterations =  3.0

     negative rho (up, down):  1.765E-03 0.000E+00

     total cpu time spent up to now is        0.9 secs

     total energy              =     -31.85164687 Ry
     Harris-Foulkes estimate   =     -31.91630023 Ry
     estimated scf accuracy    <       1.33295113 Ry

     iteration #  6     ecut=    30.00 Ry     beta=0.70
     Davidson diagonalization with overlap
     ethr =  5.45E-04,  avg # of iterations =  1.0

     negative rho (up, down):  1.593E-03 0.000E+00

     total cpu time spent up to now is        0.9 secs

     total energy              =     -31.83249050 Ry
     Harris-Foulkes estimate   =     -31.84854424 Ry
     estimated scf accuracy    <       0.87548533 Ry

     iteration #  7     ecut=    30.00 Ry     beta=0.70
     Davidson diagonalization with overlap
     ethr =  5.45E-04,  avg # of iterations =  1.0

     negative rho (up, down):  3.157E-04 0.000E+00

     total cpu time spent up to now is        0.9 secs

     total energy              =     -31.83376471 Ry
     Harris-Foulkes estimate   =     -31.83811124 Ry
     estimated scf accuracy    <       0.06792008 Ry

     iteration #  8     ecut=    30.00 Ry     beta=0.70
     Davidson diagonalization with overlap
     ethr =  5.45E-04,  avg # of iterations =  1.0

     negative rho (up, down):  1.109E-05 0.000E+00

     total cpu time spent up to now is        1.0 secs

     total energy              =     -31.84215543 Ry
     Harris-Foulkes estimate   =     -31.84057996 Ry
     estimated scf accuracy    <       0.19026539 Ry

     iteration #  9     ecut=    30.00 Ry     beta=0.70
     Davidson diagonalization with overlap
     ethr =  5.45E-04,  avg # of iterations =  1.0

     negative rho (up, down):  7.180E-08 0.000E+00

     total cpu time spent up to now is        1.0 secs

     total energy              =     -31.83927868 Ry
     Harris-Foulkes estimate   =     -31.84234527 Ry
     estimated scf accuracy    <       0.28944633 Ry

     iteration # 10     ecut=    30.00 Ry     beta=0.70
     Davidson diagonalization with overlap
     ethr =  5.45E-04,  avg # of iterations =  1.0

     negative rho (up, down):  4.643E-07 0.000E+00

     total cpu time spent up to now is        1.1 secs

     total energy              =     -31.83275871 Ry
     Harris-Foulkes estimate   =     -31.83974159 Ry
     estimated scf accuracy    <       0.13546903 Ry

     iteration # 11     ecut=    30.00 Ry     beta=0.70
     Davidson diagonalization with overlap
     ethr =  5.45E-04,  avg # of iterations =  1.0

     negative rho (up, down):  3.300E-07 0.000E+00

     total cpu time spent up to now is        1.1 secs

     total energy              =     -31.83288474 Ry
     Harris-Foulkes estimate   =     -31.83944725 Ry
     estimated scf accuracy    <       0.13457459 Ry

     iteration # 12     ecut=    30.00 Ry     beta=0.70
     Davidson diagonalization with overlap
     ethr =  5.45E-04,  avg # of iterations =  1.0

     negative rho (up, down):  1.180E-08 0.000E+00

     total cpu time spent up to now is        1.2 secs

     total energy              =     -31.83614579 Ry
     Harris-Foulkes estimate   =     -31.83935605 Ry
     estimated scf accuracy    <       0.11004555 Ry

     iteration # 13     ecut=    30.00 Ry     beta=0.70
     Davidson diagonalization with overlap
     ethr =  5.45E-04,  avg # of iterations =  1.0

     total cpu time spent up to now is        1.2 secs

     total energy              =     -31.83780988 Ry
     Harris-Foulkes estimate   =     -31.83781204 Ry
     estimated scf accuracy    <       0.00064087 Ry

     iteration # 14     ecut=    30.00 Ry     beta=0.70
     Davidson diagonalization with overlap
     ethr =  8.01E-06,  avg # of iterations = 10.0

     total cpu time spent up to now is        1.3 secs

     total energy              =     -31.83779877 Ry
     Harris-Foulkes estimate   =     -31.83781047 Ry
     estimated scf accuracy    <       0.00050247 Ry

     iteration # 15     ecut=    30.00 Ry     beta=0.70
     Davidson diagonalization with overlap
     ethr =  6.28E-06,  avg # of iterations =  1.0

     total cpu time spent up to now is        1.3 secs

     total energy              =     -31.83780409 Ry
     Harris-Foulkes estimate   =     -31.83780429 Ry
     estimated scf accuracy    <       0.00000242 Ry

     iteration # 16     ecut=    30.00 Ry     beta=0.70
     Davidson diagonalization with overlap
     ethr =  3.02E-08,  avg # of iterations =  1.0

     total cpu time spent up to now is        1.4 secs

     total energy              =     -31.83780402 Ry
     Harris-Foulkes estimate   =     -31.83780424 Ry
     estimated scf accuracy    <       0.00000377 Ry

     iteration # 17     ecut=    30.00 Ry     beta=0.70
     Davidson diagonalization with overlap
     ethr =  3.02E-08,  avg # of iterations =  1.0

     total cpu time spent up to now is        1.4 secs

     total energy              =     -31.83780399 Ry
     Harris-Foulkes estimate   =     -31.83780404 Ry
     estimated scf accuracy    <       0.00000069 Ry

     iteration # 18     ecut=    30.00 Ry     beta=0.70
     Davidson diagonalization with overlap
     ethr =  8.57E-09,  avg # of iterations =  1.0

     total cpu time spent up to now is        1.5 secs

     total energy              =     -31.83780399 Ry
     Harris-Foulkes estimate   =     -31.83780400 Ry
     estimated scf accuracy    <       0.00000042 Ry

     iteration # 19     ecut=    30.00 Ry     beta=0.70
     Davidson diagonalization with overlap
     ethr =  5.19E-09,  avg # of iterations =  1.0

     total cpu time spent up to now is        1.5 secs

     total energy              =     -31.83780398 Ry
     Harris-Foulkes estimate   =     -31.83780399 Ry
     estimated scf accuracy    <       0.00000009 Ry

     iteration # 20     ecut=    30.00 Ry     beta=0.70
     Davidson diagonalization with overlap
     ethr =  1.12E-09,  avg # of iterations =  1.0

     total cpu time spent up to now is        1.6 secs

     total energy              =     -31.83780396 Ry
     Harris-Foulkes estimate   =     -31.83780398 Ry
     estimated scf accuracy    <       0.00000009 Ry

     iteration # 21     ecut=    30.00 Ry     beta=0.70
     Davidson diagonalization with overlap
     ethr =  1.06E-09,  avg # of iterations =  1.0

     total cpu time spent up to now is        1.7 secs

     total energy              =     -31.83780395 Ry
     Harris-Foulkes estimate   =     -31.83780396 Ry
     estimated scf accuracy    <       0.00000004 Ry

     iteration # 22     ecut=    30.00 Ry     beta=0.70
     Davidson diagonalization with overlap
     ethr =  5.53E-10,  avg # of iterations =  1.0

     total cpu time spent up to now is        1.7 secs

     End of self-consistent calculation

          k = 0.0000 0.0000 0.0000 ( 22119 PWs)   bands (ev):

   -26.2054 -11.0922  -7.1753  -7.1750  -7.0317  -0.4612   0.5133   0.8120

     the Fermi energy is    -7.0034 ev

!    total energy              =     -31.83780378 Ry
     Harris-Foulkes estimate   =     -31.83780395 Ry
     estimated scf accuracy    <          3.4E-09 Ry

     convergence has been achieved in  22 iterations

     Forces acting on atoms (Ry/au):

     atom    1 type  2   force =     0.17247648   -0.40929645   -0.44472151
     atom    2 type  1   force =    -0.17222592    0.40913114    0.44463272
     atom    3 type  1   force =    -0.00025056    0.00016531    0.00008880

     Total force =     0.888705     Total SCF correction =     0.000062

     Molecular Dynamics Calculation

     Starting temperature  =  1000.00 K

     temperature is controlled by Andersen thermostat
     Collision frequency = 1.0000/timestep
     mass H                =     1.01
     mass O                =    16.00
     Time step             =   100.00 a.u.,  4.8378 femto-seconds

     Entering Dynamics:    iteration =     1
                           time      =   0.0048 pico-seconds


     Andersen thermostat:    3 collisions

ATOMIC_POSITIONS (bohr)
O        7.095071491   8.599104306  12.865007439
H        5.676365329  12.190900528  16.488350622
H        4.288624193  17.783235626   2.545479799


     kinetic energy (Ekin) =     0.01337019 Ry
     temperature           =   703.66124461 K 
     Ekin + Etot (const)   =   -31.82443359 Ry

     Linear momentum :    0.0000000000   -0.0000000000   -0.0000000000

     Writing output data file pwscf.save
     Check: negative starting charge=   -0.353051
     NEW-OLD atomic charge density approx. for the potential
     Check: negative starting charge=   -0.345275

     negative rho (up, down):  4.632E-01 0.000E+00

     total cpu time spent up to now is        2.2 secs

     per-process dynamical memory:    20.4 Mb

     Self-consistent Calculation

     iteration #  1     ecut=    30.00 Ry     beta=0.70
     Davidson diagonalization with overlap
     ethr =  1.00E-06,  avg # of iterations = 14.0

     negative rho (up, down):  1.117E-01 0.000E+00

     total cpu time spent up to now is        2.3 secs

     total energy              =     -12.61246180 Ry
     Harris-Foulkes estimate   =     -38.60923878 Ry
     estimated scf accuracy    <       9.94416527 Ry

     iteration #  2     ecut=    30.00 Ry     beta=0.70
     Davidson diagonalization with overlap
     ethr =  1.00E-02,  avg # of iterations =  4.0

     negative rho (up, down):  7.734E-02 0.000E+00

     total cpu time spent up to now is        2.4 secs

     total energy              =     -32.72389281 Ry
     Harris-Foulkes estimate   =     -40.43484557 Ry
     estimated scf accuracy    <      17.23142723 Ry

     iteration #  3     ecut=    30.00 Ry     beta=0.70
     Davidson diagonalization with overlap
     ethr =  1.00E-02,  avg # of iterations =  4.0

     negative rho (up, down):  5.251E-02 0.000E+00

     total cpu time spent up to now is        2.5 secs

     total energy              =     -31.30558565 Ry
     Harris-Foulkes estimate   =     -33.26366792 Ry
     estimated scf accuracy    <       5.64711173 Ry

     iteration #  4     ecut=    30.00 Ry     beta=0.70
     Davidson diagonalization with overlap
     ethr =  1.00E-02,  avg # of iterations =  3.0

     negative rho (up, down):  4.705E-02 0.000E+00

     total cpu time spent up to now is        2.5 secs

     total energy              =     -31.19838354 Ry
     Harris-Foulkes estimate   =     -32.35663284 Ry
     estimated scf accuracy    <       4.93215867 Ry

     iteration #  5     ecut=    30.00 Ry     beta=0.70
     Davidson diagonalization with overlap
     ethr =  1.00E-02,  avg # of iterations =  1.0

     negative rho (up, down):  1.870E-02 0.000E+00

     total cpu time spent up to now is        2.6 secs

     total energy              =     -31.44521592 Ry
     Harris-Foulkes estimate   =     -32.26330329 Ry
     estimated scf accuracy    <       3.90230429 Ry

     iteration #  6     ecut=    30.00 Ry     beta=0.70
     Davidson diagonalization with overlap
     ethr =  1.00E-02,  avg # of iterations =  1.0

     negative rho (up, down):  1.751E-02 0.000E+00

     total cpu time spent up to now is        2.6 secs

     total energy              =     -31.53622676 Ry
     Harris-Foulkes estimate   =     -31.55361383 Ry
     estimated scf accuracy    <       0.66875035 Ry

     iteration #  7     ecut=    30.00 Ry     beta=0.70
     Davidson diagonalization with overlap
     ethr =  8.36E-03,  avg # of iterations =  1.0

     negative rho (up, down):  1.748E-02 0.000E+00

     total cpu time spent up to now is        2.6 secs

     total energy              =     -31.54745552 Ry
     Harris-Foulkes estimate   =     -31.54689033 Ry
     estimated scf accuracy    <       0.22591110 Ry

     iteration #  8     ecut=    30.00 Ry     beta=0.70
     Davidson diagonalization with overlap
     ethr =  2.82E-03,  avg # of iterations =  1.0

     negative rho (up, down):  1.083E-02 0.000E+00

     total cpu time spent up to now is        2.7 secs

     total energy              =     -31.53142557 Ry
     Harris-Foulkes estimate   =     -31.54800255 Ry
     estimated scf accuracy    <       0.24665040 Ry

     iteration #  9     ecut=    30.00 Ry     beta=0.70
     Davidson diagonalization with overlap
     ethr =  2.82E-03,  avg # of iterations =  1.0

     negative rho (up, down):  5.524E-03 0.000E+00

     total cpu time spent up to now is        2.7 secs

     total energy              =     -31.71762186 Ry
     Harris-Foulkes estimate   =     -31.67677909 Ry
     estimated scf accuracy    <       3.01855495 Ry

     iteration # 10     ecut=    30.00 Ry     beta=0.70
     Davidson diagonalization with overlap
     ethr =  2.82E-03,  avg # of iterations =  1.0

     negative rho (up, down):  2.159E-04 0.000E+00

     total cpu time spent up to now is        2.8 secs

     total energy              =     -31.84677222 Ry
     Harris-Foulkes estimate   =     -31.71926332 Ry
     estimated scf accuracy    <       3.04318945 Ry

     iteration # 11     ecut=    30.00 Ry     beta=0.70
     Davidson diagonalization with overlap
     ethr =  2.82E-03,  avg # of iterations =  1.0

     negative rho (up, down):  6.127E-05 0.000E+00

     total cpu time spent up to now is        2.8 secs

     total energy              =     -31.51570787 Ry
     Harris-Foulkes estimate   =     -31.85163631 Ry
     estimated scf accuracy    <       3.57481748 Ry

     iteration # 12     ecut=    30.00 Ry     beta=0.70
     Davidson diagonalization with overlap
     ethr =  2.82E-03,  avg # of iterations =  1.0

     negative rho (up, down):  8.643E-05 0.000E+00

     total cpu time spent up to now is        2.9 secs

     total energy              =     -31.57174523 Ry
     Harris-Foulkes estimate   =     -31.59583611 Ry
     estimated scf accuracy    <       1.23718419 Ry

     iteration # 13     ecut=    30.00 Ry     beta=0.70
     Davidson diagonalization with overlap
     ethr =  2.82E-03,  avg # of iterations =  1.0

     negative rho (up, down):  2.122E-04 0.000E+00

     total cpu time spent up to now is        2.9 secs

     total energy              =     -31.56534537 Ry
     Harris-Foulkes estimate   =     -31.57123240 Ry
     estimated scf accuracy    <       1.20587557 Ry

     iteration # 14     ecut=    30.00 Ry     beta=0.70
     Davidson diagonalization with overlap
     ethr =  2.82E-03,  avg # of iterations =  1.0

     negative rho (up, down):  1.113E-04 0.000E+00

     total cpu time spent up to now is        3.0 secs

     total energy              =     -31.44713271 Ry
     Harris-Foulkes estimate   =     -31.57705959 Ry
     estimated scf accuracy    <       1.76746587 Ry

     iteration # 15     ecut=    30.00 Ry     beta=0.70
     Davidson diagonalization with overlap
     ethr =  2.82E-03,  avg # of iterations =  1.0

     negative rho (up, down):  2.065E-05 0.000E+00

     total cpu time spent up to now is        3.0 secs

     total energy              =     -31.47914688 Ry
     Harris-Foulkes estimate   =     -31.58176464 Ry
     estimated scf accuracy    <       1.54214272 Ry

     iteration # 16     ecut=    30.00 Ry     beta=0.70
     Davidson diagonalization with overlap
     ethr =  2.82E-03,  avg # of iterations =  1.0

     negative rho (up, down):  1.629E-06 0.000E+00

     total cpu time spent up to now is        3.1 secs

     total energy              =     -31.52525792 Ry
     Harris-Foulkes estimate   =     -31.56380323 Ry
     estimated scf accuracy    <       1.55988654 Ry

     iteration # 17     ecut=    30.00 Ry     beta=0.70
     Davidson diagonalization with overlap
     ethr =  2.82E-03,  avg # of iterations =  1.0

     negative rho (up, down):  4.710E-06 0.000E+00

     total cpu time spent up to now is        3.1 secs

     total energy              =     -31.53780907 Ry
     Harris-Foulkes estimate   =     -31.53831266 Ry
     estimated scf accuracy    <       0.05242839 Ry

     iteration # 18     ecut=    30.00 Ry     beta=0.70
     Davidson diagonalization with overlap
     ethr =  6.55E-04,  avg # of iterations =  1.0

     negative rho (up, down):  3.881E-07 0.000E+00

     total cpu time spent up to now is        3.2 secs

     total energy              =     -31.53671379 Ry
     Harris-Foulkes estimate   =     -31.53794629 Ry
     estimated scf accuracy    <       0.03289817 Ry

     iteration # 19     ecut=    30.00 Ry     beta=0.70
     Davidson diagonalization with overlap
     ethr =  4.11E-04,  avg # of iterations =  1.0

     total cpu time spent up to now is        3.2 secs

     total energy              =     -31.53783607 Ry
     Harris-Foulkes estimate   =     -31.53776687 Ry
     estimated scf accuracy    <       0.01307494 Ry

     iteration # 20     ecut=    30.00 Ry     beta=0.70
     Davidson diagonalization with overlap
     ethr =  1.63E-04,  avg # of iterations =  1.0

     total cpu time spent up to now is        3.3 secs

     total energy              =     -31.53689444 Ry
     Harris-Foulkes estimate   =     -31.53785912 Ry
     estimated scf accuracy    <       0.02137714 Ry

     iteration # 21     ecut=    30.00 Ry     beta=0.70
     Davidson diagonalization with overlap
     ethr =  1.63E-04,  avg # of iterations =  1.0

     total cpu time spent up to now is        3.3 secs

     total energy              =     -31.53726230 Ry
     Harris-Foulkes estimate   =     -31.53782944 Ry
     estimated scf accuracy    <       0.01937869 Ry

     iteration # 22     ecut=    30.00 Ry     beta=0.70
     Davidson diagonalization with overlap
     ethr =  1.63E-04,  avg # of iterations =  1.0

     total cpu time spent up to now is        3.4 secs

     total energy              =     -31.53760349 Ry
     Harris-Foulkes estimate   =     -31.53761515 Ry
     estimated scf accuracy    <       0.00111251 Ry

     iteration # 23     ecut=    30.00 Ry     beta=0.70
     Davidson diagonalization with overlap
     ethr =  1.39E-05,  avg # of iterations =  7.0

     total cpu time spent up to now is        3.4 secs

     total energy              =     -31.53759611 Ry
     Harris-Foulkes estimate   =     -31.53760606 Ry
     estimated scf accuracy    <       0.00037544 Ry

     iteration # 24     ecut=    30.00 Ry     beta=0.70
     Davidson diagonalization with overlap
     ethr =  4.69E-06,  avg # of iterations = 11.0

     total cpu time spent up to now is        3.5 secs

     total energy              =     -31.53760107 Ry
     Harris-Foulkes estimate   =     -31.53760104 Ry
     estimated scf accuracy    <       0.00000032 Ry

     iteration # 25     ecut=    30.00 Ry     beta=0.70
     Davidson diagonalization with overlap
     ethr =  4.05E-09,  avg # of iterations =  1.0

     total cpu time spent up to now is        3.5 secs

     End of self-consistent calculation

          k = 0.0000 0.0000 0.0000 ( 22119 PWs)   bands (ev):

   -23.6821  -7.5281  -7.0465  -7.0464  -6.9333  -6.5737  -0.1616   0.6682

     the Fermi energy is    -6.8990 ev

!    total energy              =     -31.53760109 Ry
     Harris-Foulkes estimate   =     -31.53760107 Ry
     estimated scf accuracy    <          9.7E-09 Ry

     convergence has been achieved in  25 iterations

     Forces acting on atoms (Ry/au):

     atom    1 type  2   force =    -0.01257172    0.03071935    0.03156602
     atom    2 type  1   force =     0.01241147   -0.03066564   -0.03116585
     atom    3 type  1   force =     0.00016026   -0.00005371   -0.00040016

     Total force =     0.064530     Total SCF correction =     0.000054

     Entering Dynamics:    iteration =     2
                           time      =   0.0097 pico-seconds


     Andersen thermostat:    3 collisions

ATOMIC_POSITIONS (bohr)
O        7.088960341   8.604490809  12.882555735
H        5.854986796  11.732235852  16.293927205
H        4.206813013  18.156569559   2.461910410


     kinetic energy (Ekin) =     0.01367030 Ry
     temperature           =   719.45560739 K 
     Ekin + Etot (const)   =   -31.52393079 Ry
     Message from routine dynamics:
     Total linear momentum <> 0

     Linear momentum :    0.0316409203    0.3676783473    0.1781879288

     Writing output data file pwscf.save

     first order wave-functions extrapolation
     Check: negative starting charge=   -0.345275
     first order charge density extrapolation
     Check: negative starting charge=   -0.344979

     negative rho (up, down):  4.594E-01 0.000E+00

     total cpu time spent up to now is        4.0 secs

     per-process dynamical memory:    20.4 Mb

     Self-consistent Calculation

     iteration #  1     ecut=    30.00 Ry     beta=0.70
     Davidson diagonalization with overlap
     ethr =  1.00E-06,  avg # of iterations = 11.0

     negative rho (up, down):  9.044E-02 0.000E+00

     total cpu time spent up to now is        4.1 secs

     total energy              =      92.47943340 Ry
     Harris-Foulkes estimate   =    -829.11647468 Ry
     estimated scf accuracy    <      34.79028621 Ry

     iteration #  2     ecut=    30.00 Ry     beta=0.70
     Davidson diagonalization with overlap
     ethr =  1.00E-02,  avg # of iterations =  6.0

     negative rho (up, down):  5.595E-02 0.000E+00

     total cpu time spent up to now is        4.2 secs

     total energy              =     -36.67769263 Ry
     Harris-Foulkes estimate   =     -51.21930583 Ry
     estimated scf accuracy    <      29.24137195 Ry

     iteration #  3     ecut=    30.00 Ry     beta=0.70
     Davidson diagonalization with overlap
     ethr =  1.00E-02,  avg # of iterations =  3.0

     negative rho (up, down):  4.955E-02 0.000E+00

     total cpu time spent up to now is        4.3 secs

     total energy              =     -35.33206624 Ry
     Harris-Foulkes estimate   =     -37.32809375 Ry
     estimated scf accuracy    <      12.32824764 Ry

     iteration #  4     ecut=    30.00 Ry     beta=0.70
     Davidson diagonalization with overlap
     ethr =  1.00E-02,  avg # of iterations =  1.0

     negative rho (up, down):  2.839E-02 0.000E+00

     total cpu time spent up to now is        4.3 secs

     total energy              =     -32.42602170 Ry
     Harris-Foulkes estimate   =     -36.11875492 Ry
     estimated scf accuracy    <       8.29777416 Ry

     iteration #  5     ecut=    30.00 Ry     beta=0.70
     Davidson diagonalization with overlap
     ethr =  1.00E-02,  avg # of iterations =  2.0

     negative rho (up, down):  1.061E-02 0.000E+00

     total cpu time spent up to now is        4.4 secs

     total energy              =     -31.21221367 Ry
     Harris-Foulkes estimate   =     -32.56664257 Ry
     estimated scf accuracy    <       3.11028673 Ry

     iteration #  6     ecut=    30.00 Ry     beta=0.70
     Davidson diagonalization with overlap
     ethr =  1.00E-02,  avg # of iterations =  4.0

     negative rho (up, down):  1.243E-02 0.000E+00

     total cpu time spent up to now is        4.4 secs

     total energy              =     -31.85952965 Ry
     Harris-Foulkes estimate   =     -32.33663726 Ry
     estimated scf accuracy    <       2.42105915 Ry

     iteration #  7     ecut=    30.00 Ry     beta=0.70
     Davidson diagonalization with overlap
     ethr =  1.00E-02,  avg # of iterations =  2.0

     negative rho (up, down):  1.167E-02 0.000E+00

     total cpu time spent up to now is        4.5 secs

     total energy              =     -31.91863451 Ry
     Harris-Foulkes estimate   =     -31.98129227 Ry
     estimated scf accuracy    <       1.84987388 Ry

     iteration #  8     ecut=    30.00 Ry     beta=0.70
     Davidson diagonalization with overlap
     ethr =  1.00E-02,  avg # of iterations =  1.0

     negative rho (up, down):  1.684E-02 0.000E+00

     total cpu time spent up to now is        4.5 secs

     total energy              =     -32.26851277 Ry
     Harris-Foulkes estimate   =     -31.93841646 Ry
     estimated scf accuracy    <       1.73091139 Ry

     iteration #  9     ecut=    30.00 Ry     beta=0.70
     Davidson diagonalization with overlap
     ethr =  1.00E-02,  avg # of iterations =  3.0

     negative rho (up, down):  1.635E-02 0.000E+00

     total cpu time spent up to now is        4.6 secs

     total energy              =     -30.22191151 Ry
     Harris-Foulkes estimate   =     -33.03302387 Ry
     estimated scf accuracy    <       2.70106755 Ry

     iteration # 10     ecut=    30.00 Ry     beta=0.70
     Davidson diagonalization with overlap
     ethr =  1.00E-02,  avg # of iterations =  3.0

     negative rho (up, down):  9.087E-04 0.000E+00

     total cpu time spent up to now is        4.6 secs

     total energy              =     -31.27875153 Ry
     Harris-Foulkes estimate   =     -32.08827643 Ry
     estimated scf accuracy    <       2.63079881 Ry

     iteration # 11     ecut=    30.00 Ry     beta=0.70
     Davidson diagonalization with overlap
     ethr =  1.00E-02,  avg # of iterations =  2.0

     negative rho (up, down):  3.785E-04 0.000E+00

     total cpu time spent up to now is        4.7 secs

     total energy              =     -32.36196236 Ry
     Harris-Foulkes estimate   =     -32.38643822 Ry
     estimated scf accuracy    <       4.98765436 Ry

     iteration # 12     ecut=    30.00 Ry     beta=0.70
     Davidson diagonalization with overlap
     ethr =  1.00E-02,  avg # of iterations =  1.0

     negative rho (up, down):  2.363E-01 0.000E+00

     total cpu time spent up to now is        4.7 secs

     total energy              =     -35.24655063 Ry
     Harris-Foulkes estimate   =     -32.38097275 Ry
     estimated scf accuracy    <       3.13175220 Ry

     iteration # 13     ecut=    30.00 Ry     beta=0.70
     Davidson diagonalization with overlap
     ethr =  1.00E-02,  avg # of iterations =  4.0

     negative rho (up, down):  6.541E-01 0.000E+00

     total cpu time spent up to now is        4.8 secs

     total energy              =     -56.99782588 Ry
     Harris-Foulkes estimate   =     -40.38800292 Ry
     estimated scf accuracy    <       8.25411160 Ry

     iteration # 14     ecut=    30.00 Ry     beta=0.70
     Davidson diagonalization with overlap
     ethr =  1.00E-02,  avg # of iterations =  4.0

     negative rho (up, down):  1.861E-02 0.000E+00

     total cpu time spent up to now is        4.9 secs

     total energy              =     -18.03130881 Ry
     Harris-Foulkes estimate   =    -156.89515103 Ry
     estimated scf accuracy    <      25.53203031 Ry

     iteration # 15     ecut=    30.00 Ry     beta=0.70
     Davidson diagonalization with overlap
     ethr =  1.00E-02,  avg # of iterations =  4.0

     negative rho (up, down):  8.293E-02 0.000E+00

     total cpu time spent up to now is        4.9 secs

     total energy              =    -122.49173266 Ry
     Harris-Foulkes estimate   =     -39.32392544 Ry
     estimated scf accuracy    <       5.80073408 Ry

     iteration # 16     ecut=    30.00 Ry     beta=0.70
     Davidson diagonalization with overlap
     ethr =  1.00E-02,  avg # of iterations =  4.0

     negative rho (up, down):  7.935E-02 0.000E+00

     total cpu time spent up to now is        5.0 secs

     total energy              =     277.99445983 Ry
     Harris-Foulkes estimate   =    -379.46140020 Ry
     estimated scf accuracy    <      41.92643395 Ry

     iteration # 17     ecut=    30.00 Ry     beta=0.70
     Davidson diagonalization with overlap
     ethr =  1.00E-02,  avg # of iterations =  4.0

     negative rho (up, down):  4.360E-02 0.000E+00

     total cpu time spent up to now is        5.1 secs

     total energy              =      16.12718633 Ry
     Harris-Foulkes estimate   =    -172.93643580 Ry
     estimated scf accuracy    <      34.17393703 Ry

     iteration # 18     ecut=    30.00 Ry     beta=0.70
     Davidson diagonalization with overlap
     ethr =  1.00E-02,  avg # of iterations =  5.0

     negative rho (up, down):  4.999E-02 0.000E+00

     total cpu time spent up to now is        5.1 secs

     total energy              =     -62.44696325 Ry
     Harris-Foulkes estimate   =     -66.98511119 Ry
     estimated scf accuracy    <      38.18003221 Ry

     iteration # 19     ecut=    30.00 Ry     beta=0.70
     Davidson diagonalization with overlap
     ethr =  1.00E-02,  avg # of iterations =  4.0

     negative rho (up, down):  2.539E-01 0.000E+00

     total cpu time spent up to now is        5.2 secs

     total energy              =    -325.66352374 Ry
     Harris-Foulkes estimate   =    -191.21183436 Ry
     estimated scf accuracy    <      69.69364505 Ry

     iteration # 20     ecut=    30.00 Ry     beta=0.70
     Davidson diagonalization with overlap
     ethr =  1.00E-02,  avg # of iterations =  5.0

     negative rho (up, down):  2.855E-01 0.000E+00

     total cpu time spent up to now is        5.3 secs

     total energy              =   -6378.58012291 Ry
     Harris-Foulkes estimate   =    -686.67551248 Ry
     estimated scf accuracy    <      61.18761384 Ry

     iteration # 21     ecut=    30.00 Ry     beta=0.70
     Davidson diagonalization with overlap
     ethr =  1.00E-02,  avg # of iterations =  6.0

     negative rho (up, down):  6.378E-01 0.000E+00

     total cpu time spent up to now is        5.3 secs

     total energy              =     -97.19050764 Ry
     Harris-Foulkes estimate   =   -8097.14831271 Ry
     estimated scf accuracy    <      61.94392182 Ry

     iteration # 22     ecut=    30.00 Ry     beta=0.70
     Davidson diagonalization with overlap
     ethr =  1.00E-02,  avg # of iterations =  8.0

     negative rho (up, down):  7.876E-01 0.000E+00

     total cpu time spent up to now is        5.4 secs

     total energy              =      55.23803521 Ry
     Harris-Foulkes estimate   =    -391.29073632 Ry
     estimated scf accuracy    <      70.65298833 Ry

     iteration # 23     ecut=    30.00 Ry     beta=0.70
     Davidson diagonalization with overlap
     ethr =  1.00E-02,  avg # of iterations =  7.0

     negative rho (up, down):  9.845E-01 0.000E+00

     total cpu time spent up to now is        5.5 secs

     total energy              =    -375.94117859 Ry
     Harris-Foulkes estimate   =   -1067.27819159 Ry
     estimated scf accuracy    <      61.65288746 Ry

     iteration # 24     ecut=    30.00 Ry     beta=0.70
     Davidson diagonalization with overlap
     ethr =  1.00E-02,  avg # of iterations =  6.0

     negative rho (up, down):  2.372E+00 0.000E+00

     total cpu time spent up to now is        5.6 secs

     total energy              =     -44.98791063 Ry
     Harris-Foulkes estimate   =   -3120.83996486 Ry
     estimated scf accuracy    <      57.10194285 Ry

     iteration # 25     ecut=    30.00 Ry     beta=0.70
     Davidson diagonalization with overlap
     ethr =  1.00E-02,  avg # of iterations =  8.0

     negative rho (up, down):  3.565E+00 0.000E+00

     total cpu time spent up to now is        5.7 secs

     total energy              =    -139.66486685 Ry
     Harris-Foulkes estimate   =   -1827.06014503 Ry
     estimated scf accuracy    <      43.95395324 Ry

     iteration # 26     ecut=    30.00 Ry     beta=0.70
     Davidson diagonalization with overlap
     ethr =  1.00E-02,  avg # of iterations =  9.0

     negative rho (up, down):  3.529E+00 0.000E+00

     total cpu time spent up to now is        5.8 secs

     total energy              =     102.29095174 Ry
     Harris-Foulkes estimate   =   -5727.82671545 Ry
     estimated scf accuracy    <      43.01757394 Ry

     iteration # 27     ecut=    30.00 Ry     beta=0.70
     Davidson diagonalization with overlap
     ethr =  1.00E-02,  avg # of iterations =  9.0

     negative rho (up, down):  2.367E+00 0.000E+00

     total cpu time spent up to now is        5.9 secs

     total energy              =      71.71857543 Ry
     Harris-Foulkes estimate   =  -10084.89515270 Ry
     estimated scf accuracy    <      45.85723480 Ry

     iteration # 28     ecut=    30.00 Ry     beta=0.70
     Davidson diagonalization with overlap
     ethr =  1.00E-02,  avg # of iterations =  7.0

     negative rho (up, down):  1.495E+00 0.000E+00

     total cpu time spent up to now is        6.0 secs

     total energy              =      66.65420273 Ry
     Harris-Foulkes estimate   =   -4366.63947789 Ry
     estimated scf accuracy    <      23.29013735 Ry

     iteration # 29     ecut=    30.00 Ry     beta=0.70
     Davidson diagonalization with overlap
     ethr =  1.00E-02,  avg # of iterations =  7.0

     negative rho (up, down):  1.405E+00 0.000E+00

     total cpu time spent up to now is        6.1 secs

     total energy              =      51.44982201 Ry
     Harris-Foulkes estimate   =   -2421.55854495 Ry
     estimated scf accuracy    <      32.39704333 Ry

     iteration # 30     ecut=    30.00 Ry     beta=0.70
     Davidson diagonalization with overlap
     ethr =  1.00E-02,  avg # of iterations = 13.0

     negative rho (up, down):  2.943E-01 0.000E+00

     total cpu time spent up to now is        6.2 secs

     total energy              =     200.70257899 Ry
     Harris-Foulkes estimate   =  -10813.02333529 Ry
     estimated scf accuracy    <      17.57800357 Ry

     iteration # 31     ecut=    30.00 Ry     beta=0.70
     Davidson diagonalization with overlap
     ethr =  1.00E-02,  avg # of iterations =  8.0

     negative rho (up, down):  1.917E-01 0.000E+00

     total cpu time spent up to now is        6.3 secs

     total energy              =     112.50757602 Ry
     Harris-Foulkes estimate   =   -2030.07984514 Ry
     estimated scf accuracy    <      18.31773937 Ry

     iteration # 32     ecut=    30.00 Ry     beta=0.70
     Davidson diagonalization with overlap
     ethr =  1.00E-02,  avg # of iterations =  8.0

     negative rho (up, down):  1.078E-01 0.000E+00

     total cpu time spent up to now is        6.4 secs

     total energy              =      99.01254283 Ry
     Harris-Foulkes estimate   =    -910.11356447 Ry
     estimated scf accuracy    <      19.93120702 Ry

     iteration # 33     ecut=    30.00 Ry     beta=0.70
     Davidson diagonalization with overlap
     ethr =  1.00E-02,  avg # of iterations =  8.0

     negative rho (up, down):  1.224E-02 0.000E+00

     total cpu time spent up to now is        6.5 secs

     total energy              =      70.07580143 Ry
     Harris-Foulkes estimate   =    -595.61464901 Ry
     estimated scf accuracy    <      31.01485325 Ry

     iteration # 34     ecut=    30.00 Ry     beta=0.70
     Davidson diagonalization with overlap
     ethr =  1.00E-02,  avg # of iterations =  7.0

     negative rho (up, down):  1.217E-02 0.000E+00

     total cpu time spent up to now is        6.6 secs

     total energy              =      28.64758213 Ry
     Harris-Foulkes estimate   =    -246.21604200 Ry
     estimated scf accuracy    <      30.12649596 Ry

     iteration # 35     ecut=    30.00 Ry     beta=0.70
     Davidson diagonalization with overlap
     ethr =  1.00E-02,  avg # of iterations =  9.0

     negative rho (up, down):  1.174E-02 0.000E+00

     total cpu time spent up to now is        6.6 secs

     total energy              =     -73.73549791 Ry
     Harris-Foulkes estimate   =     -74.75027778 Ry
     estimated scf accuracy    <      59.87619290 Ry

     iteration # 36     ecut=    30.00 Ry     beta=0.70
     Davidson diagonalization with overlap
     ethr =  1.00E-02,  avg # of iterations =  3.0

     negative rho (up, down):  3.434E-02 0.000E+00

     total cpu time spent up to now is        6.7 secs

     total energy              =     -79.72964727 Ry
     Harris-Foulkes estimate   =    -811.62061570 Ry
     estimated scf accuracy    <      37.99262859 Ry

     iteration # 37     ecut=    30.00 Ry     beta=0.70
     Davidson diagonalization with overlap
     ethr =  1.00E-02,  avg # of iterations =  3.0

     negative rho (up, down):  3.098E-02 0.000E+00

     total cpu time spent up to now is        6.7 secs

     total energy              =     -40.12765820 Ry
     Harris-Foulkes estimate   =    -146.60267974 Ry
     estimated scf accuracy    <      42.00400483 Ry

     iteration # 38     ecut=    30.00 Ry     beta=0.70
     Davidson diagonalization with overlap
     ethr =  1.00E-02,  avg # of iterations =  5.0

     negative rho (up, down):  7.371E-02 0.000E+00

     total cpu time spent up to now is        6.8 secs

     total energy              =     -85.50256804 Ry
     Harris-Foulkes estimate   =     -78.79681623 Ry
     estimated scf accuracy    <      64.69558291 Ry

     iteration # 39     ecut=    30.00 Ry     beta=0.70
     Davidson diagonalization with overlap
     ethr =  1.00E-02,  avg # of iterations =  7.0

     negative rho (up, down):  1.668E-02 0.000E+00

     total cpu time spent up to now is        6.9 secs

     total energy              =      80.30810535 Ry
     Harris-Foulkes estimate   =  -11042.83808714 Ry
     estimated scf accuracy    <      27.19294156 Ry

     iteration # 40     ecut=    30.00 Ry     beta=0.70
     Davidson diagonalization with overlap
     ethr =  1.00E-02,  avg # of iterations =  6.0

     negative rho (up, down):  3.468E-01 0.000E+00

     total cpu time spent up to now is        7.0 secs

     total energy              =    -153.86358488 Ry
     Harris-Foulkes estimate   =     -75.94032711 Ry
     estimated scf accuracy    <      60.77024068 Ry

     iteration # 41     ecut=    30.00 Ry     beta=0.70
     Davidson diagonalization with overlap
     ethr =  1.00E-02,  avg # of iterations =  6.0

     negative rho (up, down):  3.482E-01 0.000E+00

     total cpu time spent up to now is        7.0 secs

     total energy              =    3568.42240352 Ry
     Harris-Foulkes estimate   =    -871.73927337 Ry
     estimated scf accuracy    <      34.28314103 Ry

     iteration # 42     ecut=    30.00 Ry     beta=0.70
     Davidson diagonalization with overlap
     ethr =  1.00E-02,  avg # of iterations =  8.0

     negative rho (up, down):  1.374E-01 0.000E+00

     total cpu time spent up to now is        7.1 secs

     total energy              =      37.53336254 Ry
     Harris-Foulkes estimate   =    -314.73980255 Ry
     estimated scf accuracy    <      17.02929636 Ry

     iteration # 43     ecut=    30.00 Ry     beta=0.70
     Davidson diagonalization with overlap
     ethr =  1.00E-02,  avg # of iterations =  6.0

     negative rho (up, down):  2.208E-01 0.000E+00

     total cpu time spent up to now is        7.3 secs

     total energy              =   -1635.95654059 Ry
     Harris-Foulkes estimate   =   -1702.97516933 Ry
     estimated scf accuracy    <      15.99647186 Ry

     iteration # 44     ecut=    30.00 Ry     beta=0.70
     Davidson diagonalization with overlap
     ethr =  1.00E-02,  avg # of iterations =  8.0

     negative rho (up, down):  4.806E-01 0.000E+00

     total cpu time spent up to now is        7.5 secs

     total energy              =    -223.49768044 Ry
     Harris-Foulkes estimate   =   -3929.23060293 Ry
     estimated scf accuracy    <      32.44847380 Ry

     iteration # 45     ecut=    30.00 Ry     beta=0.70
     Davidson diagonalization with overlap
     ethr =  1.00E-02,  avg # of iterations =  7.0

     negative rho (up, down):  7.270E-01 0.000E+00

     total cpu time spent up to now is        7.6 secs

     total energy              =    -294.03915440 Ry
     Harris-Foulkes estimate   =   -2908.30969190 Ry
     estimated scf accuracy    <      54.08903802 Ry

     iteration # 46     ecut=    30.00 Ry     beta=0.70
     Davidson diagonalization with overlap
     ethr =  1.00E-02,  avg # of iterations =  7.0

     negative rho (up, down):  4.728E-01 0.000E+00

     total cpu time spent up to now is        7.7 secs

     total energy              =      22.73103803 Ry
     Harris-Foulkes estimate   =   -2188.22184105 Ry
     estimated scf accuracy    <      38.75422343 Ry

     iteration # 47     ecut=    30.00 Ry     beta=0.70
     Davidson diagonalization with overlap
     ethr =  1.00E-02,  avg # of iterations =  8.0

     negative rho (up, down):  5.819E-01 0.000E+00

     total cpu time spent up to now is        7.9 secs

     total energy              =     -78.81629061 Ry
     Harris-Foulkes estimate   =    -579.91352723 Ry
     estimated scf accuracy    <      50.16351478 Ry

     iteration # 48     ecut=    30.00 Ry     beta=0.70
     Davidson diagonalization with overlap
     ethr =  1.00E-02,  avg # of iterations =  8.0

     negative rho (up, down):  3.529E-01 0.000E+00

     total cpu time spent up to now is        8.1 secs

     total energy              =     -18.99683246 Ry
     Harris-Foulkes estimate   =   -1835.97429711 Ry
     estimated scf accuracy    <      48.16763962 Ry

     iteration # 49     ecut=    30.00 Ry     beta=0.70
     Davidson diagonalization with overlap
     ethr =  1.00E-02,  avg # of iterations =  7.0

     negative rho (up, down):  6.400E-02 0.000E+00

     total cpu time spent up to now is        8.2 secs

     total energy              =      91.66069996 Ry
     Harris-Foulkes estimate   =   -1458.47067646 Ry
     estimated scf accuracy    <      19.98227093 Ry

     iteration # 50     ecut=    30.00 Ry     beta=0.70
     Davidson diagonalization with overlap
     ethr =  1.00E-02,  avg # of iterations =  8.0

     negative rho (up, down):  1.650E-01 0.000E+00

     total cpu time spent up to now is        8.3 secs

     total energy              =      -1.59401287 Ry
     Harris-Foulkes estimate   =    -275.41285767 Ry
     estimated scf accuracy    <      47.48757403 Ry

     iteration # 51     ecut=    30.00 Ry     beta=0.70
     Davidson diagonalization with overlap
     ethr =  1.00E-02,  avg # of iterations = 14.0

     negative rho (up, down):  3.889E-01 0.000E+00

     total cpu time spent up to now is        8.4 secs

     total energy              =    -669.90700203 Ry
     Harris-Foulkes estimate   =    -307.97363334 Ry
     estimated scf accuracy    <      27.54064631 Ry

     iteration # 52     ecut=    30.00 Ry     beta=0.70
     Davidson diagonalization with overlap
     ethr =  1.00E-02,  avg # of iterations =  5.0

     negative rho (up, down):  1.013E+00 0.000E+00

     total cpu time spent up to now is        8.5 secs

     total energy              =    -105.49831344 Ry
     Harris-Foulkes estimate   =   -3130.99176217 Ry
     estimated scf accuracy    <      34.43830812 Ry

     iteration # 53     ecut=    30.00 Ry     beta=0.70
     Davidson diagonalization with overlap
     ethr =  1.00E-02,  avg # of iterations =  7.0

     negative rho (up, down):  1.586E+00 0.000E+00

     total cpu time spent up to now is        8.6 secs

     total energy              =    -431.74792543 Ry
     Harris-Foulkes estimate   =   -1145.17464272 Ry
     estimated scf accuracy    <      41.40164544 Ry

     iteration # 54     ecut=    30.00 Ry     beta=0.70
     Davidson diagonalization with overlap
     ethr =  1.00E-02,  avg # of iterations =  7.0

     negative rho (up, down):  8.024E-01 0.000E+00

     total cpu time spent up to now is        8.6 secs

     total energy              =   10969.48237573 Ry
     Harris-Foulkes estimate   =  -16428.73015570 Ry
     estimated scf accuracy    <      25.41288705 Ry

     iteration # 55     ecut=    30.00 Ry     beta=0.70
     Davidson diagonalization with overlap
     ethr =  1.00E-02,  avg # of iterations =  8.0

     negative rho (up, down):  7.257E-01 0.000E+00

     total cpu time spent up to now is        8.7 secs

     total energy              =    -197.79801991 Ry
     Harris-Foulkes estimate   =    -489.30901101 Ry
     estimated scf accuracy    <      38.20082283 Ry

     iteration # 56     ecut=    30.00 Ry     beta=0.70
     Davidson diagonalization with overlap
     ethr =  1.00E-02,  avg # of iterations =  8.0

     negative rho (up, down):  4.585E-01 0.000E+00

     total cpu time spent up to now is        8.8 secs

     total energy              =     -20.55697348 Ry
     Harris-Foulkes estimate   =   -1462.81664590 Ry
     estimated scf accuracy    <      41.98501580 Ry

     iteration # 57     ecut=    30.00 Ry     beta=0.70
     Davidson diagonalization with overlap
     ethr =  1.00E-02,  avg # of iterations =  7.0

     negative rho (up, down):  4.725E-01 0.000E+00

     total cpu time spent up to now is        8.9 secs

     total energy              =      54.72594631 Ry
     Harris-Foulkes estimate   =  -27301.47436769 Ry
     estimated scf accuracy    <      35.59688432 Ry

     iteration # 58     ecut=    30.00 Ry     beta=0.70
     Davidson diagonalization with overlap
     ethr =  1.00E-02,  avg # of iterations =  8.0

     negative rho (up, down):  6.844E-01 0.000E+00

     total cpu time spent up to now is        9.0 secs

     total energy              =      52.34852827 Ry
     Harris-Foulkes estimate   =   -2148.29633736 Ry
     estimated scf accuracy    <      27.30748974 Ry

     iteration # 59     ecut=    30.00 Ry     beta=0.70
     Davidson diagonalization with overlap
     ethr =  1.00E-02,  avg # of iterations =  8.0

     negative rho (up, down):  3.193E-01 0.000E+00

     total cpu time spent up to now is        9.1 secs

     total energy              =    -102.53013231 Ry
     Harris-Foulkes estimate   =   -1493.02194769 Ry
     estimated scf accuracy    <      30.36211343 Ry

     iteration # 60     ecut=    30.00 Ry     beta=0.70
     Davidson diagonalization with overlap
     ethr =  1.00E-02,  avg # of iterations =  7.0

     negative rho (up, down):  4.202E-01 0.000E+00

     total cpu time spent up to now is        9.3 secs

     total energy              =      45.42487323 Ry
     Harris-Foulkes estimate   =   -2287.03301232 Ry
     estimated scf accuracy    <      20.87653817 Ry

     iteration # 61     ecut=    30.00 Ry     beta=0.70
     Davidson diagonalization with overlap
     ethr =  1.00E-02,  avg # of iterations =  7.0

     negative rho (up, down):  1.339E-01 0.000E+00

     total cpu time spent up to now is        9.4 secs

     total energy              =      63.13864070 Ry
     Harris-Foulkes estimate   =   -1859.07017485 Ry
     estimated scf accuracy    <      23.55369977 Ry

     iteration # 62     ecut=    30.00 Ry     beta=0.70
     Davidson diagonalization with overlap
     ethr =  1.00E-02,  avg # of iterations =  8.0

     negative rho (up, down):  1.022E-01 0.000E+00

     total cpu time spent up to now is        9.6 secs

     total energy              =      35.60574276 Ry
     Harris-Foulkes estimate   =    -611.68861744 Ry
     estimated scf accuracy    <      29.00758372 Ry

     iteration # 63     ecut=    30.00 Ry     beta=0.70
     Davidson diagonalization with overlap
     ethr =  1.00E-02,  avg # of iterations =  8.0

     negative rho (up, down):  1.736E-01 0.000E+00

     total cpu time spent up to now is        9.8 secs

     total energy              =    -230.84107461 Ry
     Harris-Foulkes estimate   =    -710.15275855 Ry
     estimated scf accuracy    <      24.51258102 Ry

     iteration # 64     ecut=    30.00 Ry     beta=0.70
     Davidson diagonalization with overlap
     ethr =  1.00E-02,  avg # of iterations = 11.0

     negative rho (up, down):  4.443E-05 0.000E+00

     total cpu time spent up to now is        9.9 secs

     total energy              =      25.08513617 Ry
     Harris-Foulkes estimate   =   -1037.92072016 Ry
     estimated scf accuracy    <      16.96243355 Ry

     iteration # 65     ecut=    30.00 Ry     beta=0.70
     Davidson diagonalization with overlap
     ethr =  1.00E-02,  avg # of iterations =  5.0

     total cpu time spent up to now is       10.0 secs

     total energy              =     -31.72043832 Ry
     Harris-Foulkes estimate   =     -35.11051778 Ry
     estimated scf accuracy    <      10.45106411 Ry

     iteration # 66     ecut=    30.00 Ry     beta=0.70
     Davidson diagonalization with overlap
     ethr =  1.00E-02,  avg # of iterations =  4.0

     total cpu time spent up to now is       10.0 secs

     total energy              =     -32.05081922 Ry
     Harris-Foulkes estimate   =     -32.41137403 Ry
     estimated scf accuracy    <       3.65309428 Ry

     iteration # 67     ecut=    30.00 Ry     beta=0.70
     Davidson diagonalization with overlap
     ethr =  1.00E-02,  avg # of iterations =  1.0

     negative rho (up, down):  9.760E-02 0.000E+00

     total cpu time spent up to now is       10.1 secs

     total energy              =     -30.71788098 Ry
     Harris-Foulkes estimate   =     -32.06027394 Ry
     estimated scf accuracy    <       2.92652238 Ry

     iteration # 68     ecut=    30.00 Ry     beta=0.70
     Davidson diagonalization with overlap
     ethr =  1.00E-02,  avg # of iterations =  5.0

     negative rho (up, down):  4.885E-02 0.000E+00

     total cpu time spent up to now is       10.2 secs

     total energy              =     -25.12990885 Ry
     Harris-Foulkes estimate   =     -35.75252645 Ry
     estimated scf accuracy    <       9.63249524 Ry

     iteration # 69     ecut=    30.00 Ry     beta=0.70
     Davidson diagonalization with overlap
     ethr =  1.00E-02,  avg # of iterations =  3.0

     negative rho (up, down):  6.622E-02 0.000E+00

     total cpu time spent up to now is       10.3 secs

     total energy              =      -8.53233139 Ry
     Harris-Foulkes estimate   =     -59.50920546 Ry
     estimated scf accuracy    <      13.11280398 Ry

     iteration # 70     ecut=    30.00 Ry     beta=0.70
     Davidson diagonalization with overlap
     ethr =  1.00E-02,  avg # of iterations =  4.0

     negative rho (up, down):  4.722E-02 0.000E+00

     total cpu time spent up to now is       10.4 secs

     total energy              =     -43.44600680 Ry
     Harris-Foulkes estimate   =     -38.68921500 Ry
     estimated scf accuracy    <       7.68952568 Ry

     iteration # 71     ecut=    30.00 Ry     beta=0.70
     Davidson diagonalization with overlap
     ethr =  1.00E-02,  avg # of iterations =  3.0

     negative rho (up, down):  2.745E-02 0.000E+00

     total cpu time spent up to now is       10.5 secs

     total energy              =      19.82456338 Ry
     Harris-Foulkes estimate   =    -340.59255665 Ry
     estimated scf accuracy    <      16.69247613 Ry

     iteration # 72     ecut=    30.00 Ry     beta=0.70
     Davidson diagonalization with overlap
     ethr =  1.00E-02,  avg # of iterations =  5.0

     negative rho (up, down):  1.066E-02 0.000E+00

     total cpu time spent up to now is       10.6 secs

     total energy              =      -7.87426075 Ry
     Harris-Foulkes estimate   =     -89.17130273 Ry
     estimated scf accuracy    <       8.96800355 Ry

     iteration # 73     ecut=    30.00 Ry     beta=0.70
     Davidson diagonalization with overlap
     ethr =  1.00E-02,  avg # of iterations =  4.0

     negative rho (up, down):  3.490E-02 0.000E+00

     total cpu time spent up to now is       10.7 secs

     total energy              =     -24.52613814 Ry
     Harris-Foulkes estimate   =     -36.43713241 Ry
     estimated scf accuracy    <       3.97440696 Ry

     iteration # 74     ecut=    30.00 Ry     beta=0.70
     Davidson diagonalization with overlap
     ethr =  1.00E-02,  avg # of iterations =  4.0

     negative rho (up, down):  3.603E-02 0.000E+00

     total cpu time spent up to now is       10.8 secs

     total energy              =     -24.32387928 Ry
     Harris-Foulkes estimate   =     -36.26764826 Ry
     estimated scf accuracy    <       6.78372238 Ry

     iteration # 75     ecut=    30.00 Ry     beta=0.70
     Davidson diagonalization with overlap
     ethr =  1.00E-02,  avg # of iterations =  4.0

     negative rho (up, down):  2.167E-02 0.000E+00

     total cpu time spent up to now is       10.9 secs

     total energy              =      52.06076637 Ry
     Harris-Foulkes estimate   =    -374.33944469 Ry
     estimated scf accuracy    <      29.02105417 Ry

     iteration # 76     ecut=    30.00 Ry     beta=0.70
     Davidson diagonalization with overlap
     ethr =  1.00E-02,  avg # of iterations =  8.0

     negative rho (up, down):  7.270E-02 0.000E+00

     total cpu time spent up to now is       11.0 secs

     total energy              =     -41.73706478 Ry
     Harris-Foulkes estimate   =     -32.77091655 Ry
     estimated scf accuracy    <       1.49699114 Ry

     iteration # 77     ecut=    30.00 Ry     beta=0.70
     Davidson diagonalization with overlap
     ethr =  1.00E-02,  avg # of iterations =  4.0

     negative rho (up, down):  5.094E-02 0.000E+00

     total cpu time spent up to now is       11.0 secs

     total energy              =      27.05948162 Ry
     Harris-Foulkes estimate   =    -739.83315976 Ry
     estimated scf accuracy    <      15.81170530 Ry

     iteration # 78     ecut=    30.00 Ry     beta=0.70
     Davidson diagonalization with overlap
     ethr =  1.00E-02,  avg # of iterations =  4.0

     negative rho (up, down):  1.405E-02 0.000E+00

     total cpu time spent up to now is       11.1 secs

     total energy              =     -32.13394756 Ry
     Harris-Foulkes estimate   =     -32.61259940 Ry
     estimated scf accuracy    <       2.15966826 Ry

     iteration # 79     ecut=    30.00 Ry     beta=0.70
     Davidson diagonalization with overlap
     ethr =  1.00E-02,  avg # of iterations =  3.0

     negative rho (up, down):  2.577E-03 0.000E+00

     total cpu time spent up to now is       11.2 secs

     total energy              =     -29.79239033 Ry
     Harris-Foulkes estimate   =     -32.76582010 Ry
     estimated scf accuracy    <       1.23825508 Ry

     iteration # 80     ecut=    30.00 Ry     beta=0.70
     Davidson diagonalization with overlap
     ethr =  1.00E-02,  avg # of iterations =  4.0

     negative rho (up, down):  7.160E-04 0.000E+00

     total cpu time spent up to now is       11.2 secs

     total energy              =     -31.80680570 Ry
     Harris-Foulkes estimate   =     -32.03551208 Ry
     estimated scf accuracy    <       1.92670794 Ry

     iteration # 81     ecut=    30.00 Ry     beta=0.70
     Davidson diagonalization with overlap
     ethr =  1.00E-02,  avg # of iterations =  3.0

     negative rho (up, down):  3.181E-07 0.000E+00

     total cpu time spent up to now is       11.3 secs

     total energy              =     -29.08699555 Ry
     Harris-Foulkes estimate   =     -32.26933603 Ry
     estimated scf accuracy    <       0.34318046 Ry

     iteration # 82     ecut=    30.00 Ry     beta=0.70
     Davidson diagonalization with overlap
     ethr =  4.29E-03,  avg # of iterations =  3.0

     negative rho (up, down):  8.080E-07 0.000E+00

     total cpu time spent up to now is       11.3 secs

     total energy              =     -29.60126128 Ry
     Harris-Foulkes estimate   =     -32.19840987 Ry
     estimated scf accuracy    <       0.80858297 Ry

     iteration # 83     ecut=    30.00 Ry     beta=0.70
     Davidson diagonalization with overlap
     ethr =  4.29E-03,  avg # of iterations =  3.0

     total cpu time spent up to now is       11.4 secs

     total energy              =     -31.64254448 Ry
     Harris-Foulkes estimate   =     -31.85206432 Ry
     estimated scf accuracy    <       1.69308763 Ry

     iteration # 84     ecut=    30.00 Ry     beta=0.70
     Davidson diagonalization with overlap
     ethr =  4.29E-03,  avg # of iterations =  1.0

     total cpu time spent up to now is       11.4 secs

     total energy              =     -31.53452949 Ry
     Harris-Foulkes estimate   =     -31.77362780 Ry
     estimated scf accuracy    <       2.39691054 Ry

     iteration # 85     ecut=    30.00 Ry     beta=0.70
     Davidson diagonalization with overlap
     ethr =  4.29E-03,  avg # of iterations =  1.0

     total cpu time spent up to now is       11.5 secs

     total energy              =     -31.59645096 Ry
     Harris-Foulkes estimate   =     -31.72126413 Ry
     estimated scf accuracy    <       1.91101262 Ry

     iteration # 86     ecut=    30.00 Ry     beta=0.70
     Davidson diagonalization with overlap
     ethr =  4.29E-03,  avg # of iterations =  1.0

     negative rho (up, down):  2.433E-07 0.000E+00

     total cpu time spent up to now is       11.5 secs

     total energy              =     -31.60226344 Ry
     Harris-Foulkes estimate   =     -31.63962026 Ry
     estimated scf accuracy    <       0.45590121 Ry

     iteration # 87     ecut=    30.00 Ry     beta=0.70
     Davidson diagonalization with overlap
     ethr =  4.29E-03,  avg # of iterations =  1.0

     negative rho (up, down):  5.869E-07 0.000E+00

     total cpu time spent up to now is       11.6 secs

     total energy              =     -31.58299662 Ry
     Harris-Foulkes estimate   =     -31.60592258 Ry
     estimated scf accuracy    <       0.24441721 Ry

     iteration # 88     ecut=    30.00 Ry     beta=0.70
     Davidson diagonalization with overlap
     ethr =  3.06E-03,  avg # of iterations =  1.0

     negative rho (up, down):  4.115E-03 0.000E+00

     total cpu time spent up to now is       11.7 secs

     total energy              =     -31.81598484 Ry
     Harris-Foulkes estimate   =     -31.59727298 Ry
     estimated scf accuracy    <       0.62488962 Ry

     iteration # 89     ecut=    30.00 Ry     beta=0.70
     Davidson diagonalization with overlap
     ethr =  3.06E-03,  avg # of iterations =  3.0

     negative rho (up, down):  2.996E-03 0.000E+00

     total cpu time spent up to now is       11.7 secs

     total energy              =     -45.45201394 Ry
     Harris-Foulkes estimate   =     -40.71249336 Ry
     estimated scf accuracy    <       5.42181677 Ry

     iteration # 90     ecut=    30.00 Ry     beta=0.70
     Davidson diagonalization with overlap
     ethr =  3.06E-03,  avg # of iterations =  3.0

     negative rho (up, down):  5.597E-03 0.000E+00

     total cpu time spent up to now is       11.8 secs

     total energy              =     -51.68067235 Ry
     Harris-Foulkes estimate   =     -68.24042355 Ry
     estimated scf accuracy    <       5.96704830 Ry

     iteration # 91     ecut=    30.00 Ry     beta=0.70
     Davidson diagonalization with overlap
     ethr =  3.06E-03,  avg # of iterations =  3.0

     negative rho (up, down):  9.826E-03 0.000E+00

     total cpu time spent up to now is       11.8 secs

     total energy              =     -16.45927727 Ry
     Harris-Foulkes estimate   =     -74.64999049 Ry
     estimated scf accuracy    <       5.38065285 Ry

     iteration # 92     ecut=    30.00 Ry     beta=0.70
     Davidson diagonalization with overlap
     ethr =  3.06E-03,  avg # of iterations =  4.0

     negative rho (up, down):  7.550E-03 0.000E+00

     total cpu time spent up to now is       11.9 secs

     total energy              =     -22.02805351 Ry
     Harris-Foulkes estimate   =     -38.81949497 Ry
     estimated scf accuracy    <       6.08479367 Ry

     iteration # 93     ecut=    30.00 Ry     beta=0.70
     Davidson diagonalization with overlap
     ethr =  3.06E-03,  avg # of iterations =  3.0

     negative rho (up, down):  1.172E-02 0.000E+00

     total cpu time spent up to now is       11.9 secs

     total energy              =     -21.12497661 Ry
     Harris-Foulkes estimate   =     -37.25142459 Ry
     estimated scf accuracy    <       5.65240691 Ry

     iteration # 94     ecut=    30.00 Ry     beta=0.70
     Davidson diagonalization with overlap
     ethr =  3.06E-03,  avg # of iterations =  3.0

     negative rho (up, down):  1.174E-02 0.000E+00

     total cpu time spent up to now is       12.0 secs

     total energy              =     -28.57302809 Ry
     Harris-Foulkes estimate   =     -34.38106034 Ry
     estimated scf accuracy    <       2.64259573 Ry

     iteration # 95     ecut=    30.00 Ry     beta=0.70
     Davidson diagonalization with overlap
     ethr =  3.06E-03,  avg # of iterations =  4.0

     negative rho (up, down):  2.856E-02 0.000E+00

     total cpu time spent up to now is       12.1 secs

     total energy              =     -19.62881438 Ry
     Harris-Foulkes estimate   =     -51.57578471 Ry
     estimated scf accuracy    <      10.58106850 Ry

     iteration # 96     ecut=    30.00 Ry     beta=0.70
     Davidson diagonalization with overlap
     ethr =  3.06E-03,  avg # of iterations =  3.0

     negative rho (up, down):  6.211E-02 0.000E+00

     total cpu time spent up to now is       12.1 secs

     total energy              =     -30.54384649 Ry
     Harris-Foulkes estimate   =     -44.63008387 Ry
     estimated scf accuracy    <       5.31921859 Ry

     iteration # 97     ecut=    30.00 Ry     beta=0.70
     Davidson diagonalization with overlap
     ethr =  3.06E-03,  avg # of iterations =  4.0

     negative rho (up, down):  3.211E-01 0.000E+00

     total cpu time spent up to now is       12.2 secs

     total energy              =     -23.73675950 Ry
     Harris-Foulkes estimate   =    -137.94140007 Ry
     estimated scf accuracy    <      17.53778471 Ry

     iteration # 98     ecut=    30.00 Ry     beta=0.70
     Davidson diagonalization with overlap
     ethr =  3.06E-03,  avg # of iterations =  7.0

     negative rho (up, down):  3.112E-01 0.000E+00

     total cpu time spent up to now is       12.3 secs

     total energy              =     -76.78488400 Ry
     Harris-Foulkes estimate   =    -101.83939684 Ry
     estimated scf accuracy    <      28.47445252 Ry

     iteration # 99     ecut=    30.00 Ry     beta=0.70
     Davidson diagonalization with overlap
     ethr =  3.06E-03,  avg # of iterations =  5.0

     negative rho (up, down):  3.718E-01 0.000E+00

     total cpu time spent up to now is       12.3 secs

     total energy              =   -1331.22537681 Ry
     Harris-Foulkes estimate   =    -304.01195016 Ry
     estimated scf accuracy    <      31.75485465 Ry

     iteration #100     ecut=    30.00 Ry     beta=0.70
     Davidson diagonalization with overlap
     ethr =  3.06E-03,  avg # of iterations =  5.0

     negative rho (up, down):  5.143E-01 0.000E+00

     total cpu time spent up to now is       12.4 secs

     total energy              =    -521.77377389 Ry
     Harris-Foulkes estimate   =   -2052.12713721 Ry
     estimated scf accuracy    <      49.14097194 Ry

     End of self-consistent calculation

     convergence NOT achieved after 100 iterations: stopping

     Writing output data file pwscf.save
 
     init_run     :      0.17s CPU      0.19s WALL (       1 calls)
     electrons    :      9.24s CPU     11.39s WALL (       3 calls)
     update_pot   :      0.33s CPU      0.45s WALL (       2 calls)
     forces       :      0.09s CPU      0.09s WALL (       2 calls)

     Called by init_run:
     wfcinit      :      0.01s CPU      0.02s WALL (       1 calls)
     potinit      :      0.05s CPU      0.05s WALL (       1 calls)

     Called by electrons:
     c_bands      :      5.02s CPU      5.62s WALL (     147 calls)
     sum_band     :      0.76s CPU      0.82s WALL (     147 calls)
     v_of_rho     :      1.84s CPU      2.04s WALL (     150 calls)
     mix_rho      :      1.39s CPU      2.38s WALL (     147 calls)

     Called by c_bands:
     init_us_2    :      0.02s CPU      0.03s WALL (     295 calls)
     cegterg      :      4.98s CPU      5.53s WALL (     147 calls)

     Called by sum_band:

     Called by *egterg:
     h_psi        :      4.22s CPU      4.65s WALL (     783 calls)
     g_psi        :      0.05s CPU      0.05s WALL (     635 calls)
     cdiaghg      :      0.30s CPU      0.35s WALL (     780 calls)

     Called by h_psi:
     h_psi:pot    :      4.19s CPU      4.63s WALL (     783 calls)
     h_psi:calbec :      0.09s CPU      0.14s WALL (     783 calls)
     vloc_psi     :      4.08s CPU      4.47s WALL (     783 calls)
     add_vuspsi   :      0.01s CPU      0.01s WALL (     783 calls)

     General routines
     calbec       :      0.09s CPU      0.14s WALL (     792 calls)
     fft          :      1.09s CPU      1.19s WALL (    1654 calls)
     fftw         :      4.22s CPU      4.65s WALL (   10328 calls)
     davcio       :      0.19s CPU      0.81s WALL (    2686 calls)
 
     Parallel routines
     fft_scatter  :      1.79s CPU      2.21s WALL (   11982 calls)
 
     PWSCF        :    10.05s CPU        12.58s WALL

 
   This run was terminated on:  13:41: 8  13Feb2018            

=------------------------------------------------------------------------------=
   JOB DONE.
=------------------------------------------------------------------------------=
