
     Program PWSCF v.6.0 (svn rev. 13079) starts on 13Feb2018 at 13:50:47 

     This program is part of the open-source Quantum ESPRESSO suite
     for quantum simulation of materials; please cite
         "P. Giannozzi et al., J. Phys.:Condens. Matter 21 395502 (2009);
          URL http://www.quantum-espresso.org", 
     in publications or presentations arising from this work. More details at
     http://www.quantum-espresso.org/quote

     Parallel version (MPI), running on    28 processors
     R & G space division:  proc/nbgrp/npool/nimage =      28
     Reading input from inputs/MD-H2O-round1/163.in

     Current dimensions of program PWSCF are:
     Max number of different atomic species (ntypx) = 10
     Max number of k-points (npk) =  40000
     Max angular momentum in pseudopotentials (lmaxx) =  3

     Subspace diagonalization in iterative solution of the eigenvalue problem:
     a serial algorithm will be used

 
     Parallelization info
     --------------------
     sticks:   dense  smooth     PW     G-vecs:    dense   smooth      PW
     Min         136     136     33                 6338     6338     787
     Max         137     137     34                 6341     6341     792
     Sum        3809    3809    949               177509   177509   22119
 


     bravais-lattice index     =            1
     lattice parameter (alat)  =      20.0000  a.u.
     unit-cell volume          =    8000.0000 (a.u.)^3
     number of atoms/cell      =            3
     number of atomic types    =            2
     number of electrons       =         8.00
     number of Kohn-Sham states=            8
     kinetic-energy cutoff     =      30.0000  Ry
     charge density cutoff     =     120.0000  Ry
     convergence threshold     =      1.0E-08
     mixing beta               =       0.7000
     number of iterations used =            8  plain     mixing
     Exchange-correlation      = BLYP ( 1  3  1  3 0 0)
     nstep                     =         5000


     celldm(1)=  20.000000  celldm(2)=   0.000000  celldm(3)=   0.000000
     celldm(4)=   0.000000  celldm(5)=   0.000000  celldm(6)=   0.000000

     crystal axes: (cart. coord. in units of alat)
               a(1) = (   1.000000   0.000000   0.000000 )  
               a(2) = (   0.000000   1.000000   0.000000 )  
               a(3) = (   0.000000   0.000000   1.000000 )  

     reciprocal axes: (cart. coord. in units 2 pi/alat)
               b(1) = (  1.000000  0.000000  0.000000 )  
               b(2) = (  0.000000  1.000000  0.000000 )  
               b(3) = (  0.000000  0.000000  1.000000 )  


     PseudoPot. # 1 for  H read from file:
     ./H.blyp-hgh.UPF
     MD5 check sum: c576e69559cde411e611be972c763230
     Pseudo is Norm-conserving, Zval =  1.0
     Generated in analytical, separable form
     Using radial grid of  929 points,  0 beta functions with: 

     PseudoPot. # 2 for  O read from file:
     ./O.blyp-hgh.UPF
     MD5 check sum: d0b7156309aa9befef28faac7bc56342
     Pseudo is Norm-conserving, Zval =  6.0
     Generated in analytical, separable form
     Using radial grid of 1095 points,  1 beta functions with: 
                l(1) =   0

     atomic species   valence    mass     pseudopotential
        H              1.00     1.01000      H( 1.00)
        O              6.00    16.00000      O( 1.00)

     No symmetry found



   Cartesian axes

     site n.     atom                  positions (alat units)
         1           O   tau(   1) = (   0.7170453   0.3081263   0.3139220  )
         2           H   tau(   2) = (   0.7353998   0.3855872   0.2995901  )
         3           H   tau(   3) = (   0.0602939   0.6468786   0.0243758  )

     number of k points=     1  Marzari-Vanderbilt smearing, width (Ry)=  0.0250
                       cart. coord. in units 2pi/alat
        k(    1) = (   0.0000000   0.0000000   0.0000000), wk =   2.0000000

     Dense  grid:   177509 G-vectors     FFT dimensions: (  72,  72,  72)

     Estimated max dynamical RAM per process >       6.09Mb

     Estimated total allocated dynamical RAM >     170.64Mb

     Initial potential from superposition of free atoms
     Check: negative starting charge=   -0.352727

     starting charge    7.99998, renormalised to    8.00000

     negative rho (up, down):  3.527E-01 0.000E+00
     Starting wfc are    6 randomized atomic wfcs +    2 random wfc

     total cpu time spent up to now is        0.3 secs

     per-process dynamical memory:    18.8 Mb

     Self-consistent Calculation

     iteration #  1     ecut=    30.00 Ry     beta=0.70
     Davidson diagonalization with overlap
     ethr =  1.00E-02,  avg # of iterations =  8.0

     negative rho (up, down):  9.489E-02 0.000E+00

     total cpu time spent up to now is        0.4 secs

     total energy              =     -31.60215101 Ry
     Harris-Foulkes estimate   =     -32.08136406 Ry
     estimated scf accuracy    <       0.49609457 Ry

     iteration #  2     ecut=    30.00 Ry     beta=0.70
     Davidson diagonalization with overlap
     ethr =  6.20E-03,  avg # of iterations =  3.0

     negative rho (up, down):  7.412E-02 0.000E+00

     total cpu time spent up to now is        0.5 secs

     total energy              =     -31.68807886 Ry
     Harris-Foulkes estimate   =     -32.30247084 Ry
     estimated scf accuracy    <       2.11739548 Ry

     iteration #  3     ecut=    30.00 Ry     beta=0.70
     Davidson diagonalization with overlap
     ethr =  6.20E-03,  avg # of iterations =  2.0

     negative rho (up, down):  2.761E-02 0.000E+00

     total cpu time spent up to now is        0.5 secs

     total energy              =     -31.66731450 Ry
     Harris-Foulkes estimate   =     -31.83545221 Ry
     estimated scf accuracy    <       1.05324100 Ry

     iteration #  4     ecut=    30.00 Ry     beta=0.70
     Davidson diagonalization with overlap
     ethr =  6.20E-03,  avg # of iterations =  1.0

     negative rho (up, down):  1.002E-02 0.000E+00

     total cpu time spent up to now is        0.6 secs

     total energy              =     -31.72941812 Ry
     Harris-Foulkes estimate   =     -31.97594495 Ry
     estimated scf accuracy    <       1.42803043 Ry

     iteration #  5     ecut=    30.00 Ry     beta=0.70
     Davidson diagonalization with overlap
     ethr =  6.20E-03,  avg # of iterations =  1.0

     negative rho (up, down):  9.685E-04 0.000E+00

     total cpu time spent up to now is        0.6 secs

     total energy              =     -31.83986743 Ry
     Harris-Foulkes estimate   =     -31.91342367 Ry
     estimated scf accuracy    <       0.96007366 Ry

     iteration #  6     ecut=    30.00 Ry     beta=0.70
     Davidson diagonalization with overlap
     ethr =  6.20E-03,  avg # of iterations =  1.0

     negative rho (up, down):  4.137E-04 0.000E+00

     total cpu time spent up to now is        0.6 secs

     total energy              =     -31.83962542 Ry
     Harris-Foulkes estimate   =     -31.84984648 Ry
     estimated scf accuracy    <       0.05732941 Ry

     iteration #  7     ecut=    30.00 Ry     beta=0.70
     Davidson diagonalization with overlap
     ethr =  7.17E-04,  avg # of iterations =  1.0

     negative rho (up, down):  2.644E-04 0.000E+00

     total cpu time spent up to now is        0.7 secs

     total energy              =     -31.86229921 Ry
     Harris-Foulkes estimate   =     -31.87759764 Ry
     estimated scf accuracy    <       1.59286773 Ry

     iteration #  8     ecut=    30.00 Ry     beta=0.70
     Davidson diagonalization with overlap
     ethr =  7.17E-04,  avg # of iterations =  1.0

     negative rho (up, down):  1.815E-07 0.000E+00

     total cpu time spent up to now is        0.7 secs

     total energy              =     -31.80352148 Ry
     Harris-Foulkes estimate   =     -31.86346469 Ry
     estimated scf accuracy    <       1.04784133 Ry

     iteration #  9     ecut=    30.00 Ry     beta=0.70
     Davidson diagonalization with overlap
     ethr =  7.17E-04,  avg # of iterations =  1.0

     total cpu time spent up to now is        0.8 secs

     total energy              =     -31.84883795 Ry
     Harris-Foulkes estimate   =     -31.86580272 Ry
     estimated scf accuracy    <       0.73213445 Ry

     iteration # 10     ecut=    30.00 Ry     beta=0.70
     Davidson diagonalization with overlap
     ethr =  7.17E-04,  avg # of iterations =  1.0

     negative rho (up, down):  1.563E-07 0.000E+00

     total cpu time spent up to now is        0.8 secs

     total energy              =     -31.85154567 Ry
     Harris-Foulkes estimate   =     -31.85217183 Ry
     estimated scf accuracy    <       0.20074934 Ry

     iteration # 11     ecut=    30.00 Ry     beta=0.70
     Davidson diagonalization with overlap
     ethr =  7.17E-04,  avg # of iterations =  1.0

     negative rho (up, down):  2.220E-07 0.000E+00

     total cpu time spent up to now is        0.9 secs

     total energy              =     -31.85252186 Ry
     Harris-Foulkes estimate   =     -31.85157790 Ry
     estimated scf accuracy    <       0.16393053 Ry

     iteration # 12     ecut=    30.00 Ry     beta=0.70
     Davidson diagonalization with overlap
     ethr =  7.17E-04,  avg # of iterations =  1.0

     negative rho (up, down):  9.651E-08 0.000E+00

     total cpu time spent up to now is        0.9 secs

     total energy              =     -31.85333970 Ry
     Harris-Foulkes estimate   =     -31.85260276 Ry
     estimated scf accuracy    <       0.22534368 Ry

     iteration # 13     ecut=    30.00 Ry     beta=0.70
     Davidson diagonalization with overlap
     ethr =  7.17E-04,  avg # of iterations =  1.0

     negative rho (up, down):  1.435E-05 0.000E+00

     total cpu time spent up to now is        1.0 secs

     total energy              =     -31.85204609 Ry
     Harris-Foulkes estimate   =     -31.85337352 Ry
     estimated scf accuracy    <       0.26911624 Ry

     iteration # 14     ecut=    30.00 Ry     beta=0.70
     Davidson diagonalization with overlap
     ethr =  7.17E-04,  avg # of iterations =  1.0

     negative rho (up, down):  8.872E-08 0.000E+00

     total cpu time spent up to now is        1.0 secs

     total energy              =     -31.84706074 Ry
     Harris-Foulkes estimate   =     -31.85213798 Ry
     estimated scf accuracy    <       0.19823356 Ry

     iteration # 15     ecut=    30.00 Ry     beta=0.70
     Davidson diagonalization with overlap
     ethr =  7.17E-04,  avg # of iterations =  1.0

     negative rho (up, down):  2.212E-07 0.000E+00

     total cpu time spent up to now is        1.1 secs

     total energy              =     -31.84911169 Ry
     Harris-Foulkes estimate   =     -31.84922119 Ry
     estimated scf accuracy    <       0.00225287 Ry

     iteration # 16     ecut=    30.00 Ry     beta=0.70
     Davidson diagonalization with overlap
     ethr =  2.82E-05,  avg # of iterations =  8.0

     negative rho (up, down):  6.654E-08 0.000E+00

     total cpu time spent up to now is        1.1 secs

     total energy              =     -31.84930326 Ry
     Harris-Foulkes estimate   =     -31.84922685 Ry
     estimated scf accuracy    <       0.00232222 Ry

     iteration # 17     ecut=    30.00 Ry     beta=0.70
     Davidson diagonalization with overlap
     ethr =  2.82E-05,  avg # of iterations =  1.0

     negative rho (up, down):  2.058E-07 0.000E+00

     total cpu time spent up to now is        1.2 secs

     total energy              =     -31.84911141 Ry
     Harris-Foulkes estimate   =     -31.84935222 Ry
     estimated scf accuracy    <       0.01232249 Ry

     iteration # 18     ecut=    30.00 Ry     beta=0.70
     Davidson diagonalization with overlap
     ethr =  2.82E-05,  avg # of iterations =  1.0

     negative rho (up, down):  1.204E-07 0.000E+00

     total cpu time spent up to now is        1.2 secs

     total energy              =     -31.84915196 Ry
     Harris-Foulkes estimate   =     -31.84919489 Ry
     estimated scf accuracy    <       0.00087776 Ry

     iteration # 19     ecut=    30.00 Ry     beta=0.70
     Davidson diagonalization with overlap
     ethr =  1.10E-05,  avg # of iterations =  1.0

     total cpu time spent up to now is        1.3 secs

     total energy              =     -31.84917923 Ry
     Harris-Foulkes estimate   =     -31.84919324 Ry
     estimated scf accuracy    <       0.00074766 Ry

     iteration # 20     ecut=    30.00 Ry     beta=0.70
     Davidson diagonalization with overlap
     ethr =  9.35E-06,  avg # of iterations =  1.0

     total cpu time spent up to now is        1.3 secs

     total energy              =     -31.84918237 Ry
     Harris-Foulkes estimate   =     -31.84918425 Ry
     estimated scf accuracy    <       0.00005708 Ry

     iteration # 21     ecut=    30.00 Ry     beta=0.70
     Davidson diagonalization with overlap
     ethr =  7.14E-07,  avg # of iterations =  1.0

     total cpu time spent up to now is        1.4 secs

     total energy              =     -31.84918334 Ry
     Harris-Foulkes estimate   =     -31.84918488 Ry
     estimated scf accuracy    <       0.00004172 Ry

     iteration # 22     ecut=    30.00 Ry     beta=0.70
     Davidson diagonalization with overlap
     ethr =  5.22E-07,  avg # of iterations =  1.0

     total cpu time spent up to now is        1.4 secs

     total energy              =     -31.84918362 Ry
     Harris-Foulkes estimate   =     -31.84918372 Ry
     estimated scf accuracy    <       0.00000117 Ry

     iteration # 23     ecut=    30.00 Ry     beta=0.70
     Davidson diagonalization with overlap
     ethr =  1.47E-08,  avg # of iterations =  1.0

     total cpu time spent up to now is        1.5 secs

     total energy              =     -31.84918350 Ry
     Harris-Foulkes estimate   =     -31.84918363 Ry
     estimated scf accuracy    <       0.00000193 Ry

     iteration # 24     ecut=    30.00 Ry     beta=0.70
     Davidson diagonalization with overlap
     ethr =  1.47E-08,  avg # of iterations =  1.0

     total cpu time spent up to now is        1.5 secs

     End of self-consistent calculation

          k = 0.0000 0.0000 0.0000 ( 22119 PWs)   bands (ev):

   -26.1305 -11.0879  -7.1824  -7.1822  -7.0393  -0.4717   0.4392   0.8261

     the Fermi energy is    -7.0107 ev

!    total energy              =     -31.84918350 Ry
     Harris-Foulkes estimate   =     -31.84918352 Ry
     estimated scf accuracy    <          8.0E-09 Ry

     convergence has been achieved in  24 iterations

     Forces acting on atoms (Ry/au):

     atom    1 type  2   force =    -0.13292041   -0.55778973    0.10313225
     atom    2 type  1   force =     0.13266442    0.55805232   -0.10329771
     atom    3 type  1   force =     0.00025599   -0.00026259    0.00016546

     Total force =     0.824091     Total SCF correction =     0.000079

     Molecular Dynamics Calculation

     Starting temperature  =  1000.00 K

     temperature is controlled by Andersen thermostat
     Collision frequency = 1.0000/timestep
     mass H                =     1.01
     mass O                =    16.00
     Time step             =   100.00 a.u.,  4.8378 femto-seconds

     Entering Dynamics:    iteration =     1
                           time      =   0.0048 pico-seconds


     Andersen thermostat:    3 collisions

ATOMIC_POSITIONS (bohr)
O       14.303785443   6.014855173   6.326502988
H       15.124645837  10.189357213   5.427983781
H        1.377274591  12.799315458   0.289926503


     kinetic energy (Ekin) =     0.02390945 Ry
     temperature           =  1258.33320723 K 
     Ekin + Etot (const)   =   -31.82527405 Ry

     Linear momentum :   -0.0000000000   -0.0000000000    0.0000000000

     Writing output data file pwscf.save
     Check: negative starting charge=   -0.352727
     NEW-OLD atomic charge density approx. for the potential
     Check: negative starting charge=   -0.345186

     negative rho (up, down):  3.055E-01 0.000E+00

     total cpu time spent up to now is        1.9 secs

     per-process dynamical memory:    20.4 Mb

     Self-consistent Calculation

     iteration #  1     ecut=    30.00 Ry     beta=0.70
     Davidson diagonalization with overlap
     c_bands:  1 eigenvalues not converged
     ethr =  1.00E-06,  avg # of iterations = 20.0

     negative rho (up, down):  7.535E-02 0.000E+00

     total cpu time spent up to now is        2.1 secs

     total energy              =     -29.49821779 Ry
     Harris-Foulkes estimate   =     -31.96738057 Ry
     estimated scf accuracy    <       2.71124524 Ry

     iteration #  2     ecut=    30.00 Ry     beta=0.70
     Davidson diagonalization with overlap
     ethr =  1.00E-02,  avg # of iterations =  3.0

     negative rho (up, down):  5.664E-02 0.000E+00

     total cpu time spent up to now is        2.2 secs

     total energy              =     -32.08935917 Ry
     Harris-Foulkes estimate   =     -35.71041892 Ry
     estimated scf accuracy    <       9.51547193 Ry

     iteration #  3     ecut=    30.00 Ry     beta=0.70
     Davidson diagonalization with overlap
     ethr =  1.00E-02,  avg # of iterations =  2.0

     negative rho (up, down):  4.924E-02 0.000E+00

     total cpu time spent up to now is        2.2 secs

     total energy              =     -31.85800902 Ry
     Harris-Foulkes estimate   =     -32.37160302 Ry
     estimated scf accuracy    <       3.47673154 Ry

     iteration #  4     ecut=    30.00 Ry     beta=0.70
     Davidson diagonalization with overlap
     ethr =  1.00E-02,  avg # of iterations =  1.0

     negative rho (up, down):  4.511E-02 0.000E+00

     total cpu time spent up to now is        2.3 secs

     total energy              =     -31.76290864 Ry
     Harris-Foulkes estimate   =     -31.87118084 Ry
     estimated scf accuracy    <       2.19863605 Ry

     iteration #  5     ecut=    30.00 Ry     beta=0.70
     Davidson diagonalization with overlap
     ethr =  1.00E-02,  avg # of iterations =  1.0

     negative rho (up, down):  2.393E-02 0.000E+00

     total cpu time spent up to now is        2.3 secs

     total energy              =     -31.13225083 Ry
     Harris-Foulkes estimate   =     -31.76351242 Ry
     estimated scf accuracy    <       1.99465745 Ry

     iteration #  6     ecut=    30.00 Ry     beta=0.70
     Davidson diagonalization with overlap
     ethr =  1.00E-02,  avg # of iterations =  4.0

     negative rho (up, down):  5.765E-03 0.000E+00

     total cpu time spent up to now is        2.4 secs

     total energy              =     -32.22875731 Ry
     Harris-Foulkes estimate   =     -32.12812605 Ry
     estimated scf accuracy    <       3.02257059 Ry

     iteration #  7     ecut=    30.00 Ry     beta=0.70
     Davidson diagonalization with overlap
     ethr =  1.00E-02,  avg # of iterations =  1.0

     negative rho (up, down):  7.353E-03 0.000E+00

     total cpu time spent up to now is        2.4 secs

     total energy              =     -31.97439182 Ry
     Harris-Foulkes estimate   =     -32.23856257 Ry
     estimated scf accuracy    <       3.68935573 Ry

     iteration #  8     ecut=    30.00 Ry     beta=0.70
     Davidson diagonalization with overlap
     ethr =  1.00E-02,  avg # of iterations =  1.0

     negative rho (up, down):  3.365E-03 0.000E+00

     total cpu time spent up to now is        2.5 secs

     total energy              =     -31.28730398 Ry
     Harris-Foulkes estimate   =     -31.98385631 Ry
     estimated scf accuracy    <       2.71724690 Ry

     iteration #  9     ecut=    30.00 Ry     beta=0.70
     Davidson diagonalization with overlap
     ethr =  1.00E-02,  avg # of iterations =  1.0

     negative rho (up, down):  2.679E-04 0.000E+00

     total cpu time spent up to now is        2.5 secs

     total energy              =     -31.85949581 Ry
     Harris-Foulkes estimate   =     -31.81128250 Ry
     estimated scf accuracy    <       1.67048441 Ry

     iteration # 10     ecut=    30.00 Ry     beta=0.70
     Davidson diagonalization with overlap
     ethr =  1.00E-02,  avg # of iterations =  1.0

     total cpu time spent up to now is        2.6 secs

     total energy              =     -31.50731730 Ry
     Harris-Foulkes estimate   =     -31.86252486 Ry
     estimated scf accuracy    <       1.95302354 Ry

     iteration # 11     ecut=    30.00 Ry     beta=0.70
     Davidson diagonalization with overlap
     ethr =  1.00E-02,  avg # of iterations =  1.0

     negative rho (up, down):  3.701E-08 0.000E+00

     total cpu time spent up to now is        2.6 secs

     total energy              =     -31.67810917 Ry
     Harris-Foulkes estimate   =     -31.65410296 Ry
     estimated scf accuracy    <       1.42283602 Ry

     iteration # 12     ecut=    30.00 Ry     beta=0.70
     Davidson diagonalization with overlap
     ethr =  1.00E-02,  avg # of iterations =  1.0

     negative rho (up, down):  2.086E-06 0.000E+00

     total cpu time spent up to now is        2.7 secs

     total energy              =     -31.63670208 Ry
     Harris-Foulkes estimate   =     -31.67768500 Ry
     estimated scf accuracy    <       1.34961252 Ry

     iteration # 13     ecut=    30.00 Ry     beta=0.70
     Davidson diagonalization with overlap
     ethr =  1.00E-02,  avg # of iterations =  1.0

     negative rho (up, down):  8.476E-05 0.000E+00

     total cpu time spent up to now is        2.7 secs

     total energy              =     -31.62170585 Ry
     Harris-Foulkes estimate   =     -31.63485948 Ry
     estimated scf accuracy    <       1.58238858 Ry

     iteration # 14     ecut=    30.00 Ry     beta=0.70
     Davidson diagonalization with overlap
     ethr =  1.00E-02,  avg # of iterations =  1.0

     negative rho (up, down):  1.932E-04 0.000E+00

     total cpu time spent up to now is        2.8 secs

     total energy              =     -31.62327013 Ry
     Harris-Foulkes estimate   =     -31.62222573 Ry
     estimated scf accuracy    <       1.25065240 Ry

     iteration # 15     ecut=    30.00 Ry     beta=0.70
     Davidson diagonalization with overlap
     ethr =  1.00E-02,  avg # of iterations =  1.0

     negative rho (up, down):  1.692E-04 0.000E+00

     total cpu time spent up to now is        2.8 secs

     total energy              =     -31.63312330 Ry
     Harris-Foulkes estimate   =     -31.62328370 Ry
     estimated scf accuracy    <       1.30056239 Ry

     iteration # 16     ecut=    30.00 Ry     beta=0.70
     Davidson diagonalization with overlap
     ethr =  1.00E-02,  avg # of iterations =  1.0

     negative rho (up, down):  3.891E-04 0.000E+00

     total cpu time spent up to now is        2.9 secs

     total energy              =     -31.68583767 Ry
     Harris-Foulkes estimate   =     -31.63365190 Ry
     estimated scf accuracy    <       1.55734399 Ry

     iteration # 17     ecut=    30.00 Ry     beta=0.70
     Davidson diagonalization with overlap
     ethr =  1.00E-02,  avg # of iterations =  1.0

     negative rho (up, down):  2.493E-04 0.000E+00

     total cpu time spent up to now is        2.9 secs

     total energy              =     -31.80796842 Ry
     Harris-Foulkes estimate   =     -31.68246720 Ry
     estimated scf accuracy    <       1.24290103 Ry

     iteration # 18     ecut=    30.00 Ry     beta=0.70
     Davidson diagonalization with overlap
     ethr =  1.00E-02,  avg # of iterations =  1.0

     negative rho (up, down):  3.361E-04 0.000E+00

     total cpu time spent up to now is        3.0 secs

     total energy              =     -31.69164632 Ry
     Harris-Foulkes estimate   =     -31.80925467 Ry
     estimated scf accuracy    <       1.44953676 Ry

     iteration # 19     ecut=    30.00 Ry     beta=0.70
     Davidson diagonalization with overlap
     ethr =  1.00E-02,  avg # of iterations =  1.0

     negative rho (up, down):  3.280E-04 0.000E+00

     total cpu time spent up to now is        3.0 secs

     total energy              =     -31.81212432 Ry
     Harris-Foulkes estimate   =     -31.69319726 Ry
     estimated scf accuracy    <       1.30746974 Ry

     iteration # 20     ecut=    30.00 Ry     beta=0.70
     Davidson diagonalization with overlap
     ethr =  1.00E-02,  avg # of iterations =  1.0

     negative rho (up, down):  4.044E-05 0.000E+00

     total cpu time spent up to now is        3.1 secs

     total energy              =     -31.69831254 Ry
     Harris-Foulkes estimate   =     -31.81353833 Ry
     estimated scf accuracy    <       1.56161236 Ry

     iteration # 21     ecut=    30.00 Ry     beta=0.70
     Davidson diagonalization with overlap
     ethr =  1.00E-02,  avg # of iterations =  1.0

     negative rho (up, down):  2.122E-04 0.000E+00

     total cpu time spent up to now is        3.1 secs

     total energy              =     -31.59096206 Ry
     Harris-Foulkes estimate   =     -31.69969469 Ry
     estimated scf accuracy    <       1.31958643 Ry

     iteration # 22     ecut=    30.00 Ry     beta=0.70
     Davidson diagonalization with overlap
     ethr =  1.00E-02,  avg # of iterations =  1.0

     negative rho (up, down):  1.161E-06 0.000E+00

     total cpu time spent up to now is        3.2 secs

     total energy              =     -31.60340218 Ry
     Harris-Foulkes estimate   =     -31.60273173 Ry
     estimated scf accuracy    <       0.00047283 Ry

     iteration # 23     ecut=    30.00 Ry     beta=0.70
     Davidson diagonalization with overlap
     ethr =  5.91E-06,  avg # of iterations = 11.0

     negative rho (up, down):  1.480E-06 0.000E+00

     total cpu time spent up to now is        3.3 secs

     total energy              =     -31.57500132 Ry
     Harris-Foulkes estimate   =     -31.62557790 Ry
     estimated scf accuracy    <       1.43910636 Ry

     iteration # 24     ecut=    30.00 Ry     beta=0.70
     Davidson diagonalization with overlap
     ethr =  5.91E-06,  avg # of iterations =  4.0

     negative rho (up, down):  2.640E-07 0.000E+00

     total cpu time spent up to now is        3.3 secs

     total energy              =     -31.60757400 Ry
     Harris-Foulkes estimate   =     -31.60405521 Ry
     estimated scf accuracy    <       0.09881671 Ry

     iteration # 25     ecut=    30.00 Ry     beta=0.70
     Davidson diagonalization with overlap
     ethr =  5.91E-06,  avg # of iterations =  2.0

     negative rho (up, down):  1.797E-07 0.000E+00

     total cpu time spent up to now is        3.4 secs

     total energy              =     -31.59646347 Ry
     Harris-Foulkes estimate   =     -31.60946132 Ry
     estimated scf accuracy    <       0.41386011 Ry

     iteration # 26     ecut=    30.00 Ry     beta=0.70
     Davidson diagonalization with overlap
     ethr =  5.91E-06,  avg # of iterations =  2.0

     total cpu time spent up to now is        3.4 secs

     total energy              =     -31.60281904 Ry
     Harris-Foulkes estimate   =     -31.60272654 Ry
     estimated scf accuracy    <       0.00156863 Ry

     iteration # 27     ecut=    30.00 Ry     beta=0.70
     Davidson diagonalization with overlap
     ethr =  5.91E-06,  avg # of iterations =  1.0

     total cpu time spent up to now is        3.5 secs

     total energy              =     -31.60248097 Ry
     Harris-Foulkes estimate   =     -31.60293641 Ry
     estimated scf accuracy    <       0.01878437 Ry

     iteration # 28     ecut=    30.00 Ry     beta=0.70
     Davidson diagonalization with overlap
     ethr =  5.91E-06,  avg # of iterations =  1.0

     total cpu time spent up to now is        3.5 secs

     total energy              =     -31.60270836 Ry
     Harris-Foulkes estimate   =     -31.60270765 Ry
     estimated scf accuracy    <       0.00000190 Ry

     iteration # 29     ecut=    30.00 Ry     beta=0.70
     Davidson diagonalization with overlap
     ethr =  2.37E-08,  avg # of iterations =  1.0

     total cpu time spent up to now is        3.6 secs

     total energy              =     -31.60270475 Ry
     Harris-Foulkes estimate   =     -31.60271235 Ry
     estimated scf accuracy    <       0.00029295 Ry

     iteration # 30     ecut=    30.00 Ry     beta=0.70
     Davidson diagonalization with overlap
     ethr =  2.37E-08,  avg # of iterations =  1.0

     total cpu time spent up to now is        3.6 secs

     total energy              =     -31.60270930 Ry
     Harris-Foulkes estimate   =     -31.60270912 Ry
     estimated scf accuracy    <       0.00000253 Ry

     iteration # 31     ecut=    30.00 Ry     beta=0.70
     Davidson diagonalization with overlap
     ethr =  2.37E-08,  avg # of iterations =  1.0

     total cpu time spent up to now is        3.7 secs

     total energy              =     -31.60270933 Ry
     Harris-Foulkes estimate   =     -31.60270945 Ry
     estimated scf accuracy    <       0.00000307 Ry

     iteration # 32     ecut=    30.00 Ry     beta=0.70
     Davidson diagonalization with overlap
     ethr =  2.37E-08,  avg # of iterations =  1.0

     total cpu time spent up to now is        3.7 secs

     total energy              =     -31.60270934 Ry
     Harris-Foulkes estimate   =     -31.60270938 Ry
     estimated scf accuracy    <       0.00000007 Ry

     iteration # 33     ecut=    30.00 Ry     beta=0.70
     Davidson diagonalization with overlap
     ethr =  8.20E-10,  avg # of iterations =  1.0

     total cpu time spent up to now is        3.8 secs

     total energy              =     -31.60270934 Ry
     Harris-Foulkes estimate   =     -31.60270934 Ry
     estimated scf accuracy    <       0.00000003 Ry

     iteration # 34     ecut=    30.00 Ry     beta=0.70
     Davidson diagonalization with overlap
     ethr =  3.54E-10,  avg # of iterations =  1.0

     total cpu time spent up to now is        3.8 secs

     total energy              =     -31.60270934 Ry
     Harris-Foulkes estimate   =     -31.60270934 Ry
     estimated scf accuracy    <       0.00000002 Ry

     iteration # 35     ecut=    30.00 Ry     beta=0.70
     Davidson diagonalization with overlap
     ethr =  2.49E-10,  avg # of iterations =  1.0

     total cpu time spent up to now is        3.9 secs

     End of self-consistent calculation

          k = 0.0000 0.0000 0.0000 ( 22119 PWs)   bands (ev):

   -23.6414  -8.0227  -6.9606  -6.9599  -6.8276  -6.0393  -0.1373   0.7628

     the Fermi energy is    -6.7922 ev

!    total energy              =     -31.60270934 Ry
     Harris-Foulkes estimate   =     -31.60270934 Ry
     estimated scf accuracy    <          2.4E-11 Ry

     convergence has been achieved in  35 iterations

     Forces acting on atoms (Ry/au):

     atom    1 type  2   force =     0.01728060    0.08910022   -0.01972386
     atom    2 type  1   force =    -0.01730527   -0.08917419    0.01936521
     atom    3 type  1   force =     0.00002466    0.00007396    0.00035865

     Total force =     0.131351     Total SCF correction =     0.000003

     Entering Dynamics:    iteration =     2
                           time      =   0.0097 pico-seconds


     Andersen thermostat:    3 collisions

ATOMIC_POSITIONS (bohr)
O       14.320308485   6.080265210   6.327286155
H       14.694520664   9.254816673   5.549765217
H        1.545648601  12.697657403   0.155738464


     kinetic energy (Ekin) =     0.01876353 Ry
     temperature           =   987.50793411 K 
     Ekin + Etot (const)   =   -31.58394581 Ry
     Message from routine dynamics:
     Total linear momentum <> 0

     Linear momentum :    0.1358305337   -0.0512560364    0.1621797954

     Writing output data file pwscf.save

     first order wave-functions extrapolation
     Check: negative starting charge=   -0.345186
     first order charge density extrapolation
     Check: negative starting charge=   -0.346295

     negative rho (up, down):  5.388E-01 0.000E+00

     total cpu time spent up to now is        4.3 secs

     per-process dynamical memory:    20.4 Mb

     Self-consistent Calculation

     iteration #  1     ecut=    30.00 Ry     beta=0.70
     Davidson diagonalization with overlap
     ethr =  1.00E-06,  avg # of iterations = 14.0

     negative rho (up, down):  1.054E-01 0.000E+00

     total cpu time spent up to now is        4.5 secs

     total energy              =      60.21175778 Ry
     Harris-Foulkes estimate   =    -347.97769576 Ry
     estimated scf accuracy    <      20.40658189 Ry

     iteration #  2     ecut=    30.00 Ry     beta=0.70
     Davidson diagonalization with overlap
     ethr =  1.00E-02,  avg # of iterations = 11.0

     negative rho (up, down):  5.795E-02 0.000E+00

     total cpu time spent up to now is        4.6 secs

     total energy              =      25.62290656 Ry
     Harris-Foulkes estimate   =    -109.87855849 Ry
     estimated scf accuracy    <      23.76888936 Ry

     iteration #  3     ecut=    30.00 Ry     beta=0.70
     Davidson diagonalization with overlap
     ethr =  1.00E-02,  avg # of iterations =  5.0

     negative rho (up, down):  4.658E-02 0.000E+00

     total cpu time spent up to now is        4.6 secs

     total energy              =     -34.25022586 Ry
     Harris-Foulkes estimate   =     -40.33530073 Ry
     estimated scf accuracy    <      13.91436529 Ry

     iteration #  4     ecut=    30.00 Ry     beta=0.70
     Davidson diagonalization with overlap
     ethr =  1.00E-02,  avg # of iterations =  2.0

     negative rho (up, down):  4.271E-02 0.000E+00

     total cpu time spent up to now is        4.7 secs

     total energy              =     -33.88792427 Ry
     Harris-Foulkes estimate   =     -35.29713082 Ry
     estimated scf accuracy    <       7.02873495 Ry

     iteration #  5     ecut=    30.00 Ry     beta=0.70
     Davidson diagonalization with overlap
     ethr =  1.00E-02,  avg # of iterations =  1.0

     negative rho (up, down):  2.818E-02 0.000E+00

     total cpu time spent up to now is        4.7 secs

     total energy              =     -31.20169875 Ry
     Harris-Foulkes estimate   =     -33.90610248 Ry
     estimated scf accuracy    <       5.03961272 Ry

     iteration #  6     ecut=    30.00 Ry     beta=0.70
     Davidson diagonalization with overlap
     ethr =  1.00E-02,  avg # of iterations =  3.0

     negative rho (up, down):  8.440E-02 0.000E+00

     total cpu time spent up to now is        4.8 secs

     total energy              =     -32.62209837 Ry
     Harris-Foulkes estimate   =     -33.02080977 Ry
     estimated scf accuracy    <       3.81271276 Ry

     iteration #  7     ecut=    30.00 Ry     beta=0.70
     Davidson diagonalization with overlap
     ethr =  1.00E-02,  avg # of iterations =  6.0

     negative rho (up, down):  7.811E-02 0.000E+00

     total cpu time spent up to now is        4.9 secs

     total energy              =     -12.65027198 Ry
     Harris-Foulkes estimate   =    -226.34573940 Ry
     estimated scf accuracy    <      22.62059914 Ry

     iteration #  8     ecut=    30.00 Ry     beta=0.70
     Davidson diagonalization with overlap
     ethr =  1.00E-02,  avg # of iterations =  4.0

     negative rho (up, down):  7.149E-02 0.000E+00

     total cpu time spent up to now is        4.9 secs

     total energy              =       7.65309218 Ry
     Harris-Foulkes estimate   =     -88.46293721 Ry
     estimated scf accuracy    <      18.34043870 Ry

     iteration #  9     ecut=    30.00 Ry     beta=0.70
     Davidson diagonalization with overlap
     ethr =  1.00E-02,  avg # of iterations =  5.0

     negative rho (up, down):  2.769E-02 0.000E+00

     total cpu time spent up to now is        5.0 secs

     total energy              =     -32.12084302 Ry
     Harris-Foulkes estimate   =     -32.31440838 Ry
     estimated scf accuracy    <       1.99300229 Ry

     iteration # 10     ecut=    30.00 Ry     beta=0.70
     Davidson diagonalization with overlap
     ethr =  1.00E-02,  avg # of iterations =  4.0

     negative rho (up, down):  5.902E-01 0.000E+00

     total cpu time spent up to now is        5.1 secs

     total energy              =     -35.72029048 Ry
     Harris-Foulkes estimate   =     -35.34755311 Ry
     estimated scf accuracy    <       4.54713318 Ry

     iteration # 11     ecut=    30.00 Ry     beta=0.70
     Davidson diagonalization with overlap
     ethr =  1.00E-02,  avg # of iterations =  6.0

     negative rho (up, down):  7.361E-01 0.000E+00

     total cpu time spent up to now is        5.1 secs

     total energy              =     -95.18743197 Ry
     Harris-Foulkes estimate   =    -133.84149187 Ry
     estimated scf accuracy    <      46.78819520 Ry

     iteration # 12     ecut=    30.00 Ry     beta=0.70
     Davidson diagonalization with overlap
     ethr =  1.00E-02,  avg # of iterations =  6.0

     negative rho (up, down):  1.005E-01 0.000E+00

     total cpu time spent up to now is        5.2 secs

     total energy              =      52.08489796 Ry
     Harris-Foulkes estimate   =    -333.20428638 Ry
     estimated scf accuracy    <      88.74424391 Ry

     iteration # 13     ecut=    30.00 Ry     beta=0.70
     Davidson diagonalization with overlap
     ethr =  1.00E-02,  avg # of iterations =  5.0

     negative rho (up, down):  6.378E-02 0.000E+00

     total cpu time spent up to now is        5.3 secs

     total energy              =     -20.69732269 Ry
     Harris-Foulkes estimate   =    -199.88253600 Ry
     estimated scf accuracy    <      67.80063904 Ry

     iteration # 14     ecut=    30.00 Ry     beta=0.70
     Davidson diagonalization with overlap
     ethr =  1.00E-02,  avg # of iterations =  5.0

     negative rho (up, down):  2.784E-01 0.000E+00

     total cpu time spent up to now is        5.3 secs

     total energy              =     -79.38607272 Ry
     Harris-Foulkes estimate   =    -112.58774433 Ry
     estimated scf accuracy    <      33.31149188 Ry

     iteration # 15     ecut=    30.00 Ry     beta=0.70
     Davidson diagonalization with overlap
     ethr =  1.00E-02,  avg # of iterations =  7.0

     negative rho (up, down):  3.213E-01 0.000E+00

     total cpu time spent up to now is        5.4 secs

     total energy              =    -221.36498973 Ry
     Harris-Foulkes estimate   =    -830.84141822 Ry
     estimated scf accuracy    <      68.45267512 Ry

     iteration # 16     ecut=    30.00 Ry     beta=0.70
     Davidson diagonalization with overlap
     ethr =  1.00E-02,  avg # of iterations =  5.0

     negative rho (up, down):  3.513E-01 0.000E+00

     total cpu time spent up to now is        5.5 secs

     total energy              =      57.77495972 Ry
     Harris-Foulkes estimate   =   -1454.54071224 Ry
     estimated scf accuracy    <      58.20872955 Ry

     iteration # 17     ecut=    30.00 Ry     beta=0.70
     Davidson diagonalization with overlap
     ethr =  1.00E-02,  avg # of iterations =  7.0

     negative rho (up, down):  3.039E-01 0.000E+00

     total cpu time spent up to now is        5.6 secs

     total energy              =     -17.41513440 Ry
     Harris-Foulkes estimate   =   -1060.47316168 Ry
     estimated scf accuracy    <      55.21426914 Ry

     iteration # 18     ecut=    30.00 Ry     beta=0.70
     Davidson diagonalization with overlap
     ethr =  1.00E-02,  avg # of iterations =  7.0

     negative rho (up, down):  6.133E-01 0.000E+00

     total cpu time spent up to now is        5.7 secs

     total energy              =      26.88011634 Ry
     Harris-Foulkes estimate   =   -2297.46906273 Ry
     estimated scf accuracy    <      56.94714866 Ry

     iteration # 19     ecut=    30.00 Ry     beta=0.70
     Davidson diagonalization with overlap
     ethr =  1.00E-02,  avg # of iterations = 11.0

     negative rho (up, down):  2.200E+00 0.000E+00

     total cpu time spent up to now is        5.8 secs

     total energy              =    -127.47397389 Ry
     Harris-Foulkes estimate   =    -488.13914171 Ry
     estimated scf accuracy    <      52.07883440 Ry

     iteration # 20     ecut=    30.00 Ry     beta=0.70
     Davidson diagonalization with overlap
     ethr =  1.00E-02,  avg # of iterations =  8.0

     negative rho (up, down):  2.920E+00 0.000E+00

     total cpu time spent up to now is        5.9 secs

     total energy              =      30.24806703 Ry
     Harris-Foulkes estimate   =  -25671.81288643 Ry
     estimated scf accuracy    <      42.69550991 Ry

     iteration # 21     ecut=    30.00 Ry     beta=0.70
     Davidson diagonalization with overlap
     ethr =  1.00E-02,  avg # of iterations = 11.0

     negative rho (up, down):  2.723E+00 0.000E+00

     total cpu time spent up to now is        6.0 secs

     total energy              =      57.30156049 Ry
     Harris-Foulkes estimate   =   -1642.23947961 Ry
     estimated scf accuracy    <      43.81349506 Ry

     iteration # 22     ecut=    30.00 Ry     beta=0.70
     Davidson diagonalization with overlap
     ethr =  1.00E-02,  avg # of iterations =  7.0

     negative rho (up, down):  2.814E+00 0.000E+00

     total cpu time spent up to now is        6.1 secs

     total energy              =    -147.94653139 Ry
     Harris-Foulkes estimate   =   -1611.51285293 Ry
     estimated scf accuracy    <      31.67423380 Ry

     iteration # 23     ecut=    30.00 Ry     beta=0.70
     Davidson diagonalization with overlap
     ethr =  1.00E-02,  avg # of iterations =  9.0

     negative rho (up, down):  1.837E+00 0.000E+00

     total cpu time spent up to now is        6.2 secs

     total energy              =    -183.75121596 Ry
     Harris-Foulkes estimate   =   -4384.34758452 Ry
     estimated scf accuracy    <      32.83416768 Ry

     iteration # 24     ecut=    30.00 Ry     beta=0.70
     Davidson diagonalization with overlap
     ethr =  1.00E-02,  avg # of iterations =  7.0

     negative rho (up, down):  8.139E-01 0.000E+00

     total cpu time spent up to now is        6.2 secs

     total energy              =    -130.10550022 Ry
     Harris-Foulkes estimate   =   -1356.64337717 Ry
     estimated scf accuracy    <      28.80359505 Ry

     iteration # 25     ecut=    30.00 Ry     beta=0.70
     Davidson diagonalization with overlap
     ethr =  1.00E-02,  avg # of iterations =  7.0

     negative rho (up, down):  5.469E-01 0.000E+00

     total cpu time spent up to now is        6.3 secs

     total energy              =     118.79558722 Ry
     Harris-Foulkes estimate   =   -5422.06868407 Ry
     estimated scf accuracy    <      28.87485166 Ry

     iteration # 26     ecut=    30.00 Ry     beta=0.70
     Davidson diagonalization with overlap
     ethr =  1.00E-02,  avg # of iterations =  6.0

     negative rho (up, down):  3.820E-01 0.000E+00

     total cpu time spent up to now is        6.4 secs

     total energy              =     118.68773642 Ry
     Harris-Foulkes estimate   =    -578.51211736 Ry
     estimated scf accuracy    <      16.75780388 Ry

     iteration # 27     ecut=    30.00 Ry     beta=0.70
     Davidson diagonalization with overlap
     ethr =  1.00E-02,  avg # of iterations = 12.0

     negative rho (up, down):  2.250E-02 0.000E+00

     total cpu time spent up to now is        6.5 secs

     total energy              =       2.25993204 Ry
     Harris-Foulkes estimate   =    -289.51398741 Ry
     estimated scf accuracy    <      32.44592120 Ry

     iteration # 28     ecut=    30.00 Ry     beta=0.70
     Davidson diagonalization with overlap
     ethr =  1.00E-02,  avg # of iterations =  6.0

     negative rho (up, down):  1.413E-02 0.000E+00

     total cpu time spent up to now is        6.6 secs

     total energy              =     -10.04518785 Ry
     Harris-Foulkes estimate   =    -627.28440349 Ry
     estimated scf accuracy    <      27.08781398 Ry

     iteration # 29     ecut=    30.00 Ry     beta=0.70
     Davidson diagonalization with overlap
     ethr =  1.00E-02,  avg # of iterations =  6.0

     negative rho (up, down):  3.263E-03 0.000E+00

     total cpu time spent up to now is        6.7 secs

     total energy              =      28.87168597 Ry
     Harris-Foulkes estimate   =   -1234.52184567 Ry
     estimated scf accuracy    <      17.22163818 Ry

     iteration # 30     ecut=    30.00 Ry     beta=0.70
     Davidson diagonalization with overlap
     ethr =  1.00E-02,  avg # of iterations =  5.0

     negative rho (up, down):  5.873E-03 0.000E+00

     total cpu time spent up to now is        6.7 secs

     total energy              =     -15.86927375 Ry
     Harris-Foulkes estimate   =     -97.86299482 Ry
     estimated scf accuracy    <      22.60245323 Ry

     iteration # 31     ecut=    30.00 Ry     beta=0.70
     Davidson diagonalization with overlap
     ethr =  1.00E-02,  avg # of iterations =  8.0

     negative rho (up, down):  3.585E-03 0.000E+00

     total cpu time spent up to now is        6.8 secs

     total energy              =     -64.21498520 Ry
     Harris-Foulkes estimate   =     -60.43207223 Ry
     estimated scf accuracy    <      40.38950828 Ry

     iteration # 32     ecut=    30.00 Ry     beta=0.70
     Davidson diagonalization with overlap
     ethr =  1.00E-02,  avg # of iterations =  4.0

     negative rho (up, down):  2.191E-02 0.000E+00

     total cpu time spent up to now is        6.9 secs

     total energy              =     -19.85333242 Ry
     Harris-Foulkes estimate   =    -336.29402924 Ry
     estimated scf accuracy    <      24.92502035 Ry

     iteration # 33     ecut=    30.00 Ry     beta=0.70
     Davidson diagonalization with overlap
     ethr =  1.00E-02,  avg # of iterations =  4.0

     negative rho (up, down):  1.931E-02 0.000E+00

     total cpu time spent up to now is        6.9 secs

     total energy              =    -100.07244463 Ry
     Harris-Foulkes estimate   =     -99.40479704 Ry
     estimated scf accuracy    <      55.59728008 Ry

     iteration # 34     ecut=    30.00 Ry     beta=0.70
     Davidson diagonalization with overlap
     ethr =  1.00E-02,  avg # of iterations =  3.0

     negative rho (up, down):  2.529E-01 0.000E+00

     total cpu time spent up to now is        7.0 secs

     total energy              =     349.86510868 Ry
     Harris-Foulkes estimate   =    -201.49630465 Ry
     estimated scf accuracy    <      50.34459397 Ry

     iteration # 35     ecut=    30.00 Ry     beta=0.70
     Davidson diagonalization with overlap
     ethr =  1.00E-02,  avg # of iterations =  7.0

     negative rho (up, down):  4.924E-01 0.000E+00

     total cpu time spent up to now is        7.1 secs

     total energy              =       9.56438990 Ry
     Harris-Foulkes estimate   =    -420.16260068 Ry
     estimated scf accuracy    <      38.17769666 Ry

     iteration # 36     ecut=    30.00 Ry     beta=0.70
     Davidson diagonalization with overlap
     ethr =  1.00E-02,  avg # of iterations =  9.0

     negative rho (up, down):  5.705E-01 0.000E+00

     total cpu time spent up to now is        7.2 secs

     total energy              =    -446.26458008 Ry
     Harris-Foulkes estimate   =   -2227.29787302 Ry
     estimated scf accuracy    <      36.74562869 Ry

     iteration # 37     ecut=    30.00 Ry     beta=0.70
     Davidson diagonalization with overlap
     ethr =  1.00E-02,  avg # of iterations =  9.0

     negative rho (up, down):  6.494E-01 0.000E+00

     total cpu time spent up to now is        7.3 secs

     total energy              =   -4104.33933846 Ry
     Harris-Foulkes estimate   =   -6997.44419217 Ry
     estimated scf accuracy    <      46.50356761 Ry

     iteration # 38     ecut=    30.00 Ry     beta=0.70
     Davidson diagonalization with overlap
     ethr =  1.00E-02,  avg # of iterations =  7.0

     negative rho (up, down):  9.511E-01 0.000E+00

     total cpu time spent up to now is        7.3 secs

     total energy              =      30.04152290 Ry
     Harris-Foulkes estimate   =  -11066.25209950 Ry
     estimated scf accuracy    <      44.39846090 Ry

     iteration # 39     ecut=    30.00 Ry     beta=0.70
     Davidson diagonalization with overlap
     ethr =  1.00E-02,  avg # of iterations =  7.0

     negative rho (up, down):  1.068E+00 0.000E+00

     total cpu time spent up to now is        7.4 secs

     total energy              =       7.27285350 Ry
     Harris-Foulkes estimate   =   -2956.01485516 Ry
     estimated scf accuracy    <      26.32512039 Ry

     iteration # 40     ecut=    30.00 Ry     beta=0.70
     Davidson diagonalization with overlap
     ethr =  1.00E-02,  avg # of iterations =  7.0

     negative rho (up, down):  9.503E-01 0.000E+00

     total cpu time spent up to now is        7.5 secs

     total energy              =      51.91148761 Ry
     Harris-Foulkes estimate   =   -2796.33799111 Ry
     estimated scf accuracy    <      25.11600955 Ry

     iteration # 41     ecut=    30.00 Ry     beta=0.70
     Davidson diagonalization with overlap
     ethr =  1.00E-02,  avg # of iterations = 10.0

     negative rho (up, down):  7.792E-01 0.000E+00

     total cpu time spent up to now is        7.6 secs

     total energy              =    -180.46810160 Ry
     Harris-Foulkes estimate   =    -922.03145796 Ry
     estimated scf accuracy    <      30.76748598 Ry

     iteration # 42     ecut=    30.00 Ry     beta=0.70
     Davidson diagonalization with overlap
     ethr =  1.00E-02,  avg # of iterations =  8.0

     negative rho (up, down):  1.057E+00 0.000E+00

     total cpu time spent up to now is        7.7 secs

     total energy              =    -131.52104252 Ry
     Harris-Foulkes estimate   =   -2868.98392579 Ry
     estimated scf accuracy    <      29.76236683 Ry

     iteration # 43     ecut=    30.00 Ry     beta=0.70
     Davidson diagonalization with overlap
     ethr =  1.00E-02,  avg # of iterations =  8.0

     negative rho (up, down):  8.565E-01 0.000E+00

     total cpu time spent up to now is        7.8 secs

     total energy              =      -1.30316801 Ry
     Harris-Foulkes estimate   =   -3590.46916293 Ry
     estimated scf accuracy    <      19.25940808 Ry

     iteration # 44     ecut=    30.00 Ry     beta=0.70
     Davidson diagonalization with overlap
     ethr =  1.00E-02,  avg # of iterations =  6.0

     negative rho (up, down):  6.802E-01 0.000E+00

     total cpu time spent up to now is        7.9 secs

     total energy              =      37.24863155 Ry
     Harris-Foulkes estimate   =   -1701.90851805 Ry
     estimated scf accuracy    <      24.66806015 Ry

     iteration # 45     ecut=    30.00 Ry     beta=0.70
     Davidson diagonalization with overlap
     ethr =  1.00E-02,  avg # of iterations =  8.0

     negative rho (up, down):  4.807E-01 0.000E+00

     total cpu time spent up to now is        8.0 secs

     total energy              =      42.65293301 Ry
     Harris-Foulkes estimate   =   -3155.65451007 Ry
     estimated scf accuracy    <      18.35432770 Ry

     iteration # 46     ecut=    30.00 Ry     beta=0.70
     Davidson diagonalization with overlap
     ethr =  1.00E-02,  avg # of iterations =  7.0

     negative rho (up, down):  3.870E-01 0.000E+00

     total cpu time spent up to now is        8.1 secs

     total energy              =      28.12855982 Ry
     Harris-Foulkes estimate   =    -376.24477080 Ry
     estimated scf accuracy    <      26.27800329 Ry

     iteration # 47     ecut=    30.00 Ry     beta=0.70
     Davidson diagonalization with overlap
     ethr =  1.00E-02,  avg # of iterations =  6.0

     negative rho (up, down):  1.704E-02 0.000E+00

     total cpu time spent up to now is        8.1 secs

     total energy              =      40.39315231 Ry
     Harris-Foulkes estimate   =    -296.54146323 Ry
     estimated scf accuracy    <      27.08599567 Ry

     iteration # 48     ecut=    30.00 Ry     beta=0.70
     Davidson diagonalization with overlap
     ethr =  1.00E-02,  avg # of iterations =  6.0

     negative rho (up, down):  2.641E-04 0.000E+00

     total cpu time spent up to now is        8.2 secs

     total energy              =     -13.76448005 Ry
     Harris-Foulkes estimate   =     -80.32571943 Ry
     estimated scf accuracy    <      14.75709986 Ry

     iteration # 49     ecut=    30.00 Ry     beta=0.70
     Davidson diagonalization with overlap
     ethr =  1.00E-02,  avg # of iterations =  8.0

     negative rho (up, down):  1.096E-03 0.000E+00

     total cpu time spent up to now is        8.3 secs

     total energy              =     -33.02657417 Ry
     Harris-Foulkes estimate   =     -34.26100756 Ry
     estimated scf accuracy    <       6.84845970 Ry

     iteration # 50     ecut=    30.00 Ry     beta=0.70
     Davidson diagonalization with overlap
     ethr =  1.00E-02,  avg # of iterations =  3.0

     negative rho (up, down):  1.165E-01 0.000E+00

     total cpu time spent up to now is        8.4 secs

     total energy              =     -28.07005413 Ry
     Harris-Foulkes estimate   =     -49.91842311 Ry
     estimated scf accuracy    <       8.07214814 Ry

     iteration # 51     ecut=    30.00 Ry     beta=0.70
     Davidson diagonalization with overlap
     ethr =  1.00E-02,  avg # of iterations =  5.0

     negative rho (up, down):  1.927E-01 0.000E+00

     total cpu time spent up to now is        8.4 secs

     total energy              =     -48.44852890 Ry
     Harris-Foulkes estimate   =    -326.58932786 Ry
     estimated scf accuracy    <      34.67794430 Ry

     iteration # 52     ecut=    30.00 Ry     beta=0.70
     Davidson diagonalization with overlap
     ethr =  1.00E-02,  avg # of iterations =  5.0

     negative rho (up, down):  2.027E-01 0.000E+00

     total cpu time spent up to now is        8.5 secs

     total energy              =      36.77694834 Ry
     Harris-Foulkes estimate   =    -653.78676353 Ry
     estimated scf accuracy    <      34.35455948 Ry

     iteration # 53     ecut=    30.00 Ry     beta=0.70
     Davidson diagonalization with overlap
     ethr =  1.00E-02,  avg # of iterations =  5.0

     negative rho (up, down):  2.193E-01 0.000E+00

     total cpu time spent up to now is        8.6 secs

     total energy              =    -209.40997240 Ry
     Harris-Foulkes estimate   =    -649.82946346 Ry
     estimated scf accuracy    <      31.97360327 Ry

     iteration # 54     ecut=    30.00 Ry     beta=0.70
     Davidson diagonalization with overlap
     ethr =  1.00E-02,  avg # of iterations =  7.0

     negative rho (up, down):  1.661E-01 0.000E+00

     total cpu time spent up to now is        8.7 secs

     total energy              =      70.86644765 Ry
     Harris-Foulkes estimate   =   -1094.31347200 Ry
     estimated scf accuracy    <      24.69415372 Ry

     iteration # 55     ecut=    30.00 Ry     beta=0.70
     Davidson diagonalization with overlap
     ethr =  1.00E-02,  avg # of iterations =  8.0

     negative rho (up, down):  1.909E-01 0.000E+00

     total cpu time spent up to now is        8.8 secs

     total energy              =      -7.58537056 Ry
     Harris-Foulkes estimate   =     -89.65814796 Ry
     estimated scf accuracy    <      14.01648643 Ry

     iteration # 56     ecut=    30.00 Ry     beta=0.70
     Davidson diagonalization with overlap
     ethr =  1.00E-02,  avg # of iterations =  7.0

     negative rho (up, down):  2.728E-01 0.000E+00

     total cpu time spent up to now is        8.8 secs

     total energy              =    -143.40424378 Ry
     Harris-Foulkes estimate   =    -541.89022843 Ry
     estimated scf accuracy    <      29.71289132 Ry

     iteration # 57     ecut=    30.00 Ry     beta=0.70
     Davidson diagonalization with overlap
     ethr =  1.00E-02,  avg # of iterations =  8.0

     negative rho (up, down):  3.966E-01 0.000E+00

     total cpu time spent up to now is        8.9 secs

     total energy              =      50.03961200 Ry
     Harris-Foulkes estimate   =   -1149.80993103 Ry
     estimated scf accuracy    <      32.35464080 Ry

     iteration # 58     ecut=    30.00 Ry     beta=0.70
     Davidson diagonalization with overlap
     ethr =  1.00E-02,  avg # of iterations =  8.0

     negative rho (up, down):  8.437E-01 0.000E+00

     total cpu time spent up to now is        9.0 secs

     total energy              =  -17017.34603096 Ry
     Harris-Foulkes estimate   =   -2755.62537949 Ry
     estimated scf accuracy    <      32.17812266 Ry

     iteration # 59     ecut=    30.00 Ry     beta=0.70
     Davidson diagonalization with overlap
     ethr =  1.00E-02,  avg # of iterations =  7.0

     negative rho (up, down):  1.286E+00 0.000E+00

     total cpu time spent up to now is        9.1 secs

     total energy              =      10.47821956 Ry
     Harris-Foulkes estimate   =  -45057.09505102 Ry
     estimated scf accuracy    <      31.83653624 Ry

     iteration # 60     ecut=    30.00 Ry     beta=0.70
     Davidson diagonalization with overlap
     ethr =  1.00E-02,  avg # of iterations =  5.0

     negative rho (up, down):  3.064E-01 0.000E+00

     total cpu time spent up to now is        9.2 secs

     total energy              =      84.85515563 Ry
     Harris-Foulkes estimate   =  -11322.29132582 Ry
     estimated scf accuracy    <      23.64444433 Ry

     iteration # 61     ecut=    30.00 Ry     beta=0.70
     Davidson diagonalization with overlap
     ethr =  1.00E-02,  avg # of iterations =  8.0

     negative rho (up, down):  5.683E-01 0.000E+00

     total cpu time spent up to now is        9.3 secs

     total energy              =     -52.81988540 Ry
     Harris-Foulkes estimate   =   -1426.53171307 Ry
     estimated scf accuracy    <      22.21782572 Ry

     iteration # 62     ecut=    30.00 Ry     beta=0.70
     Davidson diagonalization with overlap
     ethr =  1.00E-02,  avg # of iterations =  7.0

     negative rho (up, down):  6.741E-01 0.000E+00

     total cpu time spent up to now is        9.4 secs

     total energy              =      38.03575653 Ry
     Harris-Foulkes estimate   =   -9377.99886657 Ry
     estimated scf accuracy    <      17.76359290 Ry

     iteration # 63     ecut=    30.00 Ry     beta=0.70
     Davidson diagonalization with overlap
     ethr =  1.00E-02,  avg # of iterations =  6.0

     negative rho (up, down):  8.965E-01 0.000E+00

     total cpu time spent up to now is        9.5 secs

     total energy              =     -38.72197882 Ry
     Harris-Foulkes estimate   =   -4170.62963960 Ry
     estimated scf accuracy    <      31.41297335 Ry

     iteration # 64     ecut=    30.00 Ry     beta=0.70
     Davidson diagonalization with overlap
     ethr =  1.00E-02,  avg # of iterations =  7.0

     negative rho (up, down):  5.334E-01 0.000E+00

     total cpu time spent up to now is        9.5 secs

     total energy              =     -21.46821138 Ry
     Harris-Foulkes estimate   =   -5598.10566337 Ry
     estimated scf accuracy    <      27.13273626 Ry

     iteration # 65     ecut=    30.00 Ry     beta=0.70
     Davidson diagonalization with overlap
     ethr =  1.00E-02,  avg # of iterations =  9.0

     negative rho (up, down):  4.071E-01 0.000E+00

     total cpu time spent up to now is        9.6 secs

     total energy              =  111953.91117297 Ry
     Harris-Foulkes estimate   =   -1523.70068853 Ry
     estimated scf accuracy    <      18.72349520 Ry

     iteration # 66     ecut=    30.00 Ry     beta=0.70
     Davidson diagonalization with overlap
     ethr =  1.00E-02,  avg # of iterations = 11.0

     negative rho (up, down):  1.026E-03 0.000E+00

     total cpu time spent up to now is        9.8 secs

     total energy              =     104.96613072 Ry
     Harris-Foulkes estimate   =  -17137.58384771 Ry
     estimated scf accuracy    <      22.68824829 Ry

     iteration # 67     ecut=    30.00 Ry     beta=0.70
     Davidson diagonalization with overlap
     ethr =  1.00E-02,  avg # of iterations =  9.0

     negative rho (up, down):  4.688E-03 0.000E+00

     total cpu time spent up to now is        9.8 secs

     total energy              =     -28.67065618 Ry
     Harris-Foulkes estimate   =     -48.02494071 Ry
     estimated scf accuracy    <      21.76271941 Ry

     iteration # 68     ecut=    30.00 Ry     beta=0.70
     Davidson diagonalization with overlap
     ethr =  1.00E-02,  avg # of iterations =  3.0

     negative rho (up, down):  2.879E-02 0.000E+00

     total cpu time spent up to now is        9.9 secs

     total energy              =       0.91753637 Ry
     Harris-Foulkes estimate   =   -3989.54008556 Ry
     estimated scf accuracy    <      11.21546356 Ry

     iteration # 69     ecut=    30.00 Ry     beta=0.70
     Davidson diagonalization with overlap
     ethr =  1.00E-02,  avg # of iterations =  5.0

     negative rho (up, down):  9.327E-05 0.000E+00

     total cpu time spent up to now is       10.0 secs

     total energy              =     -35.99825346 Ry
     Harris-Foulkes estimate   =     -39.49619064 Ry
     estimated scf accuracy    <      11.46853095 Ry

     iteration # 70     ecut=    30.00 Ry     beta=0.70
     Davidson diagonalization with overlap
     ethr =  1.00E-02,  avg # of iterations =  3.0

     negative rho (up, down):  1.757E-02 0.000E+00

     total cpu time spent up to now is       10.1 secs

     total energy              =      -4.08573764 Ry
     Harris-Foulkes estimate   =    -127.83451215 Ry
     estimated scf accuracy    <       8.71064984 Ry

     iteration # 71     ecut=    30.00 Ry     beta=0.70
     Davidson diagonalization with overlap
     ethr =  1.00E-02,  avg # of iterations =  5.0

     negative rho (up, down):  8.373E-02 0.000E+00

     total cpu time spent up to now is       10.1 secs

     total energy              =      55.32828810 Ry
     Harris-Foulkes estimate   =    -986.28845819 Ry
     estimated scf accuracy    <      29.09000109 Ry

     iteration # 72     ecut=    30.00 Ry     beta=0.70
     Davidson diagonalization with overlap
     ethr =  1.00E-02,  avg # of iterations =  7.0

     negative rho (up, down):  4.866E-02 0.000E+00

     total cpu time spent up to now is       10.2 secs

     total energy              =      50.66895376 Ry
     Harris-Foulkes estimate   =    -143.40362280 Ry
     estimated scf accuracy    <      17.62943428 Ry

     iteration # 73     ecut=    30.00 Ry     beta=0.70
     Davidson diagonalization with overlap
     ethr =  1.00E-02,  avg # of iterations =  5.0

     negative rho (up, down):  4.209E-02 0.000E+00

     total cpu time spent up to now is       10.3 secs

     total energy              =      73.96659674 Ry
     Harris-Foulkes estimate   =    -509.22026351 Ry
     estimated scf accuracy    <      33.35192070 Ry

     iteration # 74     ecut=    30.00 Ry     beta=0.70
     Davidson diagonalization with overlap
     ethr =  1.00E-02,  avg # of iterations =  5.0

     negative rho (up, down):  1.285E-01 0.000E+00

     total cpu time spent up to now is       10.4 secs

     total energy              =      11.79859858 Ry
     Harris-Foulkes estimate   =   -1641.18022969 Ry
     estimated scf accuracy    <      27.98068963 Ry

     iteration # 75     ecut=    30.00 Ry     beta=0.70
     Davidson diagonalization with overlap
     ethr =  1.00E-02,  avg # of iterations =  8.0

     negative rho (up, down):  2.744E-03 0.000E+00

     total cpu time spent up to now is       10.5 secs

     total energy              =     111.39262940 Ry
     Harris-Foulkes estimate   =   -2086.72125440 Ry
     estimated scf accuracy    <      29.07708336 Ry

     iteration # 76     ecut=    30.00 Ry     beta=0.70
     Davidson diagonalization with overlap
     ethr =  1.00E-02,  avg # of iterations =  7.0

     negative rho (up, down):  2.929E-07 0.000E+00

     total cpu time spent up to now is       10.6 secs

     total energy              =     -32.65469190 Ry
     Harris-Foulkes estimate   =     -36.98831426 Ry
     estimated scf accuracy    <       7.55226411 Ry

     iteration # 77     ecut=    30.00 Ry     beta=0.70
     Davidson diagonalization with overlap
     ethr =  1.00E-02,  avg # of iterations =  5.0

     negative rho (up, down):  1.993E-05 0.000E+00

     total cpu time spent up to now is       10.6 secs

     total energy              =     -34.85813826 Ry
     Harris-Foulkes estimate   =     -35.91742588 Ry
     estimated scf accuracy    <       8.88110134 Ry

     iteration # 78     ecut=    30.00 Ry     beta=0.70
     Davidson diagonalization with overlap
     ethr =  1.00E-02,  avg # of iterations =  1.0

     total cpu time spent up to now is       10.7 secs

     total energy              =     -34.74613808 Ry
     Harris-Foulkes estimate   =     -35.42516424 Ry
     estimated scf accuracy    <       7.75378536 Ry

     iteration # 79     ecut=    30.00 Ry     beta=0.70
     Davidson diagonalization with overlap
     ethr =  1.00E-02,  avg # of iterations =  1.0

     negative rho (up, down):  2.799E-02 0.000E+00

     total cpu time spent up to now is       10.7 secs

     total energy              =     -34.09941257 Ry
     Harris-Foulkes estimate   =     -34.82433961 Ry
     estimated scf accuracy    <       6.56184070 Ry

     iteration # 80     ecut=    30.00 Ry     beta=0.70
     Davidson diagonalization with overlap
     ethr =  1.00E-02,  avg # of iterations =  4.0

     negative rho (up, down):  1.126E-02 0.000E+00

     total cpu time spent up to now is       10.8 secs

     total energy              =      -8.96645087 Ry
     Harris-Foulkes estimate   =    -161.84865342 Ry
     estimated scf accuracy    <       5.83866062 Ry

     iteration # 81     ecut=    30.00 Ry     beta=0.70
     Davidson diagonalization with overlap
     ethr =  1.00E-02,  avg # of iterations =  3.0

     negative rho (up, down):  3.220E-03 0.000E+00

     total cpu time spent up to now is       10.8 secs

     total energy              =      -2.01201591 Ry
     Harris-Foulkes estimate   =     -73.07071436 Ry
     estimated scf accuracy    <       5.27230798 Ry

     iteration # 82     ecut=    30.00 Ry     beta=0.70
     Davidson diagonalization with overlap
     ethr =  1.00E-02,  avg # of iterations =  4.0

     negative rho (up, down):  4.325E-03 0.000E+00

     total cpu time spent up to now is       10.9 secs

     total energy              =     -32.69891993 Ry
     Harris-Foulkes estimate   =     -33.65279411 Ry
     estimated scf accuracy    <       4.28807548 Ry

     iteration # 83     ecut=    30.00 Ry     beta=0.70
     Davidson diagonalization with overlap
     ethr =  1.00E-02,  avg # of iterations =  4.0

     negative rho (up, down):  3.198E-03 0.000E+00

     total cpu time spent up to now is       11.0 secs

     total energy              =     -28.88556199 Ry
     Harris-Foulkes estimate   =     -33.39936790 Ry
     estimated scf accuracy    <       3.16929892 Ry

     iteration # 84     ecut=    30.00 Ry     beta=0.70
     Davidson diagonalization with overlap
     ethr =  1.00E-02,  avg # of iterations =  4.0

     negative rho (up, down):  4.845E-03 0.000E+00

     total cpu time spent up to now is       11.0 secs

     total energy              =     -31.96760326 Ry
     Harris-Foulkes estimate   =     -32.80295569 Ry
     estimated scf accuracy    <       4.43096188 Ry

     iteration # 85     ecut=    30.00 Ry     beta=0.70
     Davidson diagonalization with overlap
     ethr =  1.00E-02,  avg # of iterations =  4.0

     negative rho (up, down):  9.433E-08 0.000E+00

     total cpu time spent up to now is       11.1 secs

     total energy              =      19.42636249 Ry
     Harris-Foulkes estimate   =     -82.29800615 Ry
     estimated scf accuracy    <      17.53784591 Ry

     iteration # 86     ecut=    30.00 Ry     beta=0.70
     Davidson diagonalization with overlap
     ethr =  1.00E-02,  avg # of iterations =  5.0

     negative rho (up, down):  3.719E-05 0.000E+00

     total cpu time spent up to now is       11.1 secs

     total energy              =     -32.08912867 Ry
     Harris-Foulkes estimate   =     -32.40057781 Ry
     estimated scf accuracy    <       2.21581503 Ry

     iteration # 87     ecut=    30.00 Ry     beta=0.70
     Davidson diagonalization with overlap
     ethr =  1.00E-02,  avg # of iterations =  1.0

     negative rho (up, down):  1.701E-02 0.000E+00

     total cpu time spent up to now is       11.2 secs

     total energy              =     -32.10993747 Ry
     Harris-Foulkes estimate   =     -32.10033354 Ry
     estimated scf accuracy    <       1.67719266 Ry

     iteration # 88     ecut=    30.00 Ry     beta=0.70
     Davidson diagonalization with overlap
     ethr =  1.00E-02,  avg # of iterations =  4.0

     negative rho (up, down):  4.373E-02 0.000E+00

     total cpu time spent up to now is       11.2 secs

     total energy              =     -13.26292937 Ry
     Harris-Foulkes estimate   =     -49.46214732 Ry
     estimated scf accuracy    <       9.00254794 Ry

     iteration # 89     ecut=    30.00 Ry     beta=0.70
     Davidson diagonalization with overlap
     ethr =  1.00E-02,  avg # of iterations =  4.0

     negative rho (up, down):  6.988E-03 0.000E+00

     total cpu time spent up to now is       11.3 secs

     total energy              =     -22.55280983 Ry
     Harris-Foulkes estimate   =     -37.67272669 Ry
     estimated scf accuracy    <       7.69317174 Ry

     iteration # 90     ecut=    30.00 Ry     beta=0.70
     Davidson diagonalization with overlap
     ethr =  1.00E-02,  avg # of iterations =  4.0

     total cpu time spent up to now is       11.4 secs

     total energy              =     -10.15030697 Ry
     Harris-Foulkes estimate   =     -48.52303152 Ry
     estimated scf accuracy    <       8.73787259 Ry

     iteration # 91     ecut=    30.00 Ry     beta=0.70
     Davidson diagonalization with overlap
     ethr =  1.00E-02,  avg # of iterations =  4.0

     negative rho (up, down):  1.747E-02 0.000E+00

     total cpu time spent up to now is       11.4 secs

     total energy              =     -32.63171546 Ry
     Harris-Foulkes estimate   =     -31.89809547 Ry
     estimated scf accuracy    <       1.49383750 Ry

     iteration # 92     ecut=    30.00 Ry     beta=0.70
     Davidson diagonalization with overlap
     ethr =  1.00E-02,  avg # of iterations =  4.0

     negative rho (up, down):  4.151E-02 0.000E+00

     total cpu time spent up to now is       11.5 secs

     total energy              =     -41.62029333 Ry
     Harris-Foulkes estimate   =    -133.88984074 Ry
     estimated scf accuracy    <      11.85908387 Ry

     iteration # 93     ecut=    30.00 Ry     beta=0.70
     Davidson diagonalization with overlap
     ethr =  1.00E-02,  avg # of iterations =  3.0

     negative rho (up, down):  5.321E-02 0.000E+00

     total cpu time spent up to now is       11.6 secs

     total energy              =       0.04862636 Ry
     Harris-Foulkes estimate   =    -165.01888659 Ry
     estimated scf accuracy    <      21.29696040 Ry

     iteration # 94     ecut=    30.00 Ry     beta=0.70
     Davidson diagonalization with overlap
     ethr =  1.00E-02,  avg # of iterations =  5.0

     negative rho (up, down):  2.964E-02 0.000E+00

     total cpu time spent up to now is       11.6 secs

     total energy              =      24.12788401 Ry
     Harris-Foulkes estimate   =     -65.55500963 Ry
     estimated scf accuracy    <      33.84324130 Ry

     iteration # 95     ecut=    30.00 Ry     beta=0.70
     Davidson diagonalization with overlap
     ethr =  1.00E-02,  avg # of iterations =  6.0

     negative rho (up, down):  4.866E-02 0.000E+00

     total cpu time spent up to now is       11.7 secs

     total energy              =     -21.20021537 Ry
     Harris-Foulkes estimate   =     -42.40651927 Ry
     estimated scf accuracy    <       5.40990073 Ry

     iteration # 96     ecut=    30.00 Ry     beta=0.70
     Davidson diagonalization with overlap
     ethr =  1.00E-02,  avg # of iterations =  4.0

     negative rho (up, down):  1.424E-01 0.000E+00

     total cpu time spent up to now is       11.8 secs

     total energy              =   -1083.22232750 Ry
     Harris-Foulkes estimate   =     -46.76712180 Ry
     estimated scf accuracy    <      17.01163652 Ry

     iteration # 97     ecut=    30.00 Ry     beta=0.70
     Davidson diagonalization with overlap
     ethr =  1.00E-02,  avg # of iterations =  4.0

     negative rho (up, down):  2.126E-01 0.000E+00

     total cpu time spent up to now is       11.8 secs

     total energy              =      35.15254226 Ry
     Harris-Foulkes estimate   =   -2309.48587537 Ry
     estimated scf accuracy    <      41.07945577 Ry

     iteration # 98     ecut=    30.00 Ry     beta=0.70
     Davidson diagonalization with overlap
     ethr =  1.00E-02,  avg # of iterations =  6.0

     negative rho (up, down):  2.109E-01 0.000E+00

     total cpu time spent up to now is       11.9 secs

     total energy              =      -8.89544576 Ry
     Harris-Foulkes estimate   =     -74.28742495 Ry
     estimated scf accuracy    <      30.09944626 Ry

     iteration # 99     ecut=    30.00 Ry     beta=0.70
     Davidson diagonalization with overlap
     ethr =  1.00E-02,  avg # of iterations =  5.0

     negative rho (up, down):  2.233E-01 0.000E+00

     total cpu time spent up to now is       12.0 secs

     total energy              =      -5.44034368 Ry
     Harris-Foulkes estimate   =     -57.61613786 Ry
     estimated scf accuracy    <      22.52764445 Ry

     iteration #100     ecut=    30.00 Ry     beta=0.70
     Davidson diagonalization with overlap
     ethr =  1.00E-02,  avg # of iterations =  4.0

     negative rho (up, down):  5.514E-01 0.000E+00

     total cpu time spent up to now is       12.0 secs

     total energy              =      -7.22772327 Ry
     Harris-Foulkes estimate   =    -218.94064811 Ry
     estimated scf accuracy    <      11.64459191 Ry

     End of self-consistent calculation

     convergence NOT achieved after 100 iterations: stopping

     Writing output data file pwscf.save
 
     init_run     :      0.17s CPU      0.19s WALL (       1 calls)
     electrons    :      9.50s CPU     11.08s WALL (       3 calls)
     update_pot   :      0.32s CPU      0.42s WALL (       2 calls)
     forces       :      0.09s CPU      0.09s WALL (       2 calls)

     Called by init_run:
     wfcinit      :      0.01s CPU      0.02s WALL (       1 calls)
     potinit      :      0.05s CPU      0.05s WALL (       1 calls)

     Called by electrons:
     c_bands      :      5.27s CPU      5.44s WALL (     159 calls)
     sum_band     :      0.85s CPU      0.88s WALL (     159 calls)
     v_of_rho     :      1.97s CPU      2.04s WALL (     162 calls)
     mix_rho      :      1.15s CPU      2.22s WALL (     159 calls)

     Called by c_bands:
     init_us_2    :      0.02s CPU      0.03s WALL (     319 calls)
     cegterg      :      5.23s CPU      5.35s WALL (     159 calls)

     Called by sum_band:

     Called by *egterg:
     h_psi        :      4.43s CPU      4.52s WALL (     872 calls)
     g_psi        :      0.05s CPU      0.05s WALL (     712 calls)
     cdiaghg      :      0.31s CPU      0.32s WALL (     869 calls)

     Called by h_psi:
     h_psi:pot    :      4.40s CPU      4.49s WALL (     872 calls)
     h_psi:calbec :      0.04s CPU      0.06s WALL (     872 calls)
     vloc_psi     :      4.34s CPU      4.41s WALL (     872 calls)
     add_vuspsi   :      0.01s CPU      0.01s WALL (     872 calls)

     General routines
     calbec       :      0.04s CPU      0.07s WALL (     881 calls)
     fft          :      1.15s CPU      1.20s WALL (    1786 calls)
     fftw         :      4.51s CPU      4.60s WALL (   11226 calls)
     davcio       :      0.19s CPU      0.95s WALL (    2926 calls)
 
     Parallel routines
     fft_scatter  :      1.65s CPU      1.73s WALL (   13012 calls)
 
     PWSCF        :    10.31s CPU        12.16s WALL

 
   This run was terminated on:  13:50:59  13Feb2018            

=------------------------------------------------------------------------------=
   JOB DONE.
=------------------------------------------------------------------------------=
