
     Program PWSCF v.6.0 (svn rev. 13079) starts on 13Feb2018 at 13:55: 6 

     This program is part of the open-source Quantum ESPRESSO suite
     for quantum simulation of materials; please cite
         "P. Giannozzi et al., J. Phys.:Condens. Matter 21 395502 (2009);
          URL http://www.quantum-espresso.org", 
     in publications or presentations arising from this work. More details at
     http://www.quantum-espresso.org/quote

     Parallel version (MPI), running on    28 processors
     R & G space division:  proc/nbgrp/npool/nimage =      28
     Reading input from inputs/MD-H2O-round1/177.in

     Current dimensions of program PWSCF are:
     Max number of different atomic species (ntypx) = 10
     Max number of k-points (npk) =  40000
     Max angular momentum in pseudopotentials (lmaxx) =  3

     Subspace diagonalization in iterative solution of the eigenvalue problem:
     a serial algorithm will be used

 
     Parallelization info
     --------------------
     sticks:   dense  smooth     PW     G-vecs:    dense   smooth      PW
     Min         136     136     33                 6338     6338     787
     Max         137     137     34                 6341     6341     792
     Sum        3809    3809    949               177509   177509   22119
 


     bravais-lattice index     =            1
     lattice parameter (alat)  =      20.0000  a.u.
     unit-cell volume          =    8000.0000 (a.u.)^3
     number of atoms/cell      =            3
     number of atomic types    =            2
     number of electrons       =         8.00
     number of Kohn-Sham states=            8
     kinetic-energy cutoff     =      30.0000  Ry
     charge density cutoff     =     120.0000  Ry
     convergence threshold     =      1.0E-08
     mixing beta               =       0.7000
     number of iterations used =            8  plain     mixing
     Exchange-correlation      = BLYP ( 1  3  1  3 0 0)
     nstep                     =         5000


     celldm(1)=  20.000000  celldm(2)=   0.000000  celldm(3)=   0.000000
     celldm(4)=   0.000000  celldm(5)=   0.000000  celldm(6)=   0.000000

     crystal axes: (cart. coord. in units of alat)
               a(1) = (   1.000000   0.000000   0.000000 )  
               a(2) = (   0.000000   1.000000   0.000000 )  
               a(3) = (   0.000000   0.000000   1.000000 )  

     reciprocal axes: (cart. coord. in units 2 pi/alat)
               b(1) = (  1.000000  0.000000  0.000000 )  
               b(2) = (  0.000000  1.000000  0.000000 )  
               b(3) = (  0.000000  0.000000  1.000000 )  


     PseudoPot. # 1 for  H read from file:
     ./H.blyp-hgh.UPF
     MD5 check sum: c576e69559cde411e611be972c763230
     Pseudo is Norm-conserving, Zval =  1.0
     Generated in analytical, separable form
     Using radial grid of  929 points,  0 beta functions with: 

     PseudoPot. # 2 for  O read from file:
     ./O.blyp-hgh.UPF
     MD5 check sum: d0b7156309aa9befef28faac7bc56342
     Pseudo is Norm-conserving, Zval =  6.0
     Generated in analytical, separable form
     Using radial grid of 1095 points,  1 beta functions with: 
                l(1) =   0

     atomic species   valence    mass     pseudopotential
        H              1.00     1.01000      H( 1.00)
        O              6.00    16.00000      O( 1.00)

     No symmetry found



   Cartesian axes

     site n.     atom                  positions (alat units)
         1           O   tau(   1) = (   0.0842103   0.4035978  -0.0263403  )
         2           H   tau(   2) = (   0.0983240   0.3686491   0.9029495  )
         3           H   tau(   3) = (   0.4085646   0.0205263   0.8801029  )

     number of k points=     1  Marzari-Vanderbilt smearing, width (Ry)=  0.0250
                       cart. coord. in units 2pi/alat
        k(    1) = (   0.0000000   0.0000000   0.0000000), wk =   2.0000000

     Dense  grid:   177509 G-vectors     FFT dimensions: (  72,  72,  72)

     Estimated max dynamical RAM per process >       6.09Mb

     Estimated total allocated dynamical RAM >     170.64Mb

     Initial potential from superposition of free atoms
     Check: negative starting charge=   -0.349007

     starting charge    7.99998, renormalised to    8.00000

     negative rho (up, down):  3.490E-01 0.000E+00
     Starting wfc are    6 randomized atomic wfcs +    2 random wfc

     total cpu time spent up to now is        0.4 secs

     per-process dynamical memory:    18.8 Mb

     Self-consistent Calculation

     iteration #  1     ecut=    30.00 Ry     beta=0.70
     Davidson diagonalization with overlap
     ethr =  1.00E-02,  avg # of iterations =  8.0

     negative rho (up, down):  9.417E-02 0.000E+00

     total cpu time spent up to now is        0.4 secs

     total energy              =     -31.56155725 Ry
     Harris-Foulkes estimate   =     -32.07782322 Ry
     estimated scf accuracy    <       0.54047849 Ry

     iteration #  2     ecut=    30.00 Ry     beta=0.70
     Davidson diagonalization with overlap
     ethr =  6.76E-03,  avg # of iterations =  3.0

     negative rho (up, down):  7.290E-02 0.000E+00

     total cpu time spent up to now is        0.5 secs

     total energy              =     -31.71253840 Ry
     Harris-Foulkes estimate   =     -32.38662110 Ry
     estimated scf accuracy    <       2.27598183 Ry

     iteration #  3     ecut=    30.00 Ry     beta=0.70
     Davidson diagonalization with overlap
     ethr =  6.76E-03,  avg # of iterations =  2.0

     negative rho (up, down):  2.637E-02 0.000E+00

     total cpu time spent up to now is        0.5 secs

     total energy              =     -31.72379351 Ry
     Harris-Foulkes estimate   =     -31.79411321 Ry
     estimated scf accuracy    <       0.44252451 Ry

     iteration #  4     ecut=    30.00 Ry     beta=0.70
     Davidson diagonalization with overlap
     ethr =  5.53E-03,  avg # of iterations =  1.0

     negative rho (up, down):  1.072E-02 0.000E+00

     total cpu time spent up to now is        0.6 secs

     total energy              =     -31.67188266 Ry
     Harris-Foulkes estimate   =     -31.95988963 Ry
     estimated scf accuracy    <       1.40905176 Ry

     iteration #  5     ecut=    30.00 Ry     beta=0.70
     Davidson diagonalization with overlap
     ethr =  5.53E-03,  avg # of iterations =  1.0

     negative rho (up, down):  7.577E-04 0.000E+00

     total cpu time spent up to now is        0.6 secs

     total energy              =     -31.87102820 Ry
     Harris-Foulkes estimate   =     -31.94873038 Ry
     estimated scf accuracy    <       1.01196966 Ry

     iteration #  6     ecut=    30.00 Ry     beta=0.70
     Davidson diagonalization with overlap
     ethr =  5.53E-03,  avg # of iterations =  1.0

     negative rho (up, down):  6.799E-04 0.000E+00

     total cpu time spent up to now is        0.7 secs

     total energy              =     -31.80726622 Ry
     Harris-Foulkes estimate   =     -31.87170317 Ry
     estimated scf accuracy    <       0.88210982 Ry

     iteration #  7     ecut=    30.00 Ry     beta=0.70
     Davidson diagonalization with overlap
     ethr =  5.53E-03,  avg # of iterations =  1.0

     negative rho (up, down):  3.108E-04 0.000E+00

     total cpu time spent up to now is        0.7 secs

     total energy              =     -31.85378365 Ry
     Harris-Foulkes estimate   =     -31.84795568 Ry
     estimated scf accuracy    <       0.62373026 Ry

     iteration #  8     ecut=    30.00 Ry     beta=0.70
     Davidson diagonalization with overlap
     ethr =  5.53E-03,  avg # of iterations =  1.0

     negative rho (up, down):  4.840E-05 0.000E+00

     total cpu time spent up to now is        0.8 secs

     total energy              =     -31.81377998 Ry
     Harris-Foulkes estimate   =     -31.85472452 Ry
     estimated scf accuracy    <       1.05954001 Ry

     iteration #  9     ecut=    30.00 Ry     beta=0.70
     Davidson diagonalization with overlap
     ethr =  5.53E-03,  avg # of iterations =  1.0

     negative rho (up, down):  3.027E-08 0.000E+00

     total cpu time spent up to now is        0.8 secs

     total energy              =     -31.83995497 Ry
     Harris-Foulkes estimate   =     -31.84279312 Ry
     estimated scf accuracy    <       0.18864382 Ry

     iteration # 10     ecut=    30.00 Ry     beta=0.70
     Davidson diagonalization with overlap
     ethr =  2.36E-03,  avg # of iterations =  1.0

     negative rho (up, down):  3.301E-07 0.000E+00

     total cpu time spent up to now is        0.9 secs

     total energy              =     -31.84096305 Ry
     Harris-Foulkes estimate   =     -31.84062177 Ry
     estimated scf accuracy    <       0.05006941 Ry

     iteration # 11     ecut=    30.00 Ry     beta=0.70
     Davidson diagonalization with overlap
     ethr =  6.26E-04,  avg # of iterations =  1.0

     negative rho (up, down):  1.506E-08 0.000E+00

     total cpu time spent up to now is        1.0 secs

     total energy              =     -31.83780723 Ry
     Harris-Foulkes estimate   =     -31.84100339 Ry
     estimated scf accuracy    <       0.07628181 Ry

     iteration # 12     ecut=    30.00 Ry     beta=0.70
     Davidson diagonalization with overlap
     ethr =  6.26E-04,  avg # of iterations =  1.0

     total cpu time spent up to now is        1.0 secs

     total energy              =     -31.83948011 Ry
     Harris-Foulkes estimate   =     -31.84024287 Ry
     estimated scf accuracy    <       0.02526862 Ry

     iteration # 13     ecut=    30.00 Ry     beta=0.70
     Davidson diagonalization with overlap
     ethr =  3.16E-04,  avg # of iterations =  1.0

     total cpu time spent up to now is        1.1 secs

     total energy              =     -31.83988474 Ry
     Harris-Foulkes estimate   =     -31.83993586 Ry
     estimated scf accuracy    <       0.00089241 Ry

     iteration # 14     ecut=    30.00 Ry     beta=0.70
     Davidson diagonalization with overlap
     ethr =  1.12E-05,  avg # of iterations = 12.0

     total cpu time spent up to now is        1.2 secs

     total energy              =     -31.83992185 Ry
     Harris-Foulkes estimate   =     -31.83994014 Ry
     estimated scf accuracy    <       0.00127924 Ry

     iteration # 15     ecut=    30.00 Ry     beta=0.70
     Davidson diagonalization with overlap
     ethr =  1.12E-05,  avg # of iterations =  1.0

     total cpu time spent up to now is        1.2 secs

     total energy              =     -31.83991939 Ry
     Harris-Foulkes estimate   =     -31.83992681 Ry
     estimated scf accuracy    <       0.00025972 Ry

     iteration # 16     ecut=    30.00 Ry     beta=0.70
     Davidson diagonalization with overlap
     ethr =  3.25E-06,  avg # of iterations =  1.0

     total cpu time spent up to now is        1.3 secs

     total energy              =     -31.83992552 Ry
     Harris-Foulkes estimate   =     -31.83992441 Ry
     estimated scf accuracy    <       0.00001343 Ry

     iteration # 17     ecut=    30.00 Ry     beta=0.70
     Davidson diagonalization with overlap
     ethr =  1.68E-07,  avg # of iterations =  1.0

     total cpu time spent up to now is        1.3 secs

     total energy              =     -31.83992468 Ry
     Harris-Foulkes estimate   =     -31.83992560 Ry
     estimated scf accuracy    <       0.00002643 Ry

     iteration # 18     ecut=    30.00 Ry     beta=0.70
     Davidson diagonalization with overlap
     ethr =  1.68E-07,  avg # of iterations =  1.0

     total cpu time spent up to now is        1.3 secs

     total energy              =     -31.83992493 Ry
     Harris-Foulkes estimate   =     -31.83992490 Ry
     estimated scf accuracy    <       0.00000134 Ry

     iteration # 19     ecut=    30.00 Ry     beta=0.70
     Davidson diagonalization with overlap
     ethr =  1.67E-08,  avg # of iterations =  1.0

     total cpu time spent up to now is        1.4 secs

     total energy              =     -31.83992509 Ry
     Harris-Foulkes estimate   =     -31.83992494 Ry
     estimated scf accuracy    <       0.00000035 Ry

     iteration # 20     ecut=    30.00 Ry     beta=0.70
     Davidson diagonalization with overlap
     ethr =  4.37E-09,  avg # of iterations =  1.0

     total cpu time spent up to now is        1.4 secs

     total energy              =     -31.83992526 Ry
     Harris-Foulkes estimate   =     -31.83992510 Ry
     estimated scf accuracy    <       0.00000005 Ry

     iteration # 21     ecut=    30.00 Ry     beta=0.70
     Davidson diagonalization with overlap
     ethr =  6.75E-10,  avg # of iterations =  1.0

     total cpu time spent up to now is        1.5 secs

     End of self-consistent calculation

          k = 0.0000 0.0000 0.0000 ( 22119 PWs)   bands (ev):

   -26.1973 -11.0958  -7.1821  -7.1810  -7.0363  -0.4596   0.4607   0.7960

     the Fermi energy is    -7.0092 ev

!    total energy              =     -31.83992528 Ry
     Harris-Foulkes estimate   =     -31.83992526 Ry
     estimated scf accuracy    <          2.5E-10 Ry

     convergence has been achieved in  21 iterations

     Forces acting on atoms (Ry/au):

     atom    1 type  2   force =    -0.10764061    0.26986368    0.54680782
     atom    2 type  1   force =     0.10835467   -0.26966922   -0.54670275
     atom    3 type  1   force =    -0.00071406   -0.00019446   -0.00010507

     Total force =     0.875647     Total SCF correction =     0.000081

     Molecular Dynamics Calculation

     Starting temperature  =  1000.00 K

     temperature is controlled by Andersen thermostat
     Collision frequency = 1.0000/timestep
     mass H                =     1.01
     mass O                =    16.00
     Time step             =   100.00 a.u.,  4.8378 femto-seconds

     Entering Dynamics:    iteration =     1
                           time      =   0.0048 pico-seconds


     Andersen thermostat:    3 collisions

ATOMIC_POSITIONS (bohr)
O        1.651666485   8.144230751  -0.364751066
H        2.674345497   5.851658815  15.390701588
H        7.978902974   0.786918483  17.703140543


     kinetic energy (Ekin) =     0.01442955 Ry
     temperature           =   759.41418837 K 
     Ekin + Etot (const)   =   -31.82549573 Ry

     Linear momentum :    0.0000000000   -0.0000000000    0.0000000000

     Writing output data file pwscf.save
     Check: negative starting charge=   -0.349007
     NEW-OLD atomic charge density approx. for the potential
     Check: negative starting charge=   -0.342892

     negative rho (up, down):  3.654E-01 0.000E+00

     total cpu time spent up to now is        1.9 secs

     per-process dynamical memory:    20.4 Mb

     Self-consistent Calculation

     iteration #  1     ecut=    30.00 Ry     beta=0.70
     Davidson diagonalization with overlap
     c_bands:  1 eigenvalues not converged
     ethr =  1.00E-06,  avg # of iterations = 20.0

     negative rho (up, down):  8.794E-02 0.000E+00

     total cpu time spent up to now is        2.1 secs

     total energy              =     -25.58732208 Ry
     Harris-Foulkes estimate   =     -32.92628448 Ry
     estimated scf accuracy    <       4.86365286 Ry

     iteration #  2     ecut=    30.00 Ry     beta=0.70
     Davidson diagonalization with overlap
     ethr =  1.00E-02,  avg # of iterations =  4.0

     negative rho (up, down):  6.411E-02 0.000E+00

     total cpu time spent up to now is        2.1 secs

     total energy              =     -32.36123492 Ry
     Harris-Foulkes estimate   =     -37.60068512 Ry
     estimated scf accuracy    <      12.94447807 Ry

     iteration #  3     ecut=    30.00 Ry     beta=0.70
     Davidson diagonalization with overlap
     ethr =  1.00E-02,  avg # of iterations =  3.0

     negative rho (up, down):  5.178E-02 0.000E+00

     total cpu time spent up to now is        2.2 secs

     total energy              =     -31.72441590 Ry
     Harris-Foulkes estimate   =     -32.73900255 Ry
     estimated scf accuracy    <       4.67408845 Ry

     iteration #  4     ecut=    30.00 Ry     beta=0.70
     Davidson diagonalization with overlap
     ethr =  1.00E-02,  avg # of iterations =  1.0

     negative rho (up, down):  3.760E-02 0.000E+00

     total cpu time spent up to now is        2.2 secs

     total energy              =     -31.35355199 Ry
     Harris-Foulkes estimate   =     -31.76537053 Ry
     estimated scf accuracy    <       2.48882076 Ry

     iteration #  5     ecut=    30.00 Ry     beta=0.70
     Davidson diagonalization with overlap
     ethr =  1.00E-02,  avg # of iterations =  1.0

     negative rho (up, down):  3.295E-02 0.000E+00

     total cpu time spent up to now is        2.3 secs

     total energy              =     -31.33669047 Ry
     Harris-Foulkes estimate   =     -31.74773085 Ry
     estimated scf accuracy    <       2.54816616 Ry

     iteration #  6     ecut=    30.00 Ry     beta=0.70
     Davidson diagonalization with overlap
     ethr =  1.00E-02,  avg # of iterations =  1.0

     negative rho (up, down):  2.425E-02 0.000E+00

     total cpu time spent up to now is        2.3 secs

     total energy              =     -31.54863792 Ry
     Harris-Foulkes estimate   =     -31.68789560 Ry
     estimated scf accuracy    <       2.34768395 Ry

     iteration #  7     ecut=    30.00 Ry     beta=0.70
     Davidson diagonalization with overlap
     ethr =  1.00E-02,  avg # of iterations =  1.0

     negative rho (up, down):  1.094E-02 0.000E+00

     total cpu time spent up to now is        2.4 secs

     total energy              =     -31.52349876 Ry
     Harris-Foulkes estimate   =     -31.56351051 Ry
     estimated scf accuracy    <       1.23354513 Ry

     iteration #  8     ecut=    30.00 Ry     beta=0.70
     Davidson diagonalization with overlap
     ethr =  1.00E-02,  avg # of iterations =  1.0

     negative rho (up, down):  5.026E-03 0.000E+00

     total cpu time spent up to now is        2.5 secs

     total energy              =     -31.66102454 Ry
     Harris-Foulkes estimate   =     -31.56589395 Ry
     estimated scf accuracy    <       0.62696334 Ry

     iteration #  9     ecut=    30.00 Ry     beta=0.70
     Davidson diagonalization with overlap
     ethr =  7.84E-03,  avg # of iterations =  1.0

     negative rho (up, down):  4.909E-03 0.000E+00

     total cpu time spent up to now is        2.5 secs

     total energy              =     -31.80176685 Ry
     Harris-Foulkes estimate   =     -31.80496844 Ry
     estimated scf accuracy    <       3.17279550 Ry

     iteration # 10     ecut=    30.00 Ry     beta=0.70
     Davidson diagonalization with overlap
     ethr =  7.84E-03,  avg # of iterations =  1.0

     negative rho (up, down):  7.894E-04 0.000E+00

     total cpu time spent up to now is        2.6 secs

     total energy              =     -31.83988727 Ry
     Harris-Foulkes estimate   =     -31.80192299 Ry
     estimated scf accuracy    <       3.16567370 Ry

     iteration # 11     ecut=    30.00 Ry     beta=0.70
     Davidson diagonalization with overlap
     ethr =  7.84E-03,  avg # of iterations =  1.0

     negative rho (up, down):  6.656E-04 0.000E+00

     total cpu time spent up to now is        2.6 secs

     total energy              =     -31.82401155 Ry
     Harris-Foulkes estimate   =     -31.84385690 Ry
     estimated scf accuracy    <       3.52771444 Ry

     iteration # 12     ecut=    30.00 Ry     beta=0.70
     Davidson diagonalization with overlap
     ethr =  7.84E-03,  avg # of iterations =  1.0

     negative rho (up, down):  2.358E-03 0.000E+00

     total cpu time spent up to now is        2.7 secs

     total energy              =     -31.42003410 Ry
     Harris-Foulkes estimate   =     -31.82423642 Ry
     estimated scf accuracy    <       3.46782630 Ry

     iteration # 13     ecut=    30.00 Ry     beta=0.70
     Davidson diagonalization with overlap
     ethr =  7.84E-03,  avg # of iterations =  1.0

     negative rho (up, down):  1.461E-03 0.000E+00

     total cpu time spent up to now is        2.7 secs

     total energy              =     -31.60978648 Ry
     Harris-Foulkes estimate   =     -31.62924611 Ry
     estimated scf accuracy    <       0.81309000 Ry

     iteration # 14     ecut=    30.00 Ry     beta=0.70
     Davidson diagonalization with overlap
     ethr =  7.84E-03,  avg # of iterations =  1.0

     negative rho (up, down):  8.938E-05 0.000E+00

     total cpu time spent up to now is        2.8 secs

     total energy              =     -31.54432150 Ry
     Harris-Foulkes estimate   =     -31.61196499 Ry
     estimated scf accuracy    <       0.91346899 Ry

     iteration # 15     ecut=    30.00 Ry     beta=0.70
     Davidson diagonalization with overlap
     ethr =  7.84E-03,  avg # of iterations =  1.0

     negative rho (up, down):  1.213E-06 0.000E+00

     total cpu time spent up to now is        2.8 secs

     total energy              =     -31.55475980 Ry
     Harris-Foulkes estimate   =     -31.55798516 Ry
     estimated scf accuracy    <       0.05433392 Ry

     iteration # 16     ecut=    30.00 Ry     beta=0.70
     Davidson diagonalization with overlap
     ethr =  6.79E-04,  avg # of iterations =  1.0

     negative rho (up, down):  7.069E-05 0.000E+00

     total cpu time spent up to now is        2.9 secs

     total energy              =     -31.55453401 Ry
     Harris-Foulkes estimate   =     -31.57106548 Ry
     estimated scf accuracy    <       0.81103657 Ry

     iteration # 17     ecut=    30.00 Ry     beta=0.70
     Davidson diagonalization with overlap
     ethr =  6.79E-04,  avg # of iterations =  1.0

     negative rho (up, down):  1.040E-05 0.000E+00

     total cpu time spent up to now is        2.9 secs

     total energy              =     -31.54945645 Ry
     Harris-Foulkes estimate   =     -31.55908735 Ry
     estimated scf accuracy    <       0.11966068 Ry

     iteration # 18     ecut=    30.00 Ry     beta=0.70
     Davidson diagonalization with overlap
     ethr =  6.79E-04,  avg # of iterations =  1.0

     negative rho (up, down):  3.498E-08 0.000E+00

     total cpu time spent up to now is        2.9 secs

     total energy              =     -31.55860374 Ry
     Harris-Foulkes estimate   =     -31.56021212 Ry
     estimated scf accuracy    <       0.22365215 Ry

     iteration # 19     ecut=    30.00 Ry     beta=0.70
     Davidson diagonalization with overlap
     ethr =  6.79E-04,  avg # of iterations =  1.0

     negative rho (up, down):  2.048E-08 0.000E+00

     total cpu time spent up to now is        3.0 secs

     total energy              =     -31.55782106 Ry
     Harris-Foulkes estimate   =     -31.55879010 Ry
     estimated scf accuracy    <       0.14344284 Ry

     iteration # 20     ecut=    30.00 Ry     beta=0.70
     Davidson diagonalization with overlap
     ethr =  6.79E-04,  avg # of iterations =  1.0

     negative rho (up, down):  9.415E-08 0.000E+00

     total cpu time spent up to now is        3.0 secs

     total energy              =     -31.55753608 Ry
     Harris-Foulkes estimate   =     -31.55793182 Ry
     estimated scf accuracy    <       0.08745404 Ry

     iteration # 21     ecut=    30.00 Ry     beta=0.70
     Davidson diagonalization with overlap
     ethr =  6.79E-04,  avg # of iterations =  1.0

     total cpu time spent up to now is        3.1 secs

     total energy              =     -31.55636846 Ry
     Harris-Foulkes estimate   =     -31.55756861 Ry
     estimated scf accuracy    <       0.06082918 Ry

     iteration # 22     ecut=    30.00 Ry     beta=0.70
     Davidson diagonalization with overlap
     ethr =  6.79E-04,  avg # of iterations =  1.0

     total cpu time spent up to now is        3.1 secs

     total energy              =     -31.55671457 Ry
     Harris-Foulkes estimate   =     -31.55680441 Ry
     estimated scf accuracy    <       0.00391529 Ry

     iteration # 23     ecut=    30.00 Ry     beta=0.70
     Davidson diagonalization with overlap
     ethr =  4.89E-05,  avg # of iterations =  4.0

     total cpu time spent up to now is        3.2 secs

     total energy              =     -31.55675275 Ry
     Harris-Foulkes estimate   =     -31.55675370 Ry
     estimated scf accuracy    <       0.00005336 Ry

     iteration # 24     ecut=    30.00 Ry     beta=0.70
     Davidson diagonalization with overlap
     ethr =  6.67E-07,  avg # of iterations = 10.0

     total cpu time spent up to now is        3.3 secs

     total energy              =     -31.55675266 Ry
     Harris-Foulkes estimate   =     -31.55675294 Ry
     estimated scf accuracy    <       0.00001421 Ry

     iteration # 25     ecut=    30.00 Ry     beta=0.70
     Davidson diagonalization with overlap
     ethr =  1.78E-07,  avg # of iterations =  1.0

     total cpu time spent up to now is        3.3 secs

     total energy              =     -31.55675283 Ry
     Harris-Foulkes estimate   =     -31.55675276 Ry
     estimated scf accuracy    <       0.00000144 Ry

     iteration # 26     ecut=    30.00 Ry     beta=0.70
     Davidson diagonalization with overlap
     ethr =  1.80E-08,  avg # of iterations =  1.0

     total cpu time spent up to now is        3.3 secs

     End of self-consistent calculation

          k = 0.0000 0.0000 0.0000 ( 22119 PWs)   bands (ev):

   -23.6555  -7.7063  -6.9913  -6.9894  -6.8634  -6.4605  -0.1462   0.6773

     the Fermi energy is    -6.8290 ev

!    total energy              =     -31.55675280 Ry
     Harris-Foulkes estimate   =     -31.55675286 Ry
     estimated scf accuracy    <          2.1E-09 Ry

     convergence has been achieved in  26 iterations

     Forces acting on atoms (Ry/au):

     atom    1 type  2   force =     0.01223930   -0.02719697   -0.05243946
     atom    2 type  1   force =    -0.01185835    0.02715406    0.05240387
     atom    3 type  1   force =    -0.00038095    0.00004290    0.00003559

     Total force =     0.085227     Total SCF correction =     0.000120

     Entering Dynamics:    iteration =     2
                           time      =   0.0097 pico-seconds


     Andersen thermostat:    3 collisions

ATOMIC_POSITIONS (bohr)
O        1.697297055   8.088773824  -0.389598467
H        2.369080354   6.613155175  15.839685638
H        7.561307599   0.903947688  17.647778688


     kinetic energy (Ekin) =     0.03347204 Ry
     temperature           =  1761.60345669 K 
     Ekin + Etot (const)   =   -31.52328076 Ry
     Message from routine dynamics:
     Total linear momentum <> 0

     Linear momentum :    0.2031496644   -0.0890093811    0.0650102250

     Writing output data file pwscf.save

     first order wave-functions extrapolation
     Check: negative starting charge=   -0.342892
     first order charge density extrapolation
     Check: negative starting charge=   -0.342067

     negative rho (up, down):  5.171E-01 0.000E+00

     total cpu time spent up to now is        3.8 secs

     per-process dynamical memory:    20.4 Mb

     Self-consistent Calculation

     iteration #  1     ecut=    30.00 Ry     beta=0.70
     Davidson diagonalization with overlap
     ethr =  1.00E-06,  avg # of iterations = 18.0

     negative rho (up, down):  1.249E-01 0.000E+00

     total cpu time spent up to now is        3.9 secs

     total energy              =      21.24961183 Ry
     Harris-Foulkes estimate   =    -123.51118321 Ry
     estimated scf accuracy    <      13.97423833 Ry

     iteration #  2     ecut=    30.00 Ry     beta=0.70
     Davidson diagonalization with overlap
     ethr =  1.00E-02,  avg # of iterations =  6.0

     negative rho (up, down):  7.789E-02 0.000E+00

     total cpu time spent up to now is        4.0 secs

     total energy              =     -33.12123594 Ry
     Harris-Foulkes estimate   =     -39.34695009 Ry
     estimated scf accuracy    <      12.96736147 Ry

     iteration #  3     ecut=    30.00 Ry     beta=0.70
     Davidson diagonalization with overlap
     ethr =  1.00E-02,  avg # of iterations =  2.0

     negative rho (up, down):  7.002E-02 0.000E+00

     total cpu time spent up to now is        4.1 secs

     total energy              =     -32.61355691 Ry
     Harris-Foulkes estimate   =     -33.64052860 Ry
     estimated scf accuracy    <       5.99317250 Ry

     iteration #  4     ecut=    30.00 Ry     beta=0.70
     Davidson diagonalization with overlap
     ethr =  1.00E-02,  avg # of iterations =  1.0

     negative rho (up, down):  4.298E-02 0.000E+00

     total cpu time spent up to now is        4.1 secs

     total energy              =     -31.82669143 Ry
     Harris-Foulkes estimate   =     -33.19645300 Ry
     estimated scf accuracy    <       3.92526941 Ry

     iteration #  5     ecut=    30.00 Ry     beta=0.70
     Davidson diagonalization with overlap
     ethr =  1.00E-02,  avg # of iterations =  1.0

     negative rho (up, down):  2.158E-02 0.000E+00

     total cpu time spent up to now is        4.1 secs

     total energy              =     -31.37920946 Ry
     Harris-Foulkes estimate   =     -31.86473144 Ry
     estimated scf accuracy    <       1.29208436 Ry

     iteration #  6     ecut=    30.00 Ry     beta=0.70
     Davidson diagonalization with overlap
     ethr =  1.00E-02,  avg # of iterations =  3.0

     negative rho (up, down):  2.716E-02 0.000E+00

     total cpu time spent up to now is        4.2 secs

     total energy              =     -31.59128680 Ry
     Harris-Foulkes estimate   =     -31.70582435 Ry
     estimated scf accuracy    <       1.12645611 Ry

     iteration #  7     ecut=    30.00 Ry     beta=0.70
     Davidson diagonalization with overlap
     ethr =  1.00E-02,  avg # of iterations =  1.0

     negative rho (up, down):  2.541E-02 0.000E+00

     total cpu time spent up to now is        4.3 secs

     total energy              =     -31.65709596 Ry
     Harris-Foulkes estimate   =     -31.67579704 Ry
     estimated scf accuracy    <       0.72664372 Ry

     iteration #  8     ecut=    30.00 Ry     beta=0.70
     Davidson diagonalization with overlap
     ethr =  9.08E-03,  avg # of iterations =  1.0

     negative rho (up, down):  2.637E-02 0.000E+00

     total cpu time spent up to now is        4.3 secs

     total energy              =     -31.67908848 Ry
     Harris-Foulkes estimate   =     -31.67935455 Ry
     estimated scf accuracy    <       0.77039207 Ry

     iteration #  9     ecut=    30.00 Ry     beta=0.70
     Davidson diagonalization with overlap
     ethr =  9.08E-03,  avg # of iterations =  1.0

     negative rho (up, down):  1.948E-02 0.000E+00

     total cpu time spent up to now is        4.4 secs

     total energy              =     -31.60004615 Ry
     Harris-Foulkes estimate   =     -31.71768116 Ry
     estimated scf accuracy    <       1.29347713 Ry

     iteration # 10     ecut=    30.00 Ry     beta=0.70
     Davidson diagonalization with overlap
     ethr =  9.08E-03,  avg # of iterations =  1.0

     negative rho (up, down):  4.695E-04 0.000E+00

     total cpu time spent up to now is        4.4 secs

     total energy              =     -31.78332038 Ry
     Harris-Foulkes estimate   =     -31.68529575 Ry
     estimated scf accuracy    <       1.49106086 Ry

     iteration # 11     ecut=    30.00 Ry     beta=0.70
     Davidson diagonalization with overlap
     ethr =  9.08E-03,  avg # of iterations =  1.0

     negative rho (up, down):  5.154E-04 0.000E+00

     total cpu time spent up to now is        4.5 secs

     total energy              =     -31.93829432 Ry
     Harris-Foulkes estimate   =     -31.86629552 Ry
     estimated scf accuracy    <       2.33429528 Ry

     iteration # 12     ecut=    30.00 Ry     beta=0.70
     Davidson diagonalization with overlap
     ethr =  9.08E-03,  avg # of iterations =  1.0

     negative rho (up, down):  9.294E-03 0.000E+00

     total cpu time spent up to now is        4.5 secs

     total energy              =     -32.28316504 Ry
     Harris-Foulkes estimate   =     -31.94282764 Ry
     estimated scf accuracy    <       2.16578482 Ry

     iteration # 13     ecut=    30.00 Ry     beta=0.70
     Davidson diagonalization with overlap
     ethr =  9.08E-03,  avg # of iterations =  1.0

     negative rho (up, down):  1.038E-02 0.000E+00

     total cpu time spent up to now is        4.6 secs

     total energy              =     -32.27572238 Ry
     Harris-Foulkes estimate   =     -32.34288768 Ry
     estimated scf accuracy    <       2.21806853 Ry

     iteration # 14     ecut=    30.00 Ry     beta=0.70
     Davidson diagonalization with overlap
     ethr =  9.08E-03,  avg # of iterations =  1.0

     negative rho (up, down):  1.364E-02 0.000E+00

     total cpu time spent up to now is        4.6 secs

     total energy              =     -32.09831258 Ry
     Harris-Foulkes estimate   =     -32.31042038 Ry
     estimated scf accuracy    <       2.83920940 Ry

     iteration # 15     ecut=    30.00 Ry     beta=0.70
     Davidson diagonalization with overlap
     ethr =  9.08E-03,  avg # of iterations =  1.0

     negative rho (up, down):  1.315E-02 0.000E+00

     total cpu time spent up to now is        4.7 secs

     total energy              =     -32.07716501 Ry
     Harris-Foulkes estimate   =     -32.11310767 Ry
     estimated scf accuracy    <       2.03254086 Ry

     iteration # 16     ecut=    30.00 Ry     beta=0.70
     Davidson diagonalization with overlap
     ethr =  9.08E-03,  avg # of iterations =  1.0

     negative rho (up, down):  1.319E-02 0.000E+00

     total cpu time spent up to now is        4.7 secs

     total energy              =     -32.05572426 Ry
     Harris-Foulkes estimate   =     -32.07827892 Ry
     estimated scf accuracy    <       2.05312516 Ry

     iteration # 17     ecut=    30.00 Ry     beta=0.70
     Davidson diagonalization with overlap
     ethr =  9.08E-03,  avg # of iterations =  1.0

     negative rho (up, down):  6.584E-03 0.000E+00

     total cpu time spent up to now is        4.8 secs

     total energy              =     -31.99753721 Ry
     Harris-Foulkes estimate   =     -32.05591714 Ry
     estimated scf accuracy    <       2.00120318 Ry

     iteration # 18     ecut=    30.00 Ry     beta=0.70
     Davidson diagonalization with overlap
     ethr =  9.08E-03,  avg # of iterations =  1.0

     negative rho (up, down):  1.803E-01 0.000E+00

     total cpu time spent up to now is        4.8 secs

     total energy              =     -30.77071609 Ry
     Harris-Foulkes estimate   =     -31.99832852 Ry
     estimated scf accuracy    <       1.94040549 Ry

     iteration # 19     ecut=    30.00 Ry     beta=0.70
     Davidson diagonalization with overlap
     ethr =  9.08E-03,  avg # of iterations =  3.0

     negative rho (up, down):  4.921E-05 0.000E+00

     total cpu time spent up to now is        4.9 secs

     total energy              =     -31.88676101 Ry
     Harris-Foulkes estimate   =     -33.03480857 Ry
     estimated scf accuracy    <       3.47349386 Ry

     iteration # 20     ecut=    30.00 Ry     beta=0.70
     Davidson diagonalization with overlap
     ethr =  9.08E-03,  avg # of iterations =  3.0

     negative rho (up, down):  2.317E-06 0.000E+00

     total cpu time spent up to now is        4.9 secs

     total energy              =     -31.54436012 Ry
     Harris-Foulkes estimate   =     -31.92717393 Ry
     estimated scf accuracy    <       1.36455529 Ry

     iteration # 21     ecut=    30.00 Ry     beta=0.70
     Davidson diagonalization with overlap
     ethr =  9.08E-03,  avg # of iterations =  2.0

     total cpu time spent up to now is        5.0 secs

     total energy              =     -31.58686386 Ry
     Harris-Foulkes estimate   =     -31.68713685 Ry
     estimated scf accuracy    <       1.32996590 Ry

     iteration # 22     ecut=    30.00 Ry     beta=0.70
     Davidson diagonalization with overlap
     ethr =  9.08E-03,  avg # of iterations =  1.0

     total cpu time spent up to now is        5.0 secs

     total energy              =     -31.58144977 Ry
     Harris-Foulkes estimate   =     -31.63621651 Ry
     estimated scf accuracy    <       0.50602424 Ry

     iteration # 23     ecut=    30.00 Ry     beta=0.70
     Davidson diagonalization with overlap
     ethr =  6.33E-03,  avg # of iterations =  1.0

     negative rho (up, down):  1.730E-07 0.000E+00

     total cpu time spent up to now is        5.1 secs

     total energy              =     -31.71255020 Ry
     Harris-Foulkes estimate   =     -31.67489930 Ry
     estimated scf accuracy    <       1.43299983 Ry

     iteration # 24     ecut=    30.00 Ry     beta=0.70
     Davidson diagonalization with overlap
     ethr =  6.33E-03,  avg # of iterations =  1.0

     total cpu time spent up to now is        5.1 secs

     total energy              =     -31.67093011 Ry
     Harris-Foulkes estimate   =     -31.71073811 Ry
     estimated scf accuracy    <       1.28853673 Ry

     iteration # 25     ecut=    30.00 Ry     beta=0.70
     Davidson diagonalization with overlap
     ethr =  6.33E-03,  avg # of iterations =  1.0

     total cpu time spent up to now is        5.2 secs

     total energy              =     -31.58863524 Ry
     Harris-Foulkes estimate   =     -31.66981443 Ry
     estimated scf accuracy    <       1.51323565 Ry

     iteration # 26     ecut=    30.00 Ry     beta=0.70
     Davidson diagonalization with overlap
     ethr =  6.33E-03,  avg # of iterations =  1.0

     total cpu time spent up to now is        5.2 secs

     total energy              =     -31.61371997 Ry
     Harris-Foulkes estimate   =     -31.63090431 Ry
     estimated scf accuracy    <       0.28240653 Ry

     iteration # 27     ecut=    30.00 Ry     beta=0.70
     Davidson diagonalization with overlap
     ethr =  3.53E-03,  avg # of iterations =  1.0

     total cpu time spent up to now is        5.2 secs

     total energy              =     -31.62829621 Ry
     Harris-Foulkes estimate   =     -31.63233425 Ry
     estimated scf accuracy    <       0.45983550 Ry

     iteration # 28     ecut=    30.00 Ry     beta=0.70
     Davidson diagonalization with overlap
     ethr =  3.53E-03,  avg # of iterations =  1.0

     total cpu time spent up to now is        5.3 secs

     total energy              =     -31.62331899 Ry
     Harris-Foulkes estimate   =     -31.62897068 Ry
     estimated scf accuracy    <       0.20000082 Ry

     iteration # 29     ecut=    30.00 Ry     beta=0.70
     Davidson diagonalization with overlap
     ethr =  2.50E-03,  avg # of iterations =  1.0

     total cpu time spent up to now is        5.3 secs

     total energy              =     -31.62677596 Ry
     Harris-Foulkes estimate   =     -31.62649745 Ry
     estimated scf accuracy    <       0.00312790 Ry

     iteration # 30     ecut=    30.00 Ry     beta=0.70
     Davidson diagonalization with overlap
     ethr =  3.91E-05,  avg # of iterations =  9.0

     total cpu time spent up to now is        5.4 secs

     total energy              =     -31.62649185 Ry
     Harris-Foulkes estimate   =     -31.62719611 Ry
     estimated scf accuracy    <       0.05384016 Ry

     iteration # 31     ecut=    30.00 Ry     beta=0.70
     Davidson diagonalization with overlap
     ethr =  3.91E-05,  avg # of iterations =  1.0

     total cpu time spent up to now is        5.5 secs

     total energy              =     -31.62625994 Ry
     Harris-Foulkes estimate   =     -31.62665295 Ry
     estimated scf accuracy    <       0.01503707 Ry

     iteration # 32     ecut=    30.00 Ry     beta=0.70
     Davidson diagonalization with overlap
     ethr =  3.91E-05,  avg # of iterations =  1.0

     total cpu time spent up to now is        5.5 secs

     total energy              =     -31.62645021 Ry
     Harris-Foulkes estimate   =     -31.62645049 Ry
     estimated scf accuracy    <       0.00000122 Ry

     iteration # 33     ecut=    30.00 Ry     beta=0.70
     Davidson diagonalization with overlap
     ethr =  1.53E-08,  avg # of iterations =  8.0

     total cpu time spent up to now is        5.6 secs

     total energy              =     -31.62642910 Ry
     Harris-Foulkes estimate   =     -31.62646121 Ry
     estimated scf accuracy    <       0.00080207 Ry

     iteration # 34     ecut=    30.00 Ry     beta=0.70
     Davidson diagonalization with overlap
     ethr =  1.53E-08,  avg # of iterations =  2.0

     total cpu time spent up to now is        5.6 secs

     total energy              =     -31.62644774 Ry
     Harris-Foulkes estimate   =     -31.62645623 Ry
     estimated scf accuracy    <       0.00031926 Ry

     iteration # 35     ecut=    30.00 Ry     beta=0.70
     Davidson diagonalization with overlap
     ethr =  1.53E-08,  avg # of iterations =  1.0

     total cpu time spent up to now is        5.6 secs

     End of self-consistent calculation

          k = 0.0000 0.0000 0.0000 ( 22119 PWs)   bands (ev):

   -23.6160  -8.1451  -6.9386  -6.9362  -6.8000  -5.7557  -0.1219   0.7206

     the Fermi energy is    -6.7677 ev

!    total energy              =     -31.62645180 Ry
     Harris-Foulkes estimate   =     -31.62645178 Ry
     estimated scf accuracy    <          7.3E-09 Ry

     convergence has been achieved in  35 iterations

     Forces acting on atoms (Ry/au):

     atom    1 type  2   force =     0.01758539   -0.03575304   -0.09310693
     atom    2 type  1   force =    -0.01704439    0.03595405    0.09286458
     atom    3 type  1   force =    -0.00054100   -0.00020101    0.00024235

     Total force =     0.143052     Total SCF correction =     0.000029

     Entering Dynamics:    iteration =     3
                           time      =   0.0145 pico-seconds


     Andersen thermostat:    3 collisions

ATOMIC_POSITIONS (bohr)
O        1.710077036   8.080560764  -0.496623123
H        2.104500676   6.989462805  16.958585387
H        7.623432134   0.657747944  18.224319029


     kinetic energy (Ekin) =     0.04293577 Ry
     temperature           =  2259.67107525 K 
     Ekin + Etot (const)   =   -31.58351603 Ry
     Message from routine dynamics:
     Total linear momentum <> 0

     Linear momentum :    0.0214271763    0.0869294664   -0.1401879509

     Writing output data file pwscf.save

     second order wave-functions extrapolation
     Check: negative starting charge=   -0.342067
     second order charge density extrapolation
     Check: negative starting charge=   -0.344060

     negative rho (up, down):  2.560E-01 0.000E+00

     total cpu time spent up to now is        6.1 secs

     per-process dynamical memory:    20.4 Mb

     Self-consistent Calculation

     iteration #  1     ecut=    30.00 Ry     beta=0.70
     Davidson diagonalization with overlap
     ethr =  1.00E-06,  avg # of iterations = 18.0

     negative rho (up, down):  5.747E-02 0.000E+00

     total cpu time spent up to now is        6.3 secs

     total energy              =     -29.64226466 Ry
     Harris-Foulkes estimate   =     -32.11422448 Ry
     estimated scf accuracy    <       2.18736880 Ry

     iteration #  2     ecut=    30.00 Ry     beta=0.70
     Davidson diagonalization with overlap
     ethr =  1.00E-02,  avg # of iterations =  3.0

     negative rho (up, down):  4.337E-02 0.000E+00

     total cpu time spent up to now is        6.3 secs

     total energy              =     -32.34727068 Ry
     Harris-Foulkes estimate   =     -35.28745012 Ry
     estimated scf accuracy    <       7.83964819 Ry

     iteration #  3     ecut=    30.00 Ry     beta=0.70
     Davidson diagonalization with overlap
     ethr =  1.00E-02,  avg # of iterations =  2.0

     negative rho (up, down):  3.447E-02 0.000E+00

     total cpu time spent up to now is        6.4 secs

     total energy              =     -32.09894786 Ry
     Harris-Foulkes estimate   =     -32.64595174 Ry
     estimated scf accuracy    <       2.52725503 Ry

     iteration #  4     ecut=    30.00 Ry     beta=0.70
     Davidson diagonalization with overlap
     ethr =  1.00E-02,  avg # of iterations =  3.0

     negative rho (up, down):  2.714E-02 0.000E+00

     total cpu time spent up to now is        6.5 secs

     total energy              =     -31.80805296 Ry
     Harris-Foulkes estimate   =     -32.11194218 Ry
     estimated scf accuracy    <       1.57550792 Ry

     iteration #  5     ecut=    30.00 Ry     beta=0.70
     Davidson diagonalization with overlap
     ethr =  1.00E-02,  avg # of iterations =  1.0

     negative rho (up, down):  1.046E-02 0.000E+00

     total cpu time spent up to now is        6.5 secs

     total energy              =     -31.58742880 Ry
     Harris-Foulkes estimate   =     -31.80818653 Ry
     estimated scf accuracy    <       0.62740965 Ry

     iteration #  6     ecut=    30.00 Ry     beta=0.70
     Davidson diagonalization with overlap
     ethr =  7.84E-03,  avg # of iterations =  2.0

     negative rho (up, down):  1.077E-02 0.000E+00

     total cpu time spent up to now is        6.5 secs

     total energy              =     -32.09400722 Ry
     Harris-Foulkes estimate   =     -32.23384367 Ry
     estimated scf accuracy    <       1.86001440 Ry

     iteration #  7     ecut=    30.00 Ry     beta=0.70
     Davidson diagonalization with overlap
     ethr =  7.84E-03,  avg # of iterations =  1.0

     negative rho (up, down):  1.101E-02 0.000E+00

     total cpu time spent up to now is        6.6 secs

     total energy              =     -32.05805875 Ry
     Harris-Foulkes estimate   =     -32.09537749 Ry
     estimated scf accuracy    <       1.63804209 Ry

     iteration #  8     ecut=    30.00 Ry     beta=0.70
     Davidson diagonalization with overlap
     ethr =  7.84E-03,  avg # of iterations =  1.0

     negative rho (up, down):  1.085E-02 0.000E+00

     total cpu time spent up to now is        6.6 secs

     total energy              =     -32.08593489 Ry
     Harris-Foulkes estimate   =     -32.05825743 Ry
     estimated scf accuracy    <       1.57026130 Ry

     iteration #  9     ecut=    30.00 Ry     beta=0.70
     Davidson diagonalization with overlap
     ethr =  7.84E-03,  avg # of iterations =  1.0

     negative rho (up, down):  1.214E-02 0.000E+00

     total cpu time spent up to now is        6.7 secs

     total energy              =     -32.71673712 Ry
     Harris-Foulkes estimate   =     -32.08598529 Ry
     estimated scf accuracy    <       1.61693649 Ry

     iteration # 10     ecut=    30.00 Ry     beta=0.70
     Davidson diagonalization with overlap
     ethr =  7.84E-03,  avg # of iterations =  1.0

     negative rho (up, down):  2.633E-03 0.000E+00

     total cpu time spent up to now is        6.7 secs

     total energy              =     -32.65859179 Ry
     Harris-Foulkes estimate   =     -32.74310598 Ry
     estimated scf accuracy    <       2.89082783 Ry

     iteration # 11     ecut=    30.00 Ry     beta=0.70
     Davidson diagonalization with overlap
     ethr =  7.84E-03,  avg # of iterations =  1.0

     negative rho (up, down):  2.816E-01 0.000E+00

     total cpu time spent up to now is        6.8 secs

     total energy              =     -30.61427932 Ry
     Harris-Foulkes estimate   =     -32.66204087 Ry
     estimated scf accuracy    <       2.82137831 Ry

     iteration # 12     ecut=    30.00 Ry     beta=0.70
     Davidson diagonalization with overlap
     ethr =  7.84E-03,  avg # of iterations =  4.0

     negative rho (up, down):  5.587E-01 0.000E+00

     total cpu time spent up to now is        6.9 secs

     total energy              =     -39.64614825 Ry
     Harris-Foulkes estimate   =     -36.28250632 Ry
     estimated scf accuracy    <       7.42037633 Ry

     iteration # 13     ecut=    30.00 Ry     beta=0.70
     Davidson diagonalization with overlap
     ethr =  7.84E-03,  avg # of iterations =  4.0

     negative rho (up, down):  2.425E-01 0.000E+00

     total cpu time spent up to now is        6.9 secs

     total energy              =     -34.18116856 Ry
     Harris-Foulkes estimate   =     -40.48272476 Ry
     estimated scf accuracy    <      10.91686727 Ry

     iteration # 14     ecut=    30.00 Ry     beta=0.70
     Davidson diagonalization with overlap
     ethr =  7.84E-03,  avg # of iterations =  2.0

     negative rho (up, down):  1.530E-02 0.000E+00

     total cpu time spent up to now is        7.0 secs

     total energy              =     -33.06334440 Ry
     Harris-Foulkes estimate   =     -36.47155078 Ry
     estimated scf accuracy    <       7.50358753 Ry

     iteration # 15     ecut=    30.00 Ry     beta=0.70
     Davidson diagonalization with overlap
     ethr =  7.84E-03,  avg # of iterations =  2.0

     negative rho (up, down):  8.413E-04 0.000E+00

     total cpu time spent up to now is        7.0 secs

     total energy              =     -32.02425018 Ry
     Harris-Foulkes estimate   =     -33.13115053 Ry
     estimated scf accuracy    <       2.96835948 Ry

     iteration # 16     ecut=    30.00 Ry     beta=0.70
     Davidson diagonalization with overlap
     ethr =  7.84E-03,  avg # of iterations =  1.0

     negative rho (up, down):  1.636E-04 0.000E+00

     total cpu time spent up to now is        7.1 secs

     total energy              =     -31.44904024 Ry
     Harris-Foulkes estimate   =     -32.05141016 Ry
     estimated scf accuracy    <       1.26321230 Ry

     iteration # 17     ecut=    30.00 Ry     beta=0.70
     Davidson diagonalization with overlap
     ethr =  7.84E-03,  avg # of iterations =  4.0

     negative rho (up, down):  1.715E-06 0.000E+00

     total cpu time spent up to now is        7.2 secs

     total energy              =     -32.11029439 Ry
     Harris-Foulkes estimate   =     -32.34847174 Ry
     estimated scf accuracy    <       2.13356057 Ry

     iteration # 18     ecut=    30.00 Ry     beta=0.70
     Davidson diagonalization with overlap
     ethr =  7.84E-03,  avg # of iterations =  1.0

     negative rho (up, down):  6.768E-06 0.000E+00

     total cpu time spent up to now is        7.2 secs

     total energy              =     -31.80786820 Ry
     Harris-Foulkes estimate   =     -32.11455656 Ry
     estimated scf accuracy    <       1.68055795 Ry

     iteration # 19     ecut=    30.00 Ry     beta=0.70
     Davidson diagonalization with overlap
     ethr =  7.84E-03,  avg # of iterations =  1.0

     negative rho (up, down):  1.571E-05 0.000E+00

     total cpu time spent up to now is        7.3 secs

     total energy              =     -31.82028000 Ry
     Harris-Foulkes estimate   =     -31.82369151 Ry
     estimated scf accuracy    <       0.04121507 Ry

     iteration # 20     ecut=    30.00 Ry     beta=0.70
     Davidson diagonalization with overlap
     ethr =  5.15E-04,  avg # of iterations =  4.0

     negative rho (up, down):  1.708E-05 0.000E+00

     total cpu time spent up to now is        7.3 secs

     total energy              =     -31.80619149 Ry
     Harris-Foulkes estimate   =     -31.82591438 Ry
     estimated scf accuracy    <       0.17589397 Ry

     iteration # 21     ecut=    30.00 Ry     beta=0.70
     Davidson diagonalization with overlap
     ethr =  5.15E-04,  avg # of iterations =  1.0

     negative rho (up, down):  2.638E-05 0.000E+00

     total cpu time spent up to now is        7.4 secs

     total energy              =     -31.75409174 Ry
     Harris-Foulkes estimate   =     -31.84858461 Ry
     estimated scf accuracy    <       1.44786152 Ry

     iteration # 22     ecut=    30.00 Ry     beta=0.70
     Davidson diagonalization with overlap
     ethr =  5.15E-04,  avg # of iterations =  1.0

     negative rho (up, down):  2.078E-06 0.000E+00

     total cpu time spent up to now is        7.4 secs

     total energy              =     -31.61594182 Ry
     Harris-Foulkes estimate   =     -31.84865865 Ry
     estimated scf accuracy    <       0.88309652 Ry

     iteration # 23     ecut=    30.00 Ry     beta=0.70
     Davidson diagonalization with overlap
     ethr =  5.15E-04,  avg # of iterations =  4.0

     negative rho (up, down):  2.410E-07 0.000E+00

     total cpu time spent up to now is        7.5 secs

     total energy              =     -31.83134332 Ry
     Harris-Foulkes estimate   =     -32.08103808 Ry
     estimated scf accuracy    <       1.59804797 Ry

     iteration # 24     ecut=    30.00 Ry     beta=0.70
     Davidson diagonalization with overlap
     ethr =  5.15E-04,  avg # of iterations =  2.0

     negative rho (up, down):  1.870E-07 0.000E+00

     total cpu time spent up to now is        7.5 secs

     total energy              =     -31.80480450 Ry
     Harris-Foulkes estimate   =     -31.83370917 Ry
     estimated scf accuracy    <       0.79020062 Ry

     iteration # 25     ecut=    30.00 Ry     beta=0.70
     Davidson diagonalization with overlap
     ethr =  5.15E-04,  avg # of iterations =  1.0

     negative rho (up, down):  8.182E-07 0.000E+00

     total cpu time spent up to now is        7.6 secs

     total energy              =     -31.82015623 Ry
     Harris-Foulkes estimate   =     -31.82475680 Ry
     estimated scf accuracy    <       0.11532957 Ry

     iteration # 26     ecut=    30.00 Ry     beta=0.70
     Davidson diagonalization with overlap
     ethr =  5.15E-04,  avg # of iterations =  1.0

     negative rho (up, down):  1.105E-07 0.000E+00

     total cpu time spent up to now is        7.7 secs

     total energy              =     -31.82386284 Ry
     Harris-Foulkes estimate   =     -31.82343200 Ry
     estimated scf accuracy    <       0.02625416 Ry

     iteration # 27     ecut=    30.00 Ry     beta=0.70
     Davidson diagonalization with overlap
     ethr =  3.28E-04,  avg # of iterations =  1.0

     total cpu time spent up to now is        7.7 secs

     total energy              =     -31.82172107 Ry
     Harris-Foulkes estimate   =     -31.82400077 Ry
     estimated scf accuracy    <       0.07140884 Ry

     iteration # 28     ecut=    30.00 Ry     beta=0.70
     Davidson diagonalization with overlap
     ethr =  3.28E-04,  avg # of iterations =  1.0

     total cpu time spent up to now is        7.7 secs

     total energy              =     -31.82286074 Ry
     Harris-Foulkes estimate   =     -31.82315812 Ry
     estimated scf accuracy    <       0.00464792 Ry

     iteration # 29     ecut=    30.00 Ry     beta=0.70
     Davidson diagonalization with overlap
     ethr =  5.81E-05,  avg # of iterations =  1.0

     total cpu time spent up to now is        7.8 secs

     total energy              =     -31.82283900 Ry
     Harris-Foulkes estimate   =     -31.82323181 Ry
     estimated scf accuracy    <       0.01050361 Ry

     iteration # 30     ecut=    30.00 Ry     beta=0.70
     Davidson diagonalization with overlap
     ethr =  5.81E-05,  avg # of iterations =  1.0

     total cpu time spent up to now is        7.8 secs

     total energy              =     -31.82307072 Ry
     Harris-Foulkes estimate   =     -31.82312375 Ry
     estimated scf accuracy    <       0.00212316 Ry

     iteration # 31     ecut=    30.00 Ry     beta=0.70
     Davidson diagonalization with overlap
     ethr =  2.65E-05,  avg # of iterations =  1.0

     total cpu time spent up to now is        7.9 secs

     total energy              =     -31.82309454 Ry
     Harris-Foulkes estimate   =     -31.82309562 Ry
     estimated scf accuracy    <       0.00000545 Ry

     iteration # 32     ecut=    30.00 Ry     beta=0.70
     Davidson diagonalization with overlap
     ethr =  6.81E-08,  avg # of iterations = 11.0

     total cpu time spent up to now is        8.0 secs

     total energy              =     -31.82309266 Ry
     Harris-Foulkes estimate   =     -31.82309829 Ry
     estimated scf accuracy    <       0.00021811 Ry

     iteration # 33     ecut=    30.00 Ry     beta=0.70
     Davidson diagonalization with overlap
     ethr =  6.81E-08,  avg # of iterations =  1.0

     total cpu time spent up to now is        8.0 secs

     total energy              =     -31.82309542 Ry
     Harris-Foulkes estimate   =     -31.82309542 Ry
     estimated scf accuracy    <       0.00000002 Ry

     iteration # 34     ecut=    30.00 Ry     beta=0.70
     Davidson diagonalization with overlap
     ethr =  1.96E-10,  avg # of iterations =  2.0

     total cpu time spent up to now is        8.0 secs

     End of self-consistent calculation

          k = 0.0000 0.0000 0.0000 ( 22119 PWs)   bands (ev):

   -23.7656  -9.3952  -6.9468  -6.9443  -6.8070  -2.8940  -0.0326   0.7901

     the Fermi energy is    -6.7754 ev

!    total energy              =     -31.82309541 Ry
     Harris-Foulkes estimate   =     -31.82309542 Ry
     estimated scf accuracy    <          4.8E-09 Ry

     convergence has been achieved in  34 iterations

     Forces acting on atoms (Ry/au):

     atom    1 type  2   force =     0.02711947   -0.06906238   -0.16087451
     atom    2 type  1   force =    -0.02618503    0.06927647    0.16117210
     atom    3 type  1   force =    -0.00093444   -0.00021410   -0.00029759

     Total force =     0.250695     Total SCF correction =     0.000014

     Entering Dynamics:    iteration =     4
                           time      =   0.0194 pico-seconds


     Andersen thermostat:    3 collisions

ATOMIC_POSITIONS (bohr)
O        1.721777561   8.055680946  -0.607669040
H        2.201479744   7.646504986  18.620409206
H        7.341098205   0.394841499  18.321638442


     kinetic energy (Ekin) =     0.04631355 Ry
     temperature           =  2437.44056537 K 
     Ekin + Etot (const)   =   -31.77678186 Ry
     Message from routine dynamics:
     Total linear momentum <> 0

     Linear momentum :    0.2461782410   -0.1261203821    0.3176418581

     Writing output data file pwscf.save

     second order wave-functions extrapolation
     Check: negative starting charge=   -0.344060
     second order charge density extrapolation
     Check: negative starting charge=   -0.351881

     negative rho (up, down):  3.908E-01 0.000E+00

     total cpu time spent up to now is        8.6 secs

     per-process dynamical memory:    20.4 Mb

     Self-consistent Calculation

     iteration #  1     ecut=    30.00 Ry     beta=0.70
     Davidson diagonalization with overlap
     c_bands:  1 eigenvalues not converged
     ethr =  1.00E-06,  avg # of iterations = 20.0

     negative rho (up, down):  7.030E-02 0.000E+00

     total cpu time spent up to now is        8.7 secs

     total energy              =     -28.50956938 Ry
     Harris-Foulkes estimate   =     -31.10505015 Ry
     estimated scf accuracy    <       1.55188419 Ry

     iteration #  2     ecut=    30.00 Ry     beta=0.70
     Davidson diagonalization with overlap
     ethr =  1.00E-02,  avg # of iterations =  3.0

     negative rho (up, down):  1.314E-02 0.000E+00

     total cpu time spent up to now is        8.8 secs

     total energy              =     -29.02330057 Ry
     Harris-Foulkes estimate   =     -32.08103163 Ry
     estimated scf accuracy    <       9.79625036 Ry

     iteration #  3     ecut=    30.00 Ry     beta=0.70
     Davidson diagonalization with overlap
     ethr =  1.00E-02,  avg # of iterations =  2.0

     negative rho (up, down):  4.250E-03 0.000E+00

     total cpu time spent up to now is        8.8 secs

     total energy              =     -30.30244615 Ry
     Harris-Foulkes estimate   =     -30.45944247 Ry
     estimated scf accuracy    <       0.68054805 Ry

     iteration #  4     ecut=    30.00 Ry     beta=0.70
     Davidson diagonalization with overlap
     ethr =  8.51E-03,  avg # of iterations =  1.0

     negative rho (up, down):  4.843E-03 0.000E+00

     total cpu time spent up to now is        8.9 secs

     total energy              =     -30.45411314 Ry
     Harris-Foulkes estimate   =     -30.53260010 Ry
     estimated scf accuracy    <       1.55920770 Ry

     iteration #  5     ecut=    30.00 Ry     beta=0.70
     Davidson diagonalization with overlap
     ethr =  8.51E-03,  avg # of iterations =  1.0

     negative rho (up, down):  6.490E-02 0.000E+00

     total cpu time spent up to now is        8.9 secs

     total energy              =     -30.00783869 Ry
     Harris-Foulkes estimate   =     -30.45504745 Ry
     estimated scf accuracy    <       1.47720694 Ry

     iteration #  6     ecut=    30.00 Ry     beta=0.70
     Davidson diagonalization with overlap
     ethr =  8.51E-03,  avg # of iterations =  1.0

     negative rho (up, down):  1.568E-01 0.000E+00

     total cpu time spent up to now is        9.0 secs

     total energy              =     -30.80071946 Ry
     Harris-Foulkes estimate   =     -30.66387530 Ry
     estimated scf accuracy    <       1.28690581 Ry

     iteration #  7     ecut=    30.00 Ry     beta=0.70
     Davidson diagonalization with overlap
     ethr =  8.51E-03,  avg # of iterations =  1.0

     negative rho (up, down):  7.055E-02 0.000E+00

     total cpu time spent up to now is        9.0 secs

     total energy              =     -30.70245091 Ry
     Harris-Foulkes estimate   =     -30.80116446 Ry
     estimated scf accuracy    <       1.41472998 Ry

     iteration #  8     ecut=    30.00 Ry     beta=0.70
     Davidson diagonalization with overlap
     ethr =  8.51E-03,  avg # of iterations =  1.0

     negative rho (up, down):  7.071E-02 0.000E+00

     total cpu time spent up to now is        9.1 secs

     total energy              =     -30.70336369 Ry
     Harris-Foulkes estimate   =     -30.70306471 Ry
     estimated scf accuracy    <       1.25359149 Ry

     iteration #  9     ecut=    30.00 Ry     beta=0.70
     Davidson diagonalization with overlap
     ethr =  8.51E-03,  avg # of iterations =  1.0

     negative rho (up, down):  6.485E-02 0.000E+00

     total cpu time spent up to now is        9.1 secs

     total energy              =     -30.69072366 Ry
     Harris-Foulkes estimate   =     -30.70338315 Ry
     estimated scf accuracy    <       1.25343845 Ry

     iteration # 10     ecut=    30.00 Ry     beta=0.70
     Davidson diagonalization with overlap
     ethr =  8.51E-03,  avg # of iterations =  1.0

     negative rho (up, down):  6.678E-04 0.000E+00

     total cpu time spent up to now is        9.2 secs

     total energy              =     -30.65655231 Ry
     Harris-Foulkes estimate   =     -30.69073284 Ry
     estimated scf accuracy    <       1.23478782 Ry

     iteration # 11     ecut=    30.00 Ry     beta=0.70
     Davidson diagonalization with overlap
     ethr =  8.51E-03,  avg # of iterations =  1.0

     negative rho (up, down):  2.931E-03 0.000E+00

     total cpu time spent up to now is        9.2 secs

     total energy              =     -30.78423296 Ry
     Harris-Foulkes estimate   =     -30.65661480 Ry
     estimated scf accuracy    <       1.19503829 Ry

     iteration # 12     ecut=    30.00 Ry     beta=0.70
     Davidson diagonalization with overlap
     ethr =  8.51E-03,  avg # of iterations =  1.0

     negative rho (up, down):  2.289E-03 0.000E+00

     total cpu time spent up to now is        9.3 secs

     total energy              =     -30.74821422 Ry
     Harris-Foulkes estimate   =     -30.78577014 Ry
     estimated scf accuracy    <       1.40231555 Ry

     iteration # 13     ecut=    30.00 Ry     beta=0.70
     Davidson diagonalization with overlap
     ethr =  8.51E-03,  avg # of iterations =  1.0

     negative rho (up, down):  7.233E-03 0.000E+00

     total cpu time spent up to now is        9.3 secs

     total energy              =     -30.38289710 Ry
     Harris-Foulkes estimate   =     -30.74836929 Ry
     estimated scf accuracy    <       1.34688295 Ry

     iteration # 14     ecut=    30.00 Ry     beta=0.70
     Davidson diagonalization with overlap
     ethr =  8.51E-03,  avg # of iterations =  1.0

     negative rho (up, down):  1.319E-01 0.000E+00

     total cpu time spent up to now is        9.3 secs

     total energy              =     -30.26797992 Ry
     Harris-Foulkes estimate   =     -30.39285692 Ry
     estimated scf accuracy    <       0.25312194 Ry

     iteration # 15     ecut=    30.00 Ry     beta=0.70
     Davidson diagonalization with overlap
     ethr =  3.16E-03,  avg # of iterations =  4.0

     negative rho (up, down):  1.358E-01 0.000E+00

     total cpu time spent up to now is        9.4 secs

     total energy              =     -33.82895133 Ry
     Harris-Foulkes estimate   =     -32.83453464 Ry
     estimated scf accuracy    <       8.43372679 Ry

     iteration # 16     ecut=    30.00 Ry     beta=0.70
     Davidson diagonalization with overlap
     ethr =  3.16E-03,  avg # of iterations =  4.0

     negative rho (up, down):  9.906E-02 0.000E+00

     total cpu time spent up to now is        9.5 secs

     total energy              =     -25.79210914 Ry
     Harris-Foulkes estimate   =     -35.67294510 Ry
     estimated scf accuracy    <      10.72249936 Ry

     iteration # 17     ecut=    30.00 Ry     beta=0.70
     Davidson diagonalization with overlap
     ethr =  3.16E-03,  avg # of iterations =  6.0

     negative rho (up, down):  7.132E-06 0.000E+00

     total cpu time spent up to now is        9.5 secs

     total energy              =     -29.80667742 Ry
     Harris-Foulkes estimate   =     -31.75642564 Ry
     estimated scf accuracy    <       4.33765214 Ry

     iteration # 18     ecut=    30.00 Ry     beta=0.70
     Davidson diagonalization with overlap
     ethr =  3.16E-03,  avg # of iterations =  3.0

     negative rho (up, down):  3.027E-04 0.000E+00

     total cpu time spent up to now is        9.6 secs

     total energy              =     -30.48934572 Ry
     Harris-Foulkes estimate   =     -30.45176969 Ry
     estimated scf accuracy    <       0.93758383 Ry

     iteration # 19     ecut=    30.00 Ry     beta=0.70
     Davidson diagonalization with overlap
     ethr =  3.16E-03,  avg # of iterations =  1.0

     negative rho (up, down):  6.029E-04 0.000E+00

     total cpu time spent up to now is        9.6 secs

     total energy              =     -30.44102994 Ry
     Harris-Foulkes estimate   =     -30.49058318 Ry
     estimated scf accuracy    <       0.97896740 Ry

     iteration # 20     ecut=    30.00 Ry     beta=0.70
     Davidson diagonalization with overlap
     ethr =  3.16E-03,  avg # of iterations =  1.0

     negative rho (up, down):  1.670E-03 0.000E+00

     total cpu time spent up to now is        9.7 secs

     total energy              =     -30.83141021 Ry
     Harris-Foulkes estimate   =     -30.44139874 Ry
     estimated scf accuracy    <       0.90174023 Ry

     iteration # 21     ecut=    30.00 Ry     beta=0.70
     Davidson diagonalization with overlap
     ethr =  3.16E-03,  avg # of iterations =  2.0

     negative rho (up, down):  3.247E-03 0.000E+00

     total cpu time spent up to now is        9.7 secs

     total energy              =     -31.03894412 Ry
     Harris-Foulkes estimate   =     -30.85775518 Ry
     estimated scf accuracy    <       1.58478673 Ry

     iteration # 22     ecut=    30.00 Ry     beta=0.70
     Davidson diagonalization with overlap
     ethr =  3.16E-03,  avg # of iterations =  4.0

     negative rho (up, down):  3.387E-03 0.000E+00

     total cpu time spent up to now is        9.8 secs

     total energy              =     -16.43744307 Ry
     Harris-Foulkes estimate   =     -76.18688154 Ry
     estimated scf accuracy    <       6.90311037 Ry

     iteration # 23     ecut=    30.00 Ry     beta=0.70
     Davidson diagonalization with overlap
     ethr =  3.16E-03,  avg # of iterations =  4.0

     negative rho (up, down):  1.126E-02 0.000E+00

     total cpu time spent up to now is        9.9 secs

     total energy              =     -25.80853183 Ry
     Harris-Foulkes estimate   =     -40.28052512 Ry
     estimated scf accuracy    <       8.68738899 Ry

     iteration # 24     ecut=    30.00 Ry     beta=0.70
     Davidson diagonalization with overlap
     ethr =  3.16E-03,  avg # of iterations =  4.0

     negative rho (up, down):  8.183E-03 0.000E+00

     total cpu time spent up to now is        9.9 secs

     total energy              =     -26.72970869 Ry
     Harris-Foulkes estimate   =     -60.06470536 Ry
     estimated scf accuracy    <      10.03346984 Ry

     iteration # 25     ecut=    30.00 Ry     beta=0.70
     Davidson diagonalization with overlap
     ethr =  3.16E-03,  avg # of iterations =  3.0

     negative rho (up, down):  6.933E-04 0.000E+00

     total cpu time spent up to now is       10.0 secs

     total energy              =     -28.32609007 Ry
     Harris-Foulkes estimate   =     -42.62085985 Ry
     estimated scf accuracy    <       7.35131937 Ry

     iteration # 26     ecut=    30.00 Ry     beta=0.70
     Davidson diagonalization with overlap
     ethr =  3.16E-03,  avg # of iterations =  3.0

     negative rho (up, down):  1.590E-02 0.000E+00

     total cpu time spent up to now is       10.0 secs

     total energy              =     -34.39520252 Ry
     Harris-Foulkes estimate   =     -32.78661642 Ry
     estimated scf accuracy    <       7.79514549 Ry

     iteration # 27     ecut=    30.00 Ry     beta=0.70
     Davidson diagonalization with overlap
     ethr =  3.16E-03,  avg # of iterations =  4.0

     negative rho (up, down):  6.030E-02 0.000E+00

     total cpu time spent up to now is       10.1 secs

     total energy              =    -118.44373728 Ry
     Harris-Foulkes estimate   =     -58.93543131 Ry
     estimated scf accuracy    <      12.96819229 Ry

     iteration # 28     ecut=    30.00 Ry     beta=0.70
     Davidson diagonalization with overlap
     ethr =  3.16E-03,  avg # of iterations =  5.0

     negative rho (up, down):  6.472E-02 0.000E+00

     total cpu time spent up to now is       10.2 secs

     total energy              =       7.19985926 Ry
     Harris-Foulkes estimate   =    -199.41592156 Ry
     estimated scf accuracy    <      26.12759723 Ry

     iteration # 29     ecut=    30.00 Ry     beta=0.70
     Davidson diagonalization with overlap
     ethr =  3.16E-03,  avg # of iterations =  4.0

     negative rho (up, down):  6.203E-02 0.000E+00

     total cpu time spent up to now is       10.2 secs

     total energy              =      -1.60887507 Ry
     Harris-Foulkes estimate   =    -466.51464817 Ry
     estimated scf accuracy    <       9.94991551 Ry

     iteration # 30     ecut=    30.00 Ry     beta=0.70
     Davidson diagonalization with overlap
     ethr =  3.16E-03,  avg # of iterations =  4.0

     negative rho (up, down):  6.613E-01 0.000E+00

     total cpu time spent up to now is       10.3 secs

     total energy              =    -417.94856549 Ry
     Harris-Foulkes estimate   =     -36.16063187 Ry
     estimated scf accuracy    <       7.12941170 Ry

     iteration # 31     ecut=    30.00 Ry     beta=0.70
     Davidson diagonalization with overlap
     ethr =  3.16E-03,  avg # of iterations =  9.0

     negative rho (up, down):  5.618E-01 0.000E+00

     total cpu time spent up to now is       10.4 secs

     total energy              =     -51.68349778 Ry
     Harris-Foulkes estimate   =   -2163.70549233 Ry
     estimated scf accuracy    <      44.10655967 Ry

     iteration # 32     ecut=    30.00 Ry     beta=0.70
     Davidson diagonalization with overlap
     ethr =  3.16E-03,  avg # of iterations = 13.0

     negative rho (up, down):  6.820E-01 0.000E+00

     total cpu time spent up to now is       10.5 secs

     total energy              =  -13358.32311707 Ry
     Harris-Foulkes estimate   =    -265.25777014 Ry
     estimated scf accuracy    <      42.26194549 Ry

     iteration # 33     ecut=    30.00 Ry     beta=0.70
     Davidson diagonalization with overlap
     ethr =  3.16E-03,  avg # of iterations =  7.0

     negative rho (up, down):  6.880E-01 0.000E+00

     total cpu time spent up to now is       10.6 secs

     total energy              =    -220.97960481 Ry
     Harris-Foulkes estimate   =  -33164.69669344 Ry
     estimated scf accuracy    <      40.44338969 Ry

     iteration # 34     ecut=    30.00 Ry     beta=0.70
     Davidson diagonalization with overlap
     ethr =  3.16E-03,  avg # of iterations =  6.0

     negative rho (up, down):  6.910E-01 0.000E+00

     total cpu time spent up to now is       10.7 secs

     total energy              =    -366.19643427 Ry
     Harris-Foulkes estimate   =    -716.95055488 Ry
     estimated scf accuracy    <      54.53695200 Ry

     iteration # 35     ecut=    30.00 Ry     beta=0.70
     Davidson diagonalization with overlap
     ethr =  3.16E-03,  avg # of iterations =  6.0

     negative rho (up, down):  7.629E-01 0.000E+00

     total cpu time spent up to now is       10.8 secs

     total energy              =  -11328.43084259 Ry
     Harris-Foulkes estimate   =    -807.50965944 Ry
     estimated scf accuracy    <      59.13553351 Ry

     iteration # 36     ecut=    30.00 Ry     beta=0.70
     Davidson diagonalization with overlap
     ethr =  3.16E-03,  avg # of iterations =  5.0

     negative rho (up, down):  8.612E-01 0.000E+00

     total cpu time spent up to now is       10.8 secs

     total energy              =      53.01272580 Ry
     Harris-Foulkes estimate   =  -23771.37470499 Ry
     estimated scf accuracy    <      54.68694259 Ry

     iteration # 37     ecut=    30.00 Ry     beta=0.70
     Davidson diagonalization with overlap
     ethr =  3.16E-03,  avg # of iterations =  8.0

     negative rho (up, down):  9.241E-01 0.000E+00

     total cpu time spent up to now is       11.0 secs

     total energy              =    -266.50804633 Ry
     Harris-Foulkes estimate   =   -3496.82280992 Ry
     estimated scf accuracy    <      42.87723064 Ry

     iteration # 38     ecut=    30.00 Ry     beta=0.70
     Davidson diagonalization with overlap
     ethr =  3.16E-03,  avg # of iterations =  7.0

     negative rho (up, down):  9.546E-01 0.000E+00

     total cpu time spent up to now is       11.1 secs

     total energy              =    -629.81315944 Ry
     Harris-Foulkes estimate   =  -11125.10552713 Ry
     estimated scf accuracy    <      59.12501058 Ry

     iteration # 39     ecut=    30.00 Ry     beta=0.70
     Davidson diagonalization with overlap
     ethr =  3.16E-03,  avg # of iterations =  6.0

     negative rho (up, down):  9.215E-01 0.000E+00

     total cpu time spent up to now is       11.1 secs

     total energy              =     131.69347204 Ry
     Harris-Foulkes estimate   =   -1991.48075636 Ry
     estimated scf accuracy    <      58.12340548 Ry

     iteration # 40     ecut=    30.00 Ry     beta=0.70
     Davidson diagonalization with overlap
     ethr =  3.16E-03,  avg # of iterations =  9.0

     negative rho (up, down):  1.230E+00 0.000E+00

     total cpu time spent up to now is       11.3 secs

     total energy              =      82.62712462 Ry
     Harris-Foulkes estimate   =    -149.66437652 Ry
     estimated scf accuracy    <      16.36355579 Ry

     iteration # 41     ecut=    30.00 Ry     beta=0.70
     Davidson diagonalization with overlap
     ethr =  3.16E-03,  avg # of iterations =  8.0

     negative rho (up, down):  1.358E+00 0.000E+00

     total cpu time spent up to now is       11.3 secs

     total energy              =       6.49770165 Ry
     Harris-Foulkes estimate   =   -2707.74778611 Ry
     estimated scf accuracy    <      25.37564709 Ry

     iteration # 42     ecut=    30.00 Ry     beta=0.70
     Davidson diagonalization with overlap
     ethr =  3.16E-03,  avg # of iterations =  9.0

     negative rho (up, down):  1.161E+00 0.000E+00

     total cpu time spent up to now is       11.4 secs

     total energy              =      75.55905146 Ry
     Harris-Foulkes estimate   =    -385.51180020 Ry
     estimated scf accuracy    <      26.65242564 Ry

     iteration # 43     ecut=    30.00 Ry     beta=0.70
     Davidson diagonalization with overlap
     ethr =  3.16E-03,  avg # of iterations =  6.0

     negative rho (up, down):  1.155E+00 0.000E+00

     total cpu time spent up to now is       11.5 secs

     total energy              =     101.38493758 Ry
     Harris-Foulkes estimate   =    -544.82781848 Ry
     estimated scf accuracy    <      28.40379665 Ry

     iteration # 44     ecut=    30.00 Ry     beta=0.70
     Davidson diagonalization with overlap
     ethr =  3.16E-03,  avg # of iterations =  8.0

     negative rho (up, down):  4.945E-01 0.000E+00

     total cpu time spent up to now is       11.6 secs

     total energy              =  -36240.92271103 Ry
     Harris-Foulkes estimate   =     -83.39712663 Ry
     estimated scf accuracy    <      14.17260777 Ry

     iteration # 45     ecut=    30.00 Ry     beta=0.70
     Davidson diagonalization with overlap
     ethr =  3.16E-03,  avg # of iterations =  6.0

     negative rho (up, down):  1.868E-01 0.000E+00

     total cpu time spent up to now is       11.7 secs

     total energy              =   -3572.32014868 Ry
     Harris-Foulkes estimate   =  -93779.78130562 Ry
     estimated scf accuracy    <      20.89566992 Ry

     iteration # 46     ecut=    30.00 Ry     beta=0.70
     Davidson diagonalization with overlap
     ethr =  3.16E-03,  avg # of iterations =  9.0

     negative rho (up, down):  2.415E-01 0.000E+00

     total cpu time spent up to now is       11.8 secs

     total energy              =    -329.72336460 Ry
     Harris-Foulkes estimate   =   -6593.21944659 Ry
     estimated scf accuracy    <      28.30688274 Ry

     iteration # 47     ecut=    30.00 Ry     beta=0.70
     Davidson diagonalization with overlap
     ethr =  3.16E-03,  avg # of iterations =  6.0

     negative rho (up, down):  9.323E-02 0.000E+00

     total cpu time spent up to now is       11.9 secs

     total energy              =      -7.83997018 Ry
     Harris-Foulkes estimate   =   -2982.31416058 Ry
     estimated scf accuracy    <      38.14389212 Ry

     iteration # 48     ecut=    30.00 Ry     beta=0.70
     Davidson diagonalization with overlap
     ethr =  3.16E-03,  avg # of iterations =  8.0

     negative rho (up, down):  3.022E-01 0.000E+00

     total cpu time spent up to now is       11.9 secs

     total energy              =     -24.27018660 Ry
     Harris-Foulkes estimate   =    -914.65815064 Ry
     estimated scf accuracy    <      15.50475273 Ry

     iteration # 49     ecut=    30.00 Ry     beta=0.70
     Davidson diagonalization with overlap
     ethr =  3.16E-03,  avg # of iterations =  7.0

     negative rho (up, down):  4.131E-01 0.000E+00

     total cpu time spent up to now is       12.0 secs

     total energy              =      63.29103294 Ry
     Harris-Foulkes estimate   =    -748.57684224 Ry
     estimated scf accuracy    <      33.51986238 Ry

     iteration # 50     ecut=    30.00 Ry     beta=0.70
     Davidson diagonalization with overlap
     ethr =  3.16E-03,  avg # of iterations =  7.0

     negative rho (up, down):  3.992E-01 0.000E+00

     total cpu time spent up to now is       12.1 secs

     total energy              =    -338.21579158 Ry
     Harris-Foulkes estimate   =    -432.18221160 Ry
     estimated scf accuracy    <      23.50235930 Ry

     iteration # 51     ecut=    30.00 Ry     beta=0.70
     Davidson diagonalization with overlap
     ethr =  3.16E-03,  avg # of iterations =  5.0

     negative rho (up, down):  3.868E-01 0.000E+00

     total cpu time spent up to now is       12.2 secs

     total energy              =     136.55030563 Ry
     Harris-Foulkes estimate   =   -4521.15078406 Ry
     estimated scf accuracy    <      30.56211809 Ry

     iteration # 52     ecut=    30.00 Ry     beta=0.70
     Davidson diagonalization with overlap
     ethr =  3.16E-03,  avg # of iterations =  8.0

     negative rho (up, down):  4.080E-01 0.000E+00

     total cpu time spent up to now is       12.3 secs

     total energy              =       3.19846160 Ry
     Harris-Foulkes estimate   =    -150.98715659 Ry
     estimated scf accuracy    <      17.40168031 Ry

     iteration # 53     ecut=    30.00 Ry     beta=0.70
     Davidson diagonalization with overlap
     ethr =  3.16E-03,  avg # of iterations =  8.0

[...]

     total energy              =    -352.46542539 Ry
     Harris-Foulkes estimate   =   -7746.49402760 Ry
     estimated scf accuracy    <      23.03996747 Ry

     iteration # 59     ecut=    30.00 Ry     beta=0.70
     Davidson diagonalization with overlap
     ethr =  3.16E-03,  avg # of iterations = 10.0

     negative rho (up, down):  4.831E-01 0.000E+00

     total cpu time spent up to now is       12.9 secs

     total energy              =      59.52898758 Ry
     Harris-Foulkes estimate   =    -892.07243378 Ry
     estimated scf accuracy    <      33.19782698 Ry

     iteration # 60     ecut=    30.00 Ry     beta=0.70
     Davidson diagonalization with overlap
     ethr =  3.16E-03,  avg # of iterations = 10.0

     negative rho (up, down):  4.023E-01 0.000E+00

     total cpu time spent up to now is       13.0 secs

     total energy              =    -206.75646120 Ry
     Harris-Foulkes estimate   =    -117.48309349 Ry
     estimated scf accuracy    <      14.71290417 Ry

     iteration # 61     ecut=    30.00 Ry     beta=0.70
     Davidson diagonalization with overlap
     ethr =  3.16E-03,  avg # of iterations = 11.0

     negative rho (up, down):  3.477E-01 0.000E+00

     total cpu time spent up to now is       13.1 secs

     total energy              =      67.70789816 Ry
     Harris-Foulkes estimate   =   -1034.61242128 Ry
     estimated scf accuracy    <      14.80791675 Ry

     iteration # 62     ecut=    30.00 Ry     beta=0.70
     Davidson diagonalization with overlap
     ethr =  3.16E-03,  avg # of iterations = 11.0

     negative rho (up, down):  6.175E-02 0.000E+00

     total cpu time spent up to now is       13.2 secs

     total energy              =    6084.68696513 Ry
     Harris-Foulkes estimate   =    -204.70265999 Ry
     estimated scf accuracy    <      23.39586172 Ry

     iteration # 63     ecut=    30.00 Ry     beta=0.70
     Davidson diagonalization with overlap
     ethr =  3.16E-03,  avg # of iterations =  9.0

     negative rho (up, down):  9.270E-02 0.000E+00

     total cpu time spent up to now is       13.3 secs

     total energy              =     -53.87756260 Ry
     Harris-Foulkes estimate   =     -58.01564766 Ry
     estimated scf accuracy    <      37.29236327 Ry

     iteration # 64     ecut=    30.00 Ry     beta=0.70
     Davidson diagonalization with overlap
     ethr =  3.16E-03,  avg # of iterations =  5.0

     negative rho (up, down):  2.096E-01 0.000E+00

     total cpu time spent up to now is       13.3 secs

     total energy              =     -21.28594131 Ry
     Harris-Foulkes estimate   =    -127.01423577 Ry
     estimated scf accuracy    <      19.52230088 Ry

     iteration # 65     ecut=    30.00 Ry     beta=0.70
     Davidson diagonalization with overlap
     ethr =  3.16E-03,  avg # of iterations =  9.0

     negative rho (up, down):  1.510E-01 0.000E+00

     total cpu time spent up to now is       13.4 secs

     total energy              =      65.85682595 Ry
     Harris-Foulkes estimate   =    -127.37635509 Ry
     estimated scf accuracy    <      13.04600222 Ry

     iteration # 66     ecut=    30.00 Ry     beta=0.70
     Davidson diagonalization with overlap
     ethr =  3.16E-03,  avg # of iterations =  6.0

     negative rho (up, down):  1.886E-01 0.000E+00

     total cpu time spent up to now is       13.5 secs

     total energy              =     -33.20370606 Ry
     Harris-Foulkes estimate   =    -169.70780262 Ry
     estimated scf accuracy    <      42.17592224 Ry

     iteration # 67     ecut=    30.00 Ry     beta=0.70
     Davidson diagonalization with overlap
     ethr =  3.16E-03,  avg # of iterations =  9.0

     negative rho (up, down):  1.124E-01 0.000E+00

     total cpu time spent up to now is       13.6 secs

     total energy              =   -1073.52570319 Ry
     Harris-Foulkes estimate   =    -868.89374798 Ry
     estimated scf accuracy    <      22.88966932 Ry

     iteration # 68     ecut=    30.00 Ry     beta=0.70
     Davidson diagonalization with overlap
     ethr =  3.16E-03,  avg # of iterations =  5.0

     negative rho (up, down):  1.377E-01 0.000E+00

     total cpu time spent up to now is       13.7 secs

     total energy              =     -12.75142879 Ry
     Harris-Foulkes estimate   =   -2986.28802383 Ry
     estimated scf accuracy    <      12.90546715 Ry

     iteration # 69     ecut=    30.00 Ry     beta=0.70
     Davidson diagonalization with overlap
     ethr =  3.16E-03,  avg # of iterations =  6.0

     negative rho (up, down):  3.667E-01 0.000E+00

     total cpu time spent up to now is       13.7 secs

     total energy              =      93.03543727 Ry
     Harris-Foulkes estimate   =   -4380.71458044 Ry
     estimated scf accuracy    <      41.05078285 Ry

     iteration # 70     ecut=    30.00 Ry     beta=0.70
     Davidson diagonalization with overlap
     ethr =  3.16E-03,  avg # of iterations = 12.0

     negative rho (up, down):  3.641E-01 0.000E+00

     total cpu time spent up to now is       13.8 secs

     total energy              =   59263.40918693 Ry
     Harris-Foulkes estimate   =    -799.17830894 Ry
     estimated scf accuracy    <      27.71201023 Ry

     iteration # 71     ecut=    30.00 Ry     beta=0.70
     Davidson diagonalization with overlap
     ethr =  3.16E-03,  avg # of iterations = 11.0

     negative rho (up, down):  5.386E-01 0.000E+00

     total cpu time spent up to now is       13.9 secs

     total energy              =    -195.50350532 Ry
     Harris-Foulkes estimate   =   -1003.88063557 Ry
     estimated scf accuracy    <      14.46383169 Ry

     iteration # 72     ecut=    30.00 Ry     beta=0.70
     Davidson diagonalization with overlap
     ethr =  3.16E-03,  avg # of iterations =  5.0

     negative rho (up, down):  6.153E-01 0.000E+00

     total cpu time spent up to now is       14.0 secs

     total energy              =     101.23730720 Ry
     Harris-Foulkes estimate   =  -32726.51057487 Ry
     estimated scf accuracy    <      36.83669088 Ry

     iteration # 73     ecut=    30.00 Ry     beta=0.70
     Davidson diagonalization with overlap
     ethr =  3.16E-03,  avg # of iterations =  7.0

     negative rho (up, down):  6.622E-01 0.000E+00

     total cpu time spent up to now is       14.1 secs

     total energy              =   -1290.29022339 Ry
     Harris-Foulkes estimate   =    -399.12690838 Ry
     estimated scf accuracy    <      35.03960362 Ry

     iteration # 74     ecut=    30.00 Ry     beta=0.70
     Davidson diagonalization with overlap
     ethr =  3.16E-03,  avg # of iterations =  8.0

     negative rho (up, down):  7.352E-01 0.000E+00

     total cpu time spent up to now is       14.1 secs

     total energy              =      16.91633670 Ry
     Harris-Foulkes estimate   =   -2206.53717048 Ry
     estimated scf accuracy    <      33.97136073 Ry

     iteration # 75     ecut=    30.00 Ry     beta=0.70
     Davidson diagonalization with overlap
     ethr =  3.16E-03,  avg # of iterations =  5.0

     negative rho (up, down):  3.072E-01 0.000E+00

     total cpu time spent up to now is       14.2 secs

     total energy              =      80.52500676 Ry
     Harris-Foulkes estimate   =   -1120.30317801 Ry
     estimated scf accuracy    <      24.74405892 Ry

     iteration # 76     ecut=    30.00 Ry     beta=0.70
     Davidson diagonalization with overlap
     ethr =  3.16E-03,  avg # of iterations =  7.0

     negative rho (up, down):  6.214E-01 0.000E+00

     total cpu time spent up to now is       14.3 secs

     total energy              =   -6071.86893054 Ry
     Harris-Foulkes estimate   =   -9596.95216106 Ry
     estimated scf accuracy    <      36.50991843 Ry

     iteration # 77     ecut=    30.00 Ry     beta=0.70
     Davidson diagonalization with overlap
     ethr =  3.16E-03,  avg # of iterations =  7.0

     negative rho (up, down):  8.485E-01 0.000E+00

     total cpu time spent up to now is       14.4 secs

     total energy              =      93.21830897 Ry
     Harris-Foulkes estimate   =  -17301.51565288 Ry
     estimated scf accuracy    <      22.83469136 Ry

     iteration # 78     ecut=    30.00 Ry     beta=0.70
     Davidson diagonalization with overlap
     ethr =  3.16E-03,  avg # of iterations =  9.0

     negative rho (up, down):  1.050E+00 0.000E+00

     total cpu time spent up to now is       14.5 secs

     total energy              =    -208.10036754 Ry
     Harris-Foulkes estimate   =   -1412.22072416 Ry
     estimated scf accuracy    <      30.68573996 Ry

     iteration # 79     ecut=    30.00 Ry     beta=0.70
     Davidson diagonalization with overlap
     ethr =  3.16E-03,  avg # of iterations =  6.0

     negative rho (up, down):  8.218E-01 0.000E+00

     total cpu time spent up to now is       14.6 secs

     total energy              =   -8717.89485929 Ry
     Harris-Foulkes estimate   =   -3076.87778657 Ry
     estimated scf accuracy    <      23.53913250 Ry

     iteration # 80     ecut=    30.00 Ry     beta=0.70
     Davidson diagonalization with overlap
     ethr =  3.16E-03,  avg # of iterations = 13.0

     negative rho (up, down):  8.402E-01 0.000E+00

     total cpu time spent up to now is       14.7 secs

     total energy              =     -55.27895450 Ry
     Harris-Foulkes estimate   =  -23730.06147779 Ry
     estimated scf accuracy    <      31.19621627 Ry

     iteration # 81     ecut=    30.00 Ry     beta=0.70
     Davidson diagonalization with overlap
     ethr =  3.16E-03,  avg # of iterations =  8.0

     negative rho (up, down):  4.989E-01 0.000E+00

     total cpu time spent up to now is       14.7 secs

     total energy              =      15.62595359 Ry
     Harris-Foulkes estimate   =   -6854.50956318 Ry
     estimated scf accuracy    <      30.77492399 Ry

     iteration # 82     ecut=    30.00 Ry     beta=0.70
     Davidson diagonalization with overlap
     ethr =  3.16E-03,  avg # of iterations = 10.0

     negative rho (up, down):  1.909E-01 0.000E+00

     total cpu time spent up to now is       14.8 secs

     total energy              =     113.79641947 Ry
     Harris-Foulkes estimate   =   -8688.91859229 Ry
     estimated scf accuracy    <      22.14820496 Ry

     iteration # 83     ecut=    30.00 Ry     beta=0.70
     Davidson diagonalization with overlap
     ethr =  3.16E-03,  avg # of iterations =  6.0

     negative rho (up, down):  3.252E-01 0.000E+00

     total cpu time spent up to now is       14.9 secs

     total energy              =     155.30653273 Ry
     Harris-Foulkes estimate   =   -7343.41507766 Ry
     estimated scf accuracy    <      30.15732378 Ry

     iteration # 84     ecut=    30.00 Ry     beta=0.70
     Davidson diagonalization with overlap
     ethr =  3.16E-03,  avg # of iterations = 14.0

     negative rho (up, down):  1.982E-01 0.000E+00

     total cpu time spent up to now is       15.0 secs

     total energy              =     -30.84532642 Ry
     Harris-Foulkes estimate   =    -107.00714949 Ry
     estimated scf accuracy    <      42.09932580 Ry

     iteration # 85     ecut=    30.00 Ry     beta=0.70
     Davidson diagonalization with overlap
     ethr =  3.16E-03,  avg # of iterations =  9.0

     negative rho (up, down):  1.509E-01 0.000E+00

     total cpu time spent up to now is       15.1 secs

     total energy              =      45.29441093 Ry
     Harris-Foulkes estimate   =   -1735.47592411 Ry
     estimated scf accuracy    <      17.79235442 Ry

     iteration # 86     ecut=    30.00 Ry     beta=0.70
     Davidson diagonalization with overlap
     ethr =  3.16E-03,  avg # of iterations =  7.0

     negative rho (up, down):  2.283E-01 0.000E+00

     total cpu time spent up to now is       15.2 secs

     total energy              =    -762.39376789 Ry
     Harris-Foulkes estimate   =   -1264.57029701 Ry
     estimated scf accuracy    <      34.45908456 Ry

     iteration # 87     ecut=    30.00 Ry     beta=0.70
     Davidson diagonalization with overlap
     ethr =  3.16E-03,  avg # of iterations =  9.0

     negative rho (up, down):  1.706E-01 0.000E+00

     total cpu time spent up to now is       15.3 secs

     total energy              =      61.02758261 Ry
     Harris-Foulkes estimate   =   -1367.39766478 Ry
     estimated scf accuracy    <      20.24916038 Ry

     iteration # 88     ecut=    30.00 Ry     beta=0.70
     Davidson diagonalization with overlap
     ethr =  3.16E-03,  avg # of iterations =  8.0

     negative rho (up, down):  2.445E-01 0.000E+00

     total cpu time spent up to now is       15.4 secs

     total energy              =     -41.45769972 Ry
     Harris-Foulkes estimate   =     -88.60740651 Ry
     estimated scf accuracy    <      39.41768753 Ry

     iteration # 89     ecut=    30.00 Ry     beta=0.70
     Davidson diagonalization with overlap
     ethr =  3.16E-03,  avg # of iterations =  6.0

     negative rho (up, down):  1.854E-02 0.000E+00

     total cpu time spent up to now is       15.5 secs

     total energy              =     131.53531738 Ry
     Harris-Foulkes estimate   =    -715.91528836 Ry
     estimated scf accuracy    <      30.84036755 Ry

     iteration # 90     ecut=    30.00 Ry     beta=0.70
     Davidson diagonalization with overlap
     ethr =  3.16E-03,  avg # of iterations = 17.0

     negative rho (up, down):  5.332E-02 0.000E+00

     total cpu time spent up to now is       15.6 secs

     total energy              =      35.49206328 Ry
     Harris-Foulkes estimate   =    -610.78852119 Ry
     estimated scf accuracy    <      20.05571836 Ry

     iteration # 91     ecut=    30.00 Ry     beta=0.70
     Davidson diagonalization with overlap
     ethr =  3.16E-03,  avg # of iterations = 12.0

     negative rho (up, down):  2.582E-01 0.000E+00

     total cpu time spent up to now is       15.6 secs

     total energy              =     -31.60190096 Ry
     Harris-Foulkes estimate   =     -73.55845047 Ry
     estimated scf accuracy    <      30.64707589 Ry

     iteration # 92     ecut=    30.00 Ry     beta=0.70
     Davidson diagonalization with overlap
     ethr =  3.16E-03,  avg # of iterations =  8.0

     negative rho (up, down):  8.408E-02 0.000E+00

     total cpu time spent up to now is       15.7 secs

     total energy              =     112.22891641 Ry
     Harris-Foulkes estimate   =    -253.03933188 Ry
     estimated scf accuracy    <      22.74407222 Ry

     iteration # 93     ecut=    30.00 Ry     beta=0.70
     Davidson diagonalization with overlap
     ethr =  3.16E-03,  avg # of iterations = 16.0

     negative rho (up, down):  1.144E-02 0.000E+00

     total cpu time spent up to now is       15.9 secs

     total energy              =     -64.15303616 Ry
     Harris-Foulkes estimate   =     -66.18526590 Ry
     estimated scf accuracy    <      47.03361897 Ry

     iteration # 94     ecut=    30.00 Ry     beta=0.70
     Davidson diagonalization with overlap
     ethr =  3.16E-03,  avg # of iterations = 10.0

     negative rho (up, down):  1.139E+00 0.000E+00

     total cpu time spent up to now is       15.9 secs

     total energy              =     -84.63531904 Ry
     Harris-Foulkes estimate   =     -64.15708014 Ry
     estimated scf accuracy    <      44.70514733 Ry

     iteration # 95     ecut=    30.00 Ry     beta=0.70
     Davidson diagonalization with overlap
     ethr =  3.16E-03,  avg # of iterations =  7.0

     negative rho (up, down):  4.223E-01 0.000E+00

     total cpu time spent up to now is       16.0 secs

     total energy              =     121.29778898 Ry
     Harris-Foulkes estimate   =   -1524.42751649 Ry
     estimated scf accuracy    <      20.50617367 Ry

     iteration # 96     ecut=    30.00 Ry     beta=0.70
     Davidson diagonalization with overlap
     ethr =  3.16E-03,  avg # of iterations = 12.0

     negative rho (up, down):  3.725E-01 0.000E+00

     total cpu time spent up to now is       16.1 secs

     total energy              =     -22.72893509 Ry
     Harris-Foulkes estimate   =     -64.29259667 Ry
     estimated scf accuracy    <      21.65150903 Ry

     iteration # 97     ecut=    30.00 Ry     beta=0.70
     Davidson diagonalization with overlap
     ethr =  3.16E-03,  avg # of iterations = 10.0

     total cpu time spent up to now is       16.2 secs

     total energy              =      28.75730732 Ry
     Harris-Foulkes estimate   =    -139.36888210 Ry
     estimated scf accuracy    <      18.84303983 Ry

     iteration # 98     ecut=    30.00 Ry     beta=0.70
     Davidson diagonalization with overlap
     ethr =  3.16E-03,  avg # of iterations = 11.0

     negative rho (up, down):  4.423E-02 0.000E+00

     total cpu time spent up to now is       16.3 secs

     total energy              =     -59.28126170 Ry
     Harris-Foulkes estimate   =     -60.49671688 Ry
     estimated scf accuracy    <      40.60645505 Ry

     iteration # 99     ecut=    30.00 Ry     beta=0.70
     Davidson diagonalization with overlap
     ethr =  3.16E-03,  avg # of iterations =  1.0

     negative rho (up, down):  4.882E-02 0.000E+00

     total cpu time spent up to now is       16.4 secs

     total energy              =     -54.06784828 Ry
     Harris-Foulkes estimate   =     -59.29237408 Ry
     estimated scf accuracy    <      38.56875172 Ry

     iteration #100     ecut=    30.00 Ry     beta=0.70
     Davidson diagonalization with overlap
     ethr =  3.16E-03,  avg # of iterations =  6.0

     negative rho (up, down):  4.906E-02 0.000E+00

     total cpu time spent up to now is       16.4 secs

     total energy              =      25.89698327 Ry
     Harris-Foulkes estimate   =    -303.98782500 Ry
     estimated scf accuracy    <      16.17375566 Ry

     End of self-consistent calculation

     convergence NOT achieved after 100 iterations: stopping

     Writing output data file pwscf.save
 
     init_run     :      0.17s CPU      0.19s WALL (       1 calls)
     electrons    :     12.31s CPU     14.64s WALL (       5 calls)
     update_pot   :      0.81s CPU      1.02s WALL (       4 calls)
     forces       :      0.17s CPU      0.17s WALL (       4 calls)

     Called by init_run:
     wfcinit      :      0.01s CPU      0.02s WALL (       1 calls)
     potinit      :      0.05s CPU      0.05s WALL (       1 calls)

     Called by electrons:
     c_bands      :      6.72s CPU      7.03s WALL (     216 calls)
     sum_band     :      1.11s CPU      1.16s WALL (     216 calls)
     v_of_rho     :      2.75s CPU      2.85s WALL (     221 calls)
     mix_rho      :      1.40s CPU      2.89s WALL (     216 calls)

     Called by c_bands:
     init_us_2    :      0.03s CPU      0.04s WALL (     433 calls)
     cegterg      :      6.65s CPU      6.88s WALL (     216 calls)

     Called by sum_band:

     Called by *egterg:
     h_psi        :      5.62s CPU      5.73s WALL (    1167 calls)
     g_psi        :      0.06s CPU      0.07s WALL (     950 calls)
     cdiaghg      :      0.41s CPU      0.46s WALL (    1162 calls)

     Called by h_psi:
     h_psi:pot    :      5.59s CPU      5.70s WALL (    1167 calls)
     h_psi:calbec :      0.04s CPU      0.04s WALL (    1167 calls)
     vloc_psi     :      5.52s CPU      5.63s WALL (    1167 calls)
     add_vuspsi   :      0.02s CPU      0.02s WALL (    1167 calls)

     General routines
     calbec       :      0.07s CPU      0.08s WALL (    1186 calls)
     fft          :      1.60s CPU      1.64s WALL (    2439 calls)
     fftw         :      5.75s CPU      5.88s WALL (   14466 calls)
     davcio       :      0.24s CPU      1.33s WALL (    3888 calls)
 
     Parallel routines
     fft_scatter  :      2.16s CPU      2.23s WALL (   16905 calls)
 
     PWSCF        :    13.77s CPU        16.58s WALL

 
   This run was terminated on:  13:55:23  13Feb2018            

=------------------------------------------------------------------------------=
   JOB DONE.
=------------------------------------------------------------------------------=
