
     Program PWSCF v.6.0 (svn rev. 13079) starts on 13Feb2018 at 13: 5: 1 

     This program is part of the open-source Quantum ESPRESSO suite
     for quantum simulation of materials; please cite
         "P. Giannozzi et al., J. Phys.:Condens. Matter 21 395502 (2009);
          URL http://www.quantum-espresso.org", 
     in publications or presentations arising from this work. More details at
     http://www.quantum-espresso.org/quote

     Parallel version (MPI), running on    28 processors
     R & G space division:  proc/nbgrp/npool/nimage =      28
     Reading input from inputs/MD-H2O-round1/19.in

     Current dimensions of program PWSCF are:
     Max number of different atomic species (ntypx) = 10
     Max number of k-points (npk) =  40000
     Max angular momentum in pseudopotentials (lmaxx) =  3

     Subspace diagonalization in iterative solution of the eigenvalue problem:
     a serial algorithm will be used

 
     Parallelization info
     --------------------
     sticks:   dense  smooth     PW     G-vecs:    dense   smooth      PW
     Min         136     136     33                 6338     6338     787
     Max         137     137     34                 6341     6341     792
     Sum        3809    3809    949               177509   177509   22119
 


     bravais-lattice index     =            1
     lattice parameter (alat)  =      20.0000  a.u.
     unit-cell volume          =    8000.0000 (a.u.)^3
     number of atoms/cell      =            3
     number of atomic types    =            2
     number of electrons       =         8.00
     number of Kohn-Sham states=            8
     kinetic-energy cutoff     =      30.0000  Ry
     charge density cutoff     =     120.0000  Ry
     convergence threshold     =      1.0E-08
     mixing beta               =       0.7000
     number of iterations used =            8  plain     mixing
     Exchange-correlation      = BLYP ( 1  3  1  3 0 0)
     nstep                     =         5000


     celldm(1)=  20.000000  celldm(2)=   0.000000  celldm(3)=   0.000000
     celldm(4)=   0.000000  celldm(5)=   0.000000  celldm(6)=   0.000000

     crystal axes: (cart. coord. in units of alat)
               a(1) = (   1.000000   0.000000   0.000000 )  
               a(2) = (   0.000000   1.000000   0.000000 )  
               a(3) = (   0.000000   0.000000   1.000000 )  

     reciprocal axes: (cart. coord. in units 2 pi/alat)
               b(1) = (  1.000000  0.000000  0.000000 )  
               b(2) = (  0.000000  1.000000  0.000000 )  
               b(3) = (  0.000000  0.000000  1.000000 )  


     PseudoPot. # 1 for  H read from file:
     ./H.blyp-hgh.UPF
     MD5 check sum: c576e69559cde411e611be972c763230
     Pseudo is Norm-conserving, Zval =  1.0
     Generated in analytical, separable form
     Using radial grid of  929 points,  0 beta functions with: 

     PseudoPot. # 2 for  O read from file:
     ./O.blyp-hgh.UPF
     MD5 check sum: d0b7156309aa9befef28faac7bc56342
     Pseudo is Norm-conserving, Zval =  6.0
     Generated in analytical, separable form
     Using radial grid of 1095 points,  1 beta functions with: 
                l(1) =   0

     atomic species   valence    mass     pseudopotential
        H              1.00     1.01000      H( 1.00)
        O              6.00    16.00000      O( 1.00)

     No symmetry found



   Cartesian axes

     site n.     atom                  positions (alat units)
         1           O   tau(   1) = (   0.2736891   0.6210662   0.7051403  )
         2           H   tau(   2) = (   0.2984791   0.7066598   0.1033531  )
         3           H   tau(   3) = (   0.3084931   0.6440252   0.7736093  )

     number of k points=     1  Marzari-Vanderbilt smearing, width (Ry)=  0.0250
                       cart. coord. in units 2pi/alat
        k(    1) = (   0.0000000   0.0000000   0.0000000), wk =   2.0000000

     Dense  grid:   177509 G-vectors     FFT dimensions: (  72,  72,  72)

     Estimated max dynamical RAM per process >       6.09Mb

     Estimated total allocated dynamical RAM >     170.64Mb

     Initial potential from superposition of free atoms
     Check: negative starting charge=   -0.348766

     starting charge    7.99998, renormalised to    8.00000

     negative rho (up, down):  3.488E-01 0.000E+00
     Starting wfc are    6 randomized atomic wfcs +    2 random wfc

     total cpu time spent up to now is        0.3 secs

     per-process dynamical memory:    18.8 Mb

     Self-consistent Calculation

     iteration #  1     ecut=    30.00 Ry     beta=0.70
     Davidson diagonalization with overlap
     ethr =  1.00E-02,  avg # of iterations =  6.0

     negative rho (up, down):  9.417E-02 0.000E+00

     total cpu time spent up to now is        0.4 secs

     total energy              =     -31.58906396 Ry
     Harris-Foulkes estimate   =     -32.06548324 Ry
     estimated scf accuracy    <       0.50556964 Ry

     iteration #  2     ecut=    30.00 Ry     beta=0.70
     Davidson diagonalization with overlap
     ethr =  6.32E-03,  avg # of iterations =  2.0

     negative rho (up, down):  7.327E-02 0.000E+00

     total cpu time spent up to now is        0.4 secs

     total energy              =     -31.68662996 Ry
     Harris-Foulkes estimate   =     -32.30059216 Ry
     estimated scf accuracy    <       2.11240083 Ry

     iteration #  3     ecut=    30.00 Ry     beta=0.70
     Davidson diagonalization with overlap
     ethr =  6.32E-03,  avg # of iterations =  2.0

     negative rho (up, down):  2.641E-02 0.000E+00

     total cpu time spent up to now is        0.5 secs

     total energy              =     -31.66365797 Ry
     Harris-Foulkes estimate   =     -31.81300132 Ry
     estimated scf accuracy    <       0.92910255 Ry

     iteration #  4     ecut=    30.00 Ry     beta=0.70
     Davidson diagonalization with overlap
     ethr =  6.32E-03,  avg # of iterations =  1.0

     negative rho (up, down):  1.190E-02 0.000E+00

     total cpu time spent up to now is        0.5 secs

     total energy              =     -31.75682926 Ry
     Harris-Foulkes estimate   =     -31.97191704 Ry
     estimated scf accuracy    <       1.38406023 Ry

     iteration #  5     ecut=    30.00 Ry     beta=0.70
     Davidson diagonalization with overlap
     ethr =  6.32E-03,  avg # of iterations =  1.0

     negative rho (up, down):  1.228E-03 0.000E+00

     total cpu time spent up to now is        0.6 secs

     total energy              =     -31.81593228 Ry
     Harris-Foulkes estimate   =     -31.86658562 Ry
     estimated scf accuracy    <       0.84874526 Ry

     iteration #  6     ecut=    30.00 Ry     beta=0.70
     Davidson diagonalization with overlap
     ethr =  6.32E-03,  avg # of iterations =  1.0

     negative rho (up, down):  7.246E-04 0.000E+00

     total cpu time spent up to now is        0.6 secs

     total energy              =     -31.83368942 Ry
     Harris-Foulkes estimate   =     -31.84213887 Ry
     estimated scf accuracy    <       0.15768416 Ry

     iteration #  7     ecut=    30.00 Ry     beta=0.70
     Davidson diagonalization with overlap
     ethr =  1.97E-03,  avg # of iterations =  1.0

     negative rho (up, down):  2.270E-04 0.000E+00

     total cpu time spent up to now is        0.7 secs

     total energy              =     -31.82918092 Ry
     Harris-Foulkes estimate   =     -31.84245183 Ry
     estimated scf accuracy    <       0.14532684 Ry

     iteration #  8     ecut=    30.00 Ry     beta=0.70
     Davidson diagonalization with overlap
     ethr =  1.82E-03,  avg # of iterations =  1.0

     total cpu time spent up to now is        0.7 secs

     total energy              =     -31.81742891 Ry
     Harris-Foulkes estimate   =     -31.85154934 Ry
     estimated scf accuracy    <       0.80867779 Ry

     iteration #  9     ecut=    30.00 Ry     beta=0.70
     Davidson diagonalization with overlap
     ethr =  1.82E-03,  avg # of iterations =  1.0

     negative rho (up, down):  2.069E-08 0.000E+00

     total cpu time spent up to now is        0.8 secs

     total energy              =     -31.83958368 Ry
     Harris-Foulkes estimate   =     -31.84356293 Ry
     estimated scf accuracy    <       0.20480413 Ry

     iteration # 10     ecut=    30.00 Ry     beta=0.70
     Davidson diagonalization with overlap
     ethr =  1.82E-03,  avg # of iterations =  1.0

     negative rho (up, down):  9.930E-07 0.000E+00

     total cpu time spent up to now is        0.8 secs

     total energy              =     -31.83941543 Ry
     Harris-Foulkes estimate   =     -31.84072687 Ry
     estimated scf accuracy    <       0.03243769 Ry

     iteration # 11     ecut=    30.00 Ry     beta=0.70
     Davidson diagonalization with overlap
     ethr =  4.05E-04,  avg # of iterations =  1.0

     total cpu time spent up to now is        0.9 secs

     total energy              =     -31.83978576 Ry
     Harris-Foulkes estimate   =     -31.84035914 Ry
     estimated scf accuracy    <       0.00716612 Ry

     iteration # 12     ecut=    30.00 Ry     beta=0.70
     Davidson diagonalization with overlap
     ethr =  8.96E-05,  avg # of iterations =  7.0

     total cpu time spent up to now is        0.9 secs

     total energy              =     -31.84005992 Ry
     Harris-Foulkes estimate   =     -31.84065420 Ry
     estimated scf accuracy    <       0.02742364 Ry

     iteration # 13     ecut=    30.00 Ry     beta=0.70
     Davidson diagonalization with overlap
     ethr =  8.96E-05,  avg # of iterations =  1.0

     total cpu time spent up to now is        1.0 secs

     total energy              =     -31.84025205 Ry
     Harris-Foulkes estimate   =     -31.84028399 Ry
     estimated scf accuracy    <       0.00147071 Ry

     iteration # 14     ecut=    30.00 Ry     beta=0.70
     Davidson diagonalization with overlap
     ethr =  1.84E-05,  avg # of iterations =  1.0

     total cpu time spent up to now is        1.0 secs

     total energy              =     -31.84026308 Ry
     Harris-Foulkes estimate   =     -31.84026456 Ry
     estimated scf accuracy    <       0.00006561 Ry

     iteration # 15     ecut=    30.00 Ry     beta=0.70
     Davidson diagonalization with overlap
     ethr =  8.20E-07,  avg # of iterations =  3.0

     total cpu time spent up to now is        1.1 secs

     total energy              =     -31.84026385 Ry
     Harris-Foulkes estimate   =     -31.84026384 Ry
     estimated scf accuracy    <       0.00000043 Ry

     iteration # 16     ecut=    30.00 Ry     beta=0.70
     Davidson diagonalization with overlap
     ethr =  5.40E-09,  avg # of iterations =  1.0

     total cpu time spent up to now is        1.1 secs

     total energy              =     -31.84026388 Ry
     Harris-Foulkes estimate   =     -31.84026385 Ry
     estimated scf accuracy    <       0.00000001 Ry

     iteration # 17     ecut=    30.00 Ry     beta=0.70
     Davidson diagonalization with overlap
     ethr =  1.28E-10,  avg # of iterations =  1.0

     total cpu time spent up to now is        1.2 secs

     total energy              =     -31.84026428 Ry
     Harris-Foulkes estimate   =     -31.84026389 Ry
     estimated scf accuracy    <       0.00000053 Ry

     iteration # 18     ecut=    30.00 Ry     beta=0.70
     Davidson diagonalization with overlap
     ethr =  1.28E-10,  avg # of iterations =  3.0

     total cpu time spent up to now is        1.2 secs

     total energy              =     -31.84026425 Ry
     Harris-Foulkes estimate   =     -31.84026432 Ry
     estimated scf accuracy    <       0.00000301 Ry

     iteration # 19     ecut=    30.00 Ry     beta=0.70
     Davidson diagonalization with overlap
     ethr =  1.28E-10,  avg # of iterations =  2.0

     total cpu time spent up to now is        1.3 secs

     total energy              =     -31.84026403 Ry
     Harris-Foulkes estimate   =     -31.84026427 Ry
     estimated scf accuracy    <       0.00000053 Ry

     iteration # 20     ecut=    30.00 Ry     beta=0.70
     Davidson diagonalization with overlap
     ethr =  1.28E-10,  avg # of iterations =  2.0

     total cpu time spent up to now is        1.3 secs

     total energy              =     -31.84026398 Ry
     Harris-Foulkes estimate   =     -31.84026403 Ry
     estimated scf accuracy    <       0.00000015 Ry

     iteration # 21     ecut=    30.00 Ry     beta=0.70
     Davidson diagonalization with overlap
     ethr =  1.28E-10,  avg # of iterations =  1.0

     total cpu time spent up to now is        1.4 secs

     End of self-consistent calculation

          k = 0.0000 0.0000 0.0000 ( 22119 PWs)   bands (ev):

   -26.2637 -11.1655  -7.2500  -7.2457  -7.0988  -0.4276   0.4060   0.7672

     the Fermi energy is    -7.0742 ev

!    total energy              =     -31.84026400 Ry
     Harris-Foulkes estimate   =     -31.84026398 Ry
     estimated scf accuracy    <          7.0E-09 Ry

     convergence has been achieved in  21 iterations

     Forces acting on atoms (Ry/au):

     atom    1 type  2   force =    -0.26918355   -0.17767373   -0.52766275
     atom    2 type  1   force =     0.00034315    0.00042568    0.00054671
     atom    3 type  1   force =     0.26884040    0.17724805    0.52711604

     Total force =     0.874071     Total SCF correction =     0.000049

     Molecular Dynamics Calculation

     Starting temperature  =  1000.00 K

     temperature is controlled by Andersen thermostat
     Collision frequency = 1.0000/timestep
     mass H                =     1.01
     mass O                =    16.00
     Time step             =   100.00 a.u.,  4.8378 femto-seconds

     Entering Dynamics:    iteration =     1
                           time      =   0.0048 pico-seconds


     Andersen thermostat:    3 collisions

ATOMIC_POSITIONS (bohr)
O        5.368979853  12.352976037  13.900160004
H        5.972978492  14.315960244   1.972696485
H        7.826697532  13.780478762  18.776801952


     kinetic energy (Ekin) =     0.01337019 Ry
     temperature           =   703.66124461 K 
     Ekin + Etot (const)   =   -31.82689380 Ry

     Linear momentum :   -0.0000000000   -0.0000000000   -0.0000000000

     Writing output data file pwscf.save
     Check: negative starting charge=   -0.348766
     NEW-OLD atomic charge density approx. for the potential
     Check: negative starting charge=   -0.349845

     negative rho (up, down):  4.820E-01 0.000E+00

     total cpu time spent up to now is        1.8 secs

     per-process dynamical memory:    20.4 Mb

     Self-consistent Calculation

     iteration #  1     ecut=    30.00 Ry     beta=0.70
     Davidson diagonalization with overlap
     c_bands:  1 eigenvalues not converged
     ethr =  1.00E-06,  avg # of iterations = 20.0

     negative rho (up, down):  1.165E-01 0.000E+00

     total cpu time spent up to now is        2.1 secs

     total energy              =      -4.50954690 Ry
     Harris-Foulkes estimate   =     -41.50436439 Ry
     estimated scf accuracy    <      11.60117907 Ry

     iteration #  2     ecut=    30.00 Ry     beta=0.70
     Davidson diagonalization with overlap
     ethr =  1.00E-02,  avg # of iterations =  4.0

     negative rho (up, down):  7.887E-02 0.000E+00

     total cpu time spent up to now is        2.1 secs

     total energy              =     -32.23969259 Ry
     Harris-Foulkes estimate   =     -40.13848404 Ry
     estimated scf accuracy    <      17.09067559 Ry

     iteration #  3     ecut=    30.00 Ry     beta=0.70
     Davidson diagonalization with overlap
     ethr =  1.00E-02,  avg # of iterations =  3.0

     negative rho (up, down):  5.970E-02 0.000E+00

     total cpu time spent up to now is        2.2 secs

     total energy              =     -32.34089154 Ry
     Harris-Foulkes estimate   =     -33.26225196 Ry
     estimated scf accuracy    <       3.17248080 Ry

     iteration #  4     ecut=    30.00 Ry     beta=0.70
     Davidson diagonalization with overlap
     ethr =  1.00E-02,  avg # of iterations =  1.0

     negative rho (up, down):  4.618E-02 0.000E+00

     total cpu time spent up to now is        2.3 secs

     total energy              =     -31.70815275 Ry
     Harris-Foulkes estimate   =     -32.68552669 Ry
     estimated scf accuracy    <       5.02950866 Ry

     iteration #  5     ecut=    30.00 Ry     beta=0.70
     Davidson diagonalization with overlap
     ethr =  1.00E-02,  avg # of iterations =  1.0

     negative rho (up, down):  4.251E-02 0.000E+00

     total cpu time spent up to now is        2.3 secs

     total energy              =     -32.00180329 Ry
     Harris-Foulkes estimate   =     -32.11735968 Ry
     estimated scf accuracy    <       1.14353342 Ry

     iteration #  6     ecut=    30.00 Ry     beta=0.70
     Davidson diagonalization with overlap
     ethr =  1.00E-02,  avg # of iterations =  1.0

     negative rho (up, down):  2.299E-02 0.000E+00

     total cpu time spent up to now is        2.3 secs

     total energy              =     -31.65707557 Ry
     Harris-Foulkes estimate   =     -32.02262022 Ry
     estimated scf accuracy    <       0.95636722 Ry

     iteration #  7     ecut=    30.00 Ry     beta=0.70
     Davidson diagonalization with overlap
     ethr =  1.00E-02,  avg # of iterations =  1.0

     negative rho (up, down):  2.848E-02 0.000E+00

     total cpu time spent up to now is        2.4 secs

     total energy              =     -31.75468201 Ry
     Harris-Foulkes estimate   =     -31.70300601 Ry
     estimated scf accuracy    <       0.30440254 Ry

     iteration #  8     ecut=    30.00 Ry     beta=0.70
     Davidson diagonalization with overlap
     ethr =  3.81E-03,  avg # of iterations =  1.0

     negative rho (up, down):  7.811E-03 0.000E+00

     total cpu time spent up to now is        2.4 secs

     total energy              =     -31.59202621 Ry
     Harris-Foulkes estimate   =     -31.78004323 Ry
     estimated scf accuracy    <       0.59315915 Ry

     iteration #  9     ecut=    30.00 Ry     beta=0.70
     Davidson diagonalization with overlap
     ethr =  3.81E-03,  avg # of iterations =  1.0

     negative rho (up, down):  7.567E-03 0.000E+00

     total cpu time spent up to now is        2.5 secs

     total energy              =     -31.62097263 Ry
     Harris-Foulkes estimate   =     -31.63931312 Ry
     estimated scf accuracy    <       0.31347119 Ry

     iteration # 10     ecut=    30.00 Ry     beta=0.70
     Davidson diagonalization with overlap
     ethr =  3.81E-03,  avg # of iterations =  1.0

     negative rho (up, down):  4.508E-07 0.000E+00

     total cpu time spent up to now is        2.5 secs

     total energy              =     -31.62758681 Ry
     Harris-Foulkes estimate   =     -31.63402890 Ry
     estimated scf accuracy    <       0.13381944 Ry

     iteration # 11     ecut=    30.00 Ry     beta=0.70
     Davidson diagonalization with overlap
     ethr =  1.67E-03,  avg # of iterations =  1.0

     negative rho (up, down):  2.691E-07 0.000E+00

     total cpu time spent up to now is        2.6 secs

     total energy              =     -31.63700916 Ry
     Harris-Foulkes estimate   =     -31.63874393 Ry
     estimated scf accuracy    <       0.02056000 Ry

     iteration # 12     ecut=    30.00 Ry     beta=0.70
     Davidson diagonalization with overlap
     ethr =  2.57E-04,  avg # of iterations =  7.0

     negative rho (up, down):  3.489E-08 0.000E+00

     total cpu time spent up to now is        2.6 secs

     total energy              =     -31.63722289 Ry
     Harris-Foulkes estimate   =     -31.63798406 Ry
     estimated scf accuracy    <       0.00958374 Ry

     iteration # 13     ecut=    30.00 Ry     beta=0.70
     Davidson diagonalization with overlap
     ethr =  1.20E-04,  avg # of iterations =  1.0

     total cpu time spent up to now is        2.7 secs

     total energy              =     -31.63657137 Ry
     Harris-Foulkes estimate   =     -31.63791988 Ry
     estimated scf accuracy    <       0.01181142 Ry

     iteration # 14     ecut=    30.00 Ry     beta=0.70
     Davidson diagonalization with overlap
     ethr =  1.20E-04,  avg # of iterations =  1.0

     negative rho (up, down):  5.834E-08 0.000E+00

     total cpu time spent up to now is        2.7 secs

     total energy              =     -31.63692181 Ry
     Harris-Foulkes estimate   =     -31.63711855 Ry
     estimated scf accuracy    <       0.00267206 Ry

     iteration # 15     ecut=    30.00 Ry     beta=0.70
     Davidson diagonalization with overlap
     ethr =  3.34E-05,  avg # of iterations =  1.0

     total cpu time spent up to now is        2.8 secs

     total energy              =     -31.63687359 Ry
     Harris-Foulkes estimate   =     -31.63696972 Ry
     estimated scf accuracy    <       0.00156803 Ry

     iteration # 16     ecut=    30.00 Ry     beta=0.70
     Davidson diagonalization with overlap
     ethr =  1.96E-05,  avg # of iterations =  1.0

     total cpu time spent up to now is        2.8 secs

     total energy              =     -31.63682191 Ry
     Harris-Foulkes estimate   =     -31.63689246 Ry
     estimated scf accuracy    <       0.00057466 Ry

     iteration # 17     ecut=    30.00 Ry     beta=0.70
     Davidson diagonalization with overlap
     ethr =  7.18E-06,  avg # of iterations =  3.0

     total cpu time spent up to now is        2.9 secs

     total energy              =     -31.63685561 Ry
     Harris-Foulkes estimate   =     -31.63685639 Ry
     estimated scf accuracy    <       0.00000985 Ry

     iteration # 18     ecut=    30.00 Ry     beta=0.70
     Davidson diagonalization with overlap
     ethr =  1.23E-07,  avg # of iterations =  1.0

     total cpu time spent up to now is        2.9 secs

     total energy              =     -31.63685325 Ry
     Harris-Foulkes estimate   =     -31.63685731 Ry
     estimated scf accuracy    <       0.00003889 Ry

     iteration # 19     ecut=    30.00 Ry     beta=0.70
     Davidson diagonalization with overlap
     ethr =  1.23E-07,  avg # of iterations =  1.0

     total cpu time spent up to now is        3.0 secs

     total energy              =     -31.63685478 Ry
     Harris-Foulkes estimate   =     -31.63685501 Ry
     estimated scf accuracy    <       0.00000029 Ry

     iteration # 20     ecut=    30.00 Ry     beta=0.70
     Davidson diagonalization with overlap
     ethr =  3.58E-09,  avg # of iterations =  2.0

     total cpu time spent up to now is        3.0 secs

     total energy              =     -31.63685451 Ry
     Harris-Foulkes estimate   =     -31.63685511 Ry
     estimated scf accuracy    <       0.00000392 Ry

     iteration # 21     ecut=    30.00 Ry     beta=0.70
     Davidson diagonalization with overlap
     ethr =  3.58E-09,  avg # of iterations =  1.0

     total cpu time spent up to now is        3.1 secs

     total energy              =     -31.63685480 Ry
     Harris-Foulkes estimate   =     -31.63685486 Ry
     estimated scf accuracy    <       0.00000037 Ry

     iteration # 22     ecut=    30.00 Ry     beta=0.70
     Davidson diagonalization with overlap
     ethr =  3.58E-09,  avg # of iterations =  1.0

     total cpu time spent up to now is        3.1 secs

     total energy              =     -31.63685480 Ry
     Harris-Foulkes estimate   =     -31.63685483 Ry
     estimated scf accuracy    <       0.00000004 Ry

     iteration # 23     ecut=    30.00 Ry     beta=0.70
     Davidson diagonalization with overlap
     ethr =  4.60E-10,  avg # of iterations =  1.0

     total cpu time spent up to now is        3.2 secs

     total energy              =     -31.63685481 Ry
     Harris-Foulkes estimate   =     -31.63685481 Ry
     estimated scf accuracy    <       0.00000001 Ry

     iteration # 24     ecut=    30.00 Ry     beta=0.70
     Davidson diagonalization with overlap
     ethr =  1.77E-10,  avg # of iterations =  1.0

     total cpu time spent up to now is        3.2 secs

     End of self-consistent calculation

          k = 0.0000 0.0000 0.0000 ( 22119 PWs)   bands (ev):

   -24.1841  -7.9934  -7.5461  -7.5460  -7.4825  -5.2385  -0.2203   0.6072

     the Fermi energy is    -7.4120 ev

!    total energy              =     -31.63685479 Ry
     Harris-Foulkes estimate   =     -31.63685481 Ry
     estimated scf accuracy    <          2.2E-09 Ry

     convergence has been achieved in  24 iterations

     Forces acting on atoms (Ry/au):

     atom    1 type  2   force =     0.00754318    0.00419828    0.01355767
     atom    2 type  1   force =     0.04535273   -0.01343618   -0.07905408
     atom    3 type  1   force =    -0.05289590    0.00923790    0.06549642

     Total force =     0.126168     Total SCF correction =     0.000016

     Entering Dynamics:    iteration =     2
                           time      =   0.0097 pico-seconds


     Andersen thermostat:    3 collisions

ATOMIC_POSITIONS (bohr)
O        5.376661990  12.340176383  13.905359527
H        6.509439834  14.044458605   1.258064742
H        7.168538985  14.254747204  19.409065025


     kinetic energy (Ekin) =     0.02977382 Ry
     temperature           =  1566.96966579 K 
     Ekin + Etot (const)   =   -31.60708096 Ry
     Message from routine dynamics:
     Total linear momentum <> 0

     Linear momentum :    0.0316409203    0.3676783473    0.1781879288

     Writing output data file pwscf.save

     first order wave-functions extrapolation
     Message from extrapolate_wfcs: 
     the matrix <psi(t-dt)|psi(t)> has  1 small (< 0.1) eigenvalues
     Check: negative starting charge=   -0.349845
     first order charge density extrapolation
     Check: negative starting charge=   -0.354528

     negative rho (up, down):  5.329E-01 0.000E+00

     total cpu time spent up to now is        3.7 secs

     per-process dynamical memory:    20.4 Mb

     Self-consistent Calculation

     iteration #  1     ecut=    30.00 Ry     beta=0.70
     Davidson diagonalization with overlap
     ethr =  1.00E-06,  avg # of iterations = 12.0

     negative rho (up, down):  1.278E-01 0.000E+00

     total cpu time spent up to now is        4.0 secs

     total energy              =      28.65389554 Ry
     Harris-Foulkes estimate   =     -60.92436706 Ry
     estimated scf accuracy    <      20.27048635 Ry

     iteration #  2     ecut=    30.00 Ry     beta=0.70
     Davidson diagonalization with overlap
     ethr =  1.00E-02,  avg # of iterations =  7.0

     negative rho (up, down):  8.262E-02 0.000E+00

     total cpu time spent up to now is        4.1 secs

     total energy              =     -32.56281129 Ry
     Harris-Foulkes estimate   =     -43.28786702 Ry
     estimated scf accuracy    <      21.43991744 Ry

     iteration #  3     ecut=    30.00 Ry     beta=0.70
     Davidson diagonalization with overlap
     ethr =  1.00E-02,  avg # of iterations =  3.0

     negative rho (up, down):  5.856E-02 0.000E+00

     total cpu time spent up to now is        4.1 secs

     total energy              =     -33.43479040 Ry
     Harris-Foulkes estimate   =     -35.66875043 Ry
     estimated scf accuracy    <       6.41199065 Ry

     iteration #  4     ecut=    30.00 Ry     beta=0.70
     Davidson diagonalization with overlap
     ethr =  1.00E-02,  avg # of iterations =  2.0

     negative rho (up, down):  4.498E-02 0.000E+00

     total cpu time spent up to now is        4.2 secs

     total energy              =     -32.75279892 Ry
     Harris-Foulkes estimate   =     -33.68077463 Ry
     estimated scf accuracy    <       3.34078304 Ry

     iteration #  5     ecut=    30.00 Ry     beta=0.70
     Davidson diagonalization with overlap
     ethr =  1.00E-02,  avg # of iterations =  1.0

     negative rho (up, down):  2.241E-02 0.000E+00

     total cpu time spent up to now is        4.2 secs

     total energy              =     -31.89908092 Ry
     Harris-Foulkes estimate   =     -32.77541284 Ry
     estimated scf accuracy    <       1.93468336 Ry

     iteration #  6     ecut=    30.00 Ry     beta=0.70
     Davidson diagonalization with overlap
     ethr =  1.00E-02,  avg # of iterations =  2.0

     negative rho (up, down):  2.226E-02 0.000E+00

     total cpu time spent up to now is        4.3 secs

     total energy              =     -31.73404803 Ry
     Harris-Foulkes estimate   =     -32.05926171 Ry
     estimated scf accuracy    <       4.51029470 Ry

     iteration #  7     ecut=    30.00 Ry     beta=0.70
     Davidson diagonalization with overlap
     ethr =  1.00E-02,  avg # of iterations =  1.0

     negative rho (up, down):  2.179E-02 0.000E+00

     total cpu time spent up to now is        4.3 secs

     total energy              =     -32.00023595 Ry
     Harris-Foulkes estimate   =     -31.95061442 Ry
     estimated scf accuracy    <       0.40052281 Ry

     iteration #  8     ecut=    30.00 Ry     beta=0.70
     Davidson diagonalization with overlap
     ethr =  5.01E-03,  avg # of iterations =  1.0

     negative rho (up, down):  1.424E-02 0.000E+00

     total cpu time spent up to now is        4.4 secs

     total energy              =     -31.89936408 Ry
     Harris-Foulkes estimate   =     -32.00465603 Ry
     estimated scf accuracy    <       0.51801089 Ry

     iteration #  9     ecut=    30.00 Ry     beta=0.70
     Davidson diagonalization with overlap
     ethr =  5.01E-03,  avg # of iterations =  1.0

     negative rho (up, down):  1.328E-02 0.000E+00

     total cpu time spent up to now is        4.4 secs

     total energy              =     -31.88531952 Ry
     Harris-Foulkes estimate   =     -31.91545426 Ry
     estimated scf accuracy    <       0.23646776 Ry

     iteration # 10     ecut=    30.00 Ry     beta=0.70
     Davidson diagonalization with overlap
     ethr =  2.96E-03,  avg # of iterations =  1.0

     negative rho (up, down):  5.545E-05 0.000E+00

     total cpu time spent up to now is        4.5 secs

     total energy              =     -31.87793469 Ry
     Harris-Foulkes estimate   =     -31.88740607 Ry
     estimated scf accuracy    <       0.18843063 Ry

     iteration # 11     ecut=    30.00 Ry     beta=0.70
     Davidson diagonalization with overlap
     ethr =  2.36E-03,  avg # of iterations =  1.0

     negative rho (up, down):  2.088E-05 0.000E+00

     total cpu time spent up to now is        4.5 secs

     total energy              =     -31.90448903 Ry
     Harris-Foulkes estimate   =     -31.92247569 Ry
     estimated scf accuracy    <       0.23519506 Ry

     iteration # 12     ecut=    30.00 Ry     beta=0.70
     Davidson diagonalization with overlap
     ethr =  2.36E-03,  avg # of iterations =  1.0

     negative rho (up, down):  6.205E-05 0.000E+00

     total cpu time spent up to now is        4.6 secs

     total energy              =     -31.86441452 Ry
     Harris-Foulkes estimate   =     -31.90611398 Ry
     estimated scf accuracy    <       0.16735267 Ry

     iteration # 13     ecut=    30.00 Ry     beta=0.70
     Davidson diagonalization with overlap
     ethr =  2.09E-03,  avg # of iterations =  1.0

     negative rho (up, down):  3.987E-06 0.000E+00

     total cpu time spent up to now is        4.6 secs

     total energy              =     -31.83864274 Ry
     Harris-Foulkes estimate   =     -32.05631898 Ry
     estimated scf accuracy    <       3.97540623 Ry

     iteration # 14     ecut=    30.00 Ry     beta=0.70
     Davidson diagonalization with overlap
     ethr =  2.09E-03,  avg # of iterations =  1.0

     negative rho (up, down):  8.840E-06 0.000E+00

     total cpu time spent up to now is        4.7 secs

     total energy              =     -31.90298884 Ry
     Harris-Foulkes estimate   =     -31.88898029 Ry
     estimated scf accuracy    <       0.14496663 Ry

     iteration # 15     ecut=    30.00 Ry     beta=0.70
     Davidson diagonalization with overlap
     ethr =  1.81E-03,  avg # of iterations =  1.0

     negative rho (up, down):  2.692E-05 0.000E+00

     total cpu time spent up to now is        4.7 secs

     total energy              =     -32.17775397 Ry
     Harris-Foulkes estimate   =     -31.95686855 Ry
     estimated scf accuracy    <       3.47616836 Ry

     iteration # 16     ecut=    30.00 Ry     beta=0.70
     Davidson diagonalization with overlap
     ethr =  1.81E-03,  avg # of iterations =  1.0

     negative rho (up, down):  3.907E-05 0.000E+00

     total cpu time spent up to now is        4.8 secs

     total energy              =     -31.85991174 Ry
     Harris-Foulkes estimate   =     -32.18866058 Ry
     estimated scf accuracy    <       4.22473741 Ry

     iteration # 17     ecut=    30.00 Ry     beta=0.70
     Davidson diagonalization with overlap
     ethr =  1.81E-03,  avg # of iterations =  1.0

     negative rho (up, down):  3.488E-07 0.000E+00

     total cpu time spent up to now is        4.8 secs

     total energy              =     -31.81228415 Ry
     Harris-Foulkes estimate   =     -31.89154369 Ry
     estimated scf accuracy    <       0.47038142 Ry

     iteration # 18     ecut=    30.00 Ry     beta=0.70
     Davidson diagonalization with overlap
     ethr =  1.81E-03,  avg # of iterations =  1.0

     negative rho (up, down):  2.144E-07 0.000E+00

     total cpu time spent up to now is        4.8 secs

     total energy              =     -31.88401327 Ry
     Harris-Foulkes estimate   =     -31.88606559 Ry
     estimated scf accuracy    <       0.00620258 Ry

     iteration # 19     ecut=    30.00 Ry     beta=0.70
     Davidson diagonalization with overlap
     ethr =  7.75E-05,  avg # of iterations =  9.0

     total cpu time spent up to now is        4.9 secs

     total energy              =     -31.88562825 Ry
     Harris-Foulkes estimate   =     -31.88452589 Ry
     estimated scf accuracy    <       0.00221221 Ry

     iteration # 20     ecut=    30.00 Ry     beta=0.70
     Davidson diagonalization with overlap
     ethr =  2.77E-05,  avg # of iterations =  2.0

     total cpu time spent up to now is        5.0 secs

     total energy              =     -31.88730714 Ry
     Harris-Foulkes estimate   =     -31.88586734 Ry
     estimated scf accuracy    <       0.00382150 Ry

     iteration # 21     ecut=    30.00 Ry     beta=0.70
     Davidson diagonalization with overlap
     ethr =  2.77E-05,  avg # of iterations =  1.0

     total cpu time spent up to now is        5.0 secs

     total energy              =     -31.88611748 Ry
     Harris-Foulkes estimate   =     -31.88741993 Ry
     estimated scf accuracy    <       0.00653667 Ry

     iteration # 22     ecut=    30.00 Ry     beta=0.70
     Davidson diagonalization with overlap
     ethr =  2.77E-05,  avg # of iterations =  1.0

     total cpu time spent up to now is        5.1 secs

     total energy              =     -31.88619001 Ry
     Harris-Foulkes estimate   =     -31.88616565 Ry
     estimated scf accuracy    <       0.00441720 Ry

     iteration # 23     ecut=    30.00 Ry     beta=0.70
     Davidson diagonalization with overlap
     ethr =  2.77E-05,  avg # of iterations =  1.0

     total cpu time spent up to now is        5.1 secs

     total energy              =     -31.88587234 Ry
     Harris-Foulkes estimate   =     -31.88619436 Ry
     estimated scf accuracy    <       0.00437071 Ry

     iteration # 24     ecut=    30.00 Ry     beta=0.70
     Davidson diagonalization with overlap
     ethr =  2.77E-05,  avg # of iterations =  1.0

     total cpu time spent up to now is        5.1 secs

     total energy              =     -31.88562817 Ry
     Harris-Foulkes estimate   =     -31.88587614 Ry
     estimated scf accuracy    <       0.00381870 Ry

     iteration # 25     ecut=    30.00 Ry     beta=0.70
     Davidson diagonalization with overlap
     ethr =  2.77E-05,  avg # of iterations =  1.0

     total cpu time spent up to now is        5.2 secs

     total energy              =     -31.88344055 Ry
     Harris-Foulkes estimate   =     -31.88563101 Ry
     estimated scf accuracy    <       0.00338204 Ry

     iteration # 26     ecut=    30.00 Ry     beta=0.70
     Davidson diagonalization with overlap
     ethr =  2.77E-05,  avg # of iterations =  2.0

     total cpu time spent up to now is        5.2 secs

     total energy              =     -31.88382383 Ry
     Harris-Foulkes estimate   =     -31.88390393 Ry
     estimated scf accuracy    <       0.00013755 Ry

     iteration # 27     ecut=    30.00 Ry     beta=0.70
     Davidson diagonalization with overlap
     ethr =  1.72E-06,  avg # of iterations =  8.0

     total cpu time spent up to now is        5.3 secs

     total energy              =     -31.88378026 Ry
     Harris-Foulkes estimate   =     -31.88381858 Ry
     estimated scf accuracy    <       0.00005606 Ry

     iteration # 28     ecut=    30.00 Ry     beta=0.70
     Davidson diagonalization with overlap
     ethr =  7.01E-07,  avg # of iterations =  2.0

     total cpu time spent up to now is        5.4 secs

     total energy              =     -31.88352388 Ry
     Harris-Foulkes estimate   =     -31.88373770 Ry
     estimated scf accuracy    <       0.00025421 Ry

     iteration # 29     ecut=    30.00 Ry     beta=0.70
     Davidson diagonalization with overlap
     ethr =  7.01E-07,  avg # of iterations =  4.0

     total cpu time spent up to now is        5.4 secs

     total energy              =     -31.88304103 Ry
     Harris-Foulkes estimate   =     -31.88294887 Ry
     estimated scf accuracy    <       0.00021358 Ry

     iteration # 30     ecut=    30.00 Ry     beta=0.70
     Davidson diagonalization with overlap
     ethr =  7.01E-07,  avg # of iterations =  1.0

     total cpu time spent up to now is        5.5 secs

     total energy              =     -31.88400519 Ry
     Harris-Foulkes estimate   =     -31.88313949 Ry
     estimated scf accuracy    <       0.00191996 Ry

     iteration # 31     ecut=    30.00 Ry     beta=0.70
     Davidson diagonalization with overlap
     ethr =  7.01E-07,  avg # of iterations =  3.0

     total cpu time spent up to now is        5.5 secs

     total energy              =     -31.88399191 Ry
     Harris-Foulkes estimate   =     -31.88374475 Ry
     estimated scf accuracy    <       0.00022495 Ry

     iteration # 32     ecut=    30.00 Ry     beta=0.70
     Davidson diagonalization with overlap
     ethr =  7.01E-07,  avg # of iterations =  2.0

     total cpu time spent up to now is        5.6 secs

     total energy              =     -31.88383201 Ry
     Harris-Foulkes estimate   =     -31.88385079 Ry
     estimated scf accuracy    <       0.00003378 Ry

     iteration # 33     ecut=    30.00 Ry     beta=0.70
     Davidson diagonalization with overlap
     ethr =  4.22E-07,  avg # of iterations =  1.0

     total cpu time spent up to now is        5.6 secs

     total energy              =     -31.88380563 Ry
     Harris-Foulkes estimate   =     -31.88382836 Ry
     estimated scf accuracy    <       0.00003226 Ry

     iteration # 34     ecut=    30.00 Ry     beta=0.70
     Davidson diagonalization with overlap
     ethr =  4.03E-07,  avg # of iterations =  2.0

     total cpu time spent up to now is        5.7 secs

     total energy              =     -31.88380793 Ry
     Harris-Foulkes estimate   =     -31.88378989 Ry
     estimated scf accuracy    <       0.00008576 Ry

     iteration # 35     ecut=    30.00 Ry     beta=0.70
     Davidson diagonalization with overlap
     ethr =  4.03E-07,  avg # of iterations =  1.0

     total cpu time spent up to now is        5.7 secs

     total energy              =     -31.88380544 Ry
     Harris-Foulkes estimate   =     -31.88380521 Ry
     estimated scf accuracy    <       0.00005521 Ry

     iteration # 36     ecut=    30.00 Ry     beta=0.70
     Davidson diagonalization with overlap
     ethr =  4.03E-07,  avg # of iterations =  1.0

     total cpu time spent up to now is        5.8 secs

     total energy              =     -31.88380436 Ry
     Harris-Foulkes estimate   =     -31.88380545 Ry
     estimated scf accuracy    <       0.00005501 Ry

     iteration # 37     ecut=    30.00 Ry     beta=0.70
     Davidson diagonalization with overlap
     ethr =  4.03E-07,  avg # of iterations =  1.0

     total cpu time spent up to now is        5.8 secs

     total energy              =     -31.88379711 Ry
     Harris-Foulkes estimate   =     -31.88380434 Ry
     estimated scf accuracy    <       0.00005714 Ry

     iteration # 38     ecut=    30.00 Ry     beta=0.70
     Davidson diagonalization with overlap
     ethr =  4.03E-07,  avg # of iterations =  1.0

     total cpu time spent up to now is        5.9 secs

     total energy              =     -31.88388674 Ry
     Harris-Foulkes estimate   =     -31.88379638 Ry
     estimated scf accuracy    <       0.00007199 Ry

     iteration # 39     ecut=    30.00 Ry     beta=0.70
     Davidson diagonalization with overlap
     ethr =  4.03E-07,  avg # of iterations =  2.0

     total cpu time spent up to now is        5.9 secs

     total energy              =     -31.88385074 Ry
     Harris-Foulkes estimate   =     -31.88384855 Ry
     estimated scf accuracy    <       0.00003247 Ry

     iteration # 40     ecut=    30.00 Ry     beta=0.70
     Davidson diagonalization with overlap
     ethr =  4.03E-07,  avg # of iterations =  1.0

     total cpu time spent up to now is        6.0 secs

     total energy              =     -31.88384890 Ry
     Harris-Foulkes estimate   =     -31.88385072 Ry
     estimated scf accuracy    <       0.00003342 Ry

     iteration # 41     ecut=    30.00 Ry     beta=0.70
     Davidson diagonalization with overlap
     ethr =  4.03E-07,  avg # of iterations =  1.0

     total cpu time spent up to now is        6.0 secs

     total energy              =     -31.88392107 Ry
     Harris-Foulkes estimate   =     -31.88384888 Ry
     estimated scf accuracy    <       0.00003275 Ry

     iteration # 42     ecut=    30.00 Ry     beta=0.70
     Davidson diagonalization with overlap
     ethr =  4.03E-07,  avg # of iterations =  2.0

     total cpu time spent up to now is        6.1 secs

     total energy              =     -31.88396735 Ry
     Harris-Foulkes estimate   =     -31.88391798 Ry
     estimated scf accuracy    <       0.00012047 Ry

     iteration # 43     ecut=    30.00 Ry     beta=0.70
     Davidson diagonalization with overlap
     ethr =  4.03E-07,  avg # of iterations =  1.0

     total cpu time spent up to now is        6.1 secs

     total energy              =     -31.88382673 Ry
     Harris-Foulkes estimate   =     -31.88396986 Ry
     estimated scf accuracy    <       0.00021477 Ry

     iteration # 44     ecut=    30.00 Ry     beta=0.70
     Davidson diagonalization with overlap
     ethr =  4.03E-07,  avg # of iterations =  2.0

     total cpu time spent up to now is        6.2 secs

     total energy              =     -31.88382920 Ry
     Harris-Foulkes estimate   =     -31.88384610 Ry
     estimated scf accuracy    <       0.00003159 Ry

     iteration # 45     ecut=    30.00 Ry     beta=0.70
     Davidson diagonalization with overlap
     ethr =  3.95E-07,  avg # of iterations =  1.0

     total cpu time spent up to now is        6.3 secs

     total energy              =     -31.88380258 Ry
     Harris-Foulkes estimate   =     -31.88382548 Ry
     estimated scf accuracy    <       0.00003370 Ry

     iteration # 46     ecut=    30.00 Ry     beta=0.70
     Davidson diagonalization with overlap
     ethr =  3.95E-07,  avg # of iterations =  2.0

     total cpu time spent up to now is        6.3 secs

     total energy              =     -31.88378476 Ry
     Harris-Foulkes estimate   =     -31.88378651 Ry
     estimated scf accuracy    <       0.00009390 Ry

     iteration # 47     ecut=    30.00 Ry     beta=0.70
     Davidson diagonalization with overlap
     ethr =  3.95E-07,  avg # of iterations =  1.0

     total cpu time spent up to now is        6.4 secs

     total energy              =     -31.88377782 Ry
     Harris-Foulkes estimate   =     -31.88378474 Ry
     estimated scf accuracy    <       0.00009857 Ry

     iteration # 48     ecut=    30.00 Ry     beta=0.70
     Davidson diagonalization with overlap
     ethr =  3.95E-07,  avg # of iterations =  1.0

     total cpu time spent up to now is        6.4 secs

     total energy              =     -31.88373192 Ry
     Harris-Foulkes estimate   =     -31.88377736 Ry
     estimated scf accuracy    <       0.00011797 Ry

     iteration # 49     ecut=    30.00 Ry     beta=0.70
     Davidson diagonalization with overlap
     ethr =  3.95E-07,  avg # of iterations =  2.0

     total cpu time spent up to now is        6.5 secs

     total energy              =     -31.88366492 Ry
     Harris-Foulkes estimate   =     -31.88370633 Ry
     estimated scf accuracy    <       0.00038242 Ry

     iteration # 50     ecut=    30.00 Ry     beta=0.70
     Davidson diagonalization with overlap
     ethr =  3.95E-07,  avg # of iterations =  1.0

     total cpu time spent up to now is        6.5 secs

     total energy              =     -31.88351478 Ry
     Harris-Foulkes estimate   =     -31.88365799 Ry
     estimated scf accuracy    <       0.00061252 Ry

     iteration # 51     ecut=    30.00 Ry     beta=0.70
     Davidson diagonalization with overlap
     ethr =  3.95E-07,  avg # of iterations =  2.0

     total cpu time spent up to now is        6.6 secs

     total energy              =     -31.88355111 Ry
     Harris-Foulkes estimate   =     -31.88345421 Ry
     estimated scf accuracy    <       0.00161918 Ry

     iteration # 52     ecut=    30.00 Ry     beta=0.70
     Davidson diagonalization with overlap
     ethr =  3.95E-07,  avg # of iterations =  1.0

     total cpu time spent up to now is        6.6 secs

     total energy              =     -31.88456548 Ry
     Harris-Foulkes estimate   =     -31.88354307 Ry
     estimated scf accuracy    <       0.00119954 Ry

     iteration # 53     ecut=    30.00 Ry     beta=0.70
     Davidson diagonalization with overlap
     ethr =  3.95E-07,  avg # of iterations =  3.0

     total cpu time spent up to now is        6.7 secs

     total energy              =     -31.88389384 Ry
     Harris-Foulkes estimate   =     -31.88387029 Ry
     estimated scf accuracy    <       0.00005039 Ry

     iteration # 54     ecut=    30.00 Ry     beta=0.70
     Davidson diagonalization with overlap
     ethr =  3.95E-07,  avg # of iterations =  1.0

     total cpu time spent up to now is        6.7 secs

     total energy              =     -31.88395003 Ry
     Harris-Foulkes estimate   =     -31.88389402 Ry
     estimated scf accuracy    <       0.00008100 Ry

     iteration # 55     ecut=    30.00 Ry     beta=0.70
     Davidson diagonalization with overlap
     ethr =  3.95E-07,  avg # of iterations =  2.0

     total cpu time spent up to now is        6.8 secs

     total energy              =     -31.88401271 Ry
     Harris-Foulkes estimate   =     -31.88395355 Ry
     estimated scf accuracy    <       0.00018405 Ry

     iteration # 56     ecut=    30.00 Ry     beta=0.70
     Davidson diagonalization with overlap
     ethr =  3.95E-07,  avg # of iterations =  1.0

     total cpu time spent up to now is        6.8 secs

     total energy              =     -31.88460096 Ry
     Harris-Foulkes estimate   =     -31.88401575 Ry
     estimated scf accuracy    <       0.00030543 Ry

     iteration # 57     ecut=    30.00 Ry     beta=0.70
     Davidson diagonalization with overlap
     ethr =  3.95E-07,  avg # of iterations =  6.0

     total cpu time spent up to now is        6.9 secs

     total energy              =     -31.88357483 Ry
     Harris-Foulkes estimate   =     -31.88472279 Ry
     estimated scf accuracy    <       0.00171954 Ry

     iteration # 58     ecut=    30.00 Ry     beta=0.70
     Davidson diagonalization with overlap
     ethr =  3.95E-07,  avg # of iterations =  4.0

     total cpu time spent up to now is        6.9 secs

     total energy              =     -31.88384635 Ry
     Harris-Foulkes estimate   =     -31.88385811 Ry
     estimated scf accuracy    <       0.00003860 Ry

     iteration # 59     ecut=    30.00 Ry     beta=0.70
     Davidson diagonalization with overlap
     ethr =  3.95E-07,  avg # of iterations =  1.0

     total cpu time spent up to now is        7.0 secs

     total energy              =     -31.88382585 Ry
     Harris-Foulkes estimate   =     -31.88384582 Ry
     estimated scf accuracy    <       0.00003161 Ry

     iteration # 60     ecut=    30.00 Ry     beta=0.70
     Davidson diagonalization with overlap
     ethr =  3.95E-07,  avg # of iterations =  2.0

     total cpu time spent up to now is        7.0 secs

     total energy              =     -31.88381637 Ry
     Harris-Foulkes estimate   =     -31.88381957 Ry
     estimated scf accuracy    <       0.00003786 Ry

     iteration # 61     ecut=    30.00 Ry     beta=0.70
     Davidson diagonalization with overlap
     ethr =  3.95E-07,  avg # of iterations =  1.0

     total cpu time spent up to now is        7.1 secs

     total energy              =     -31.88383094 Ry
     Harris-Foulkes estimate   =     -31.88381625 Ry
     estimated scf accuracy    <       0.00004140 Ry

     iteration # 62     ecut=    30.00 Ry     beta=0.70
     Davidson diagonalization with overlap
     ethr =  3.95E-07,  avg # of iterations =  1.0

     total cpu time spent up to now is        7.1 secs

     total energy              =     -31.88384181 Ry
     Harris-Foulkes estimate   =     -31.88382870 Ry
     estimated scf accuracy    <       0.00003139 Ry

     iteration # 63     ecut=    30.00 Ry     beta=0.70
     Davidson diagonalization with overlap
     ethr =  3.92E-07,  avg # of iterations =  1.0

     total cpu time spent up to now is        7.2 secs

     total energy              =     -31.88383801 Ry
     Harris-Foulkes estimate   =     -31.88384032 Ry
     estimated scf accuracy    <       0.00002985 Ry

     iteration # 64     ecut=    30.00 Ry     beta=0.70
     Davidson diagonalization with overlap
     ethr =  3.73E-07,  avg # of iterations =  1.0

     total cpu time spent up to now is        7.2 secs

     total energy              =     -31.88385806 Ry
     Harris-Foulkes estimate   =     -31.88383797 Ry
     estimated scf accuracy    <       0.00002997 Ry

     iteration # 65     ecut=    30.00 Ry     beta=0.70
     Davidson diagonalization with overlap
     ethr =  3.73E-07,  avg # of iterations =  1.0

     total cpu time spent up to now is        7.3 secs

     total energy              =     -31.88383598 Ry
     Harris-Foulkes estimate   =     -31.88385582 Ry
     estimated scf accuracy    <       0.00003652 Ry

     iteration # 66     ecut=    30.00 Ry     beta=0.70
     Davidson diagonalization with overlap
     ethr =  3.73E-07,  avg # of iterations =  4.0

     total cpu time spent up to now is        7.3 secs

     total energy              =     -31.88425162 Ry
     Harris-Foulkes estimate   =     -31.88368965 Ry
     estimated scf accuracy    <       0.00045706 Ry

     iteration # 67     ecut=    30.00 Ry     beta=0.70
     Davidson diagonalization with overlap
     ethr =  3.73E-07,  avg # of iterations =  3.0

     total cpu time spent up to now is        7.4 secs

     total energy              =     -31.88389734 Ry
     Harris-Foulkes estimate   =     -31.88388010 Ry
     estimated scf accuracy    <       0.00006199 Ry

     iteration # 68     ecut=    30.00 Ry     beta=0.70
     Davidson diagonalization with overlap
     ethr =  3.73E-07,  avg # of iterations =  1.0

     total cpu time spent up to now is        7.4 secs

     total energy              =     -31.88395134 Ry
     Harris-Foulkes estimate   =     -31.88389756 Ry
     estimated scf accuracy    <       0.00008602 Ry

     iteration # 69     ecut=    30.00 Ry     beta=0.70
     Davidson diagonalization with overlap
     ethr =  3.73E-07,  avg # of iterations =  2.0

     total cpu time spent up to now is        7.5 secs

     total energy              =     -31.88385279 Ry
     Harris-Foulkes estimate   =     -31.88395459 Ry
     estimated scf accuracy    <       0.00018584 Ry

     iteration # 70     ecut=    30.00 Ry     beta=0.70
     Davidson diagonalization with overlap
     ethr =  3.73E-07,  avg # of iterations =  2.0

     total cpu time spent up to now is        7.5 secs

     total energy              =     -31.88382735 Ry
     Harris-Foulkes estimate   =     -31.88386347 Ry
     estimated scf accuracy    <       0.00004351 Ry

     iteration # 71     ecut=    30.00 Ry     beta=0.70
     Davidson diagonalization with overlap
     ethr =  3.73E-07,  avg # of iterations =  2.0

     total cpu time spent up to now is        7.6 secs

     total energy              =     -31.88382107 Ry
     Harris-Foulkes estimate   =     -31.88381088 Ry
     estimated scf accuracy    <       0.00004723 Ry

     iteration # 72     ecut=    30.00 Ry     beta=0.70
     Davidson diagonalization with overlap
     ethr =  3.73E-07,  avg # of iterations =  1.0

     total cpu time spent up to now is        7.6 secs

     total energy              =     -31.88385334 Ry
     Harris-Foulkes estimate   =     -31.88381996 Ry
     estimated scf accuracy    <       0.00003710 Ry

     iteration # 73     ecut=    30.00 Ry     beta=0.70
     Davidson diagonalization with overlap
     ethr =  3.73E-07,  avg # of iterations =  1.0

     total cpu time spent up to now is        7.7 secs

     total energy              =     -31.88386137 Ry
     Harris-Foulkes estimate   =     -31.88384533 Ry
     estimated scf accuracy    <       0.00003100 Ry

     iteration # 74     ecut=    30.00 Ry     beta=0.70
     Davidson diagonalization with overlap
     ethr =  3.73E-07,  avg # of iterations =  1.0

     total cpu time spent up to now is        7.7 secs

     total energy              =     -31.88382488 Ry
     Harris-Foulkes estimate   =     -31.88386046 Ry
     estimated scf accuracy    <       0.00004066 Ry

     iteration # 75     ecut=    30.00 Ry     beta=0.70
     Davidson diagonalization with overlap
     ethr =  3.73E-07,  avg # of iterations =  2.0

     total cpu time spent up to now is        7.8 secs

     total energy              =     -31.88375145 Ry
     Harris-Foulkes estimate   =     -31.88379270 Ry
     estimated scf accuracy    <       0.00007947 Ry

     iteration # 76     ecut=    30.00 Ry     beta=0.70
     Davidson diagonalization with overlap
     ethr =  3.73E-07,  avg # of iterations =  2.0

     total cpu time spent up to now is        7.8 secs

     total energy              =     -31.88378455 Ry
     Harris-Foulkes estimate   =     -31.88371980 Ry
     estimated scf accuracy    <       0.00032241 Ry

     iteration # 77     ecut=    30.00 Ry     beta=0.70
     Davidson diagonalization with overlap
     ethr =  3.73E-07,  avg # of iterations =  1.0

     total cpu time spent up to now is        7.9 secs

     total energy              =     -31.88390126 Ry
     Harris-Foulkes estimate   =     -31.88377005 Ry
     estimated scf accuracy    <       0.00013760 Ry

     iteration # 78     ecut=    30.00 Ry     beta=0.70
     Davidson diagonalization with overlap
     ethr =  3.73E-07,  avg # of iterations =  2.0

     total cpu time spent up to now is        7.9 secs

     total energy              =     -31.88389539 Ry
     Harris-Foulkes estimate   =     -31.88383832 Ry
     estimated scf accuracy    <       0.00002985 Ry

     iteration # 79     ecut=    30.00 Ry     beta=0.70
     Davidson diagonalization with overlap
     ethr =  3.73E-07,  avg # of iterations =  2.0

     total cpu time spent up to now is        8.0 secs

     total energy              =     -31.88389948 Ry
     Harris-Foulkes estimate   =     -31.88388746 Ry
     estimated scf accuracy    <       0.00007206 Ry

     iteration # 80     ecut=    30.00 Ry     beta=0.70
     Davidson diagonalization with overlap
     ethr =  3.73E-07,  avg # of iterations =  1.0

     total cpu time spent up to now is        8.1 secs

     total energy              =     -31.88390520 Ry
     Harris-Foulkes estimate   =     -31.88389961 Ry
     estimated scf accuracy    <       0.00008950 Ry

     iteration # 81     ecut=    30.00 Ry     beta=0.70
     Davidson diagonalization with overlap
     ethr =  3.73E-07,  avg # of iterations =  1.0

     total cpu time spent up to now is        8.1 secs

     total energy              =     -31.88391428 Ry
     Harris-Foulkes estimate   =     -31.88390525 Ry
     estimated scf accuracy    <       0.00009837 Ry

     iteration # 82     ecut=    30.00 Ry     beta=0.70
     Davidson diagonalization with overlap
     ethr =  3.73E-07,  avg # of iterations =  1.0

     total cpu time spent up to now is        8.2 secs

     total energy              =     -31.88394085 Ry
     Harris-Foulkes estimate   =     -31.88391438 Ry
     estimated scf accuracy    <       0.00011346 Ry

     iteration # 83     ecut=    30.00 Ry     beta=0.70
     Davidson diagonalization with overlap
     ethr =  3.73E-07,  avg # of iterations =  1.0

     total cpu time spent up to now is        8.2 secs

     total energy              =     -31.88391224 Ry
     Harris-Foulkes estimate   =     -31.88394163 Ry
     estimated scf accuracy    <       0.00016138 Ry

     iteration # 84     ecut=    30.00 Ry     beta=0.70
     Davidson diagonalization with overlap
     ethr =  3.73E-07,  avg # of iterations =  1.0

     total cpu time spent up to now is        8.3 secs

     total energy              =     -31.88396630 Ry
     Harris-Foulkes estimate   =     -31.88391312 Ry
     estimated scf accuracy    <       0.00011266 Ry

     iteration # 85     ecut=    30.00 Ry     beta=0.70
     Davidson diagonalization with overlap
     ethr =  3.73E-07,  avg # of iterations =  1.0

     total cpu time spent up to now is        8.3 secs

     total energy              =     -31.88378666 Ry
     Harris-Foulkes estimate   =     -31.88396910 Ry
     estimated scf accuracy    <       0.00021185 Ry

     iteration # 86     ecut=    30.00 Ry     beta=0.70
     Davidson diagonalization with overlap
     ethr =  3.73E-07,  avg # of iterations =  3.0

     total cpu time spent up to now is        8.4 secs

     total energy              =     -31.88371290 Ry
     Harris-Foulkes estimate   =     -31.88376597 Ry
     estimated scf accuracy    <       0.00015101 Ry

     iteration # 87     ecut=    30.00 Ry     beta=0.70
     Davidson diagonalization with overlap
     ethr =  3.73E-07,  avg # of iterations =  2.0

     total cpu time spent up to now is        8.4 secs

     total energy              =     -31.88327944 Ry
     Harris-Foulkes estimate   =     -31.88368403 Ry
     estimated scf accuracy    <       0.00048554 Ry

     iteration # 88     ecut=    30.00 Ry     beta=0.70
     Davidson diagonalization with overlap
     ethr =  3.73E-07,  avg # of iterations =  6.0

     total cpu time spent up to now is        8.5 secs

     total energy              =     -31.87549226 Ry
     Harris-Foulkes estimate   =     -31.88361234 Ry
     estimated scf accuracy    <       0.02698075 Ry

     iteration # 89     ecut=    30.00 Ry     beta=0.70
     Davidson diagonalization with overlap
     ethr =  3.73E-07,  avg # of iterations =  5.0

     total cpu time spent up to now is        8.5 secs

     total energy              =     -31.88390576 Ry
     Harris-Foulkes estimate   =     -31.88390644 Ry
     estimated scf accuracy    <       0.00010049 Ry

     iteration # 90     ecut=    30.00 Ry     beta=0.70
     Davidson diagonalization with overlap
     ethr =  3.73E-07,  avg # of iterations =  1.0

     total cpu time spent up to now is        8.6 secs

     total energy              =     -31.88388063 Ry
     Harris-Foulkes estimate   =     -31.88390577 Ry
     estimated scf accuracy    <       0.00009939 Ry

     iteration # 91     ecut=    30.00 Ry     beta=0.70
     Davidson diagonalization with overlap
     ethr =  3.73E-07,  avg # of iterations =  1.0

     total cpu time spent up to now is        8.6 secs

     total energy              =     -31.88405528 Ry
     Harris-Foulkes estimate   =     -31.88388128 Ry
     estimated scf accuracy    <       0.00006344 Ry

     iteration # 92     ecut=    30.00 Ry     beta=0.70
     Davidson diagonalization with overlap
     ethr =  3.73E-07,  avg # of iterations =  4.0

     total cpu time spent up to now is        8.7 secs

     total energy              =     -31.88377250 Ry
     Harris-Foulkes estimate   =     -31.88408261 Ry
     estimated scf accuracy    <       0.00044184 Ry

     iteration # 93     ecut=    30.00 Ry     beta=0.70
     Davidson diagonalization with overlap
     ethr =  3.73E-07,  avg # of iterations =  3.0

     total cpu time spent up to now is        8.7 secs

     total energy              =     -31.88382607 Ry
     Harris-Foulkes estimate   =     -31.88383946 Ry
     estimated scf accuracy    <       0.00002995 Ry

     iteration # 94     ecut=    30.00 Ry     beta=0.70
     Davidson diagonalization with overlap
     ethr =  3.73E-07,  avg # of iterations =  1.0

     total cpu time spent up to now is        8.8 secs

     total energy              =     -31.88386157 Ry
     Harris-Foulkes estimate   =     -31.88382343 Ry
     estimated scf accuracy    <       0.00003500 Ry

     iteration # 95     ecut=    30.00 Ry     beta=0.70
     Davidson diagonalization with overlap
     ethr =  3.73E-07,  avg # of iterations =  2.0

     total cpu time spent up to now is        8.8 secs

     total energy              =     -31.88386173 Ry
     Harris-Foulkes estimate   =     -31.88385238 Ry
     estimated scf accuracy    <       0.00003405 Ry

     iteration # 96     ecut=    30.00 Ry     beta=0.70
     Davidson diagonalization with overlap
     ethr =  3.73E-07,  avg # of iterations =  1.0

     total cpu time spent up to now is        8.9 secs

     total energy              =     -31.88382647 Ry
     Harris-Foulkes estimate   =     -31.88386160 Ry
     estimated scf accuracy    <       0.00004119 Ry

     iteration # 97     ecut=    30.00 Ry     beta=0.70
     Davidson diagonalization with overlap
     ethr =  3.73E-07,  avg # of iterations =  2.0

     total cpu time spent up to now is        8.9 secs

     total energy              =     -31.88382573 Ry
     Harris-Foulkes estimate   =     -31.88376973 Ry
     estimated scf accuracy    <       0.00013952 Ry

     iteration # 98     ecut=    30.00 Ry     beta=0.70
     Davidson diagonalization with overlap
     ethr =  3.73E-07,  avg # of iterations =  1.0

     total cpu time spent up to now is        9.0 secs

     total energy              =     -31.88380960 Ry
     Harris-Foulkes estimate   =     -31.88380905 Ry
     estimated scf accuracy    <       0.00004937 Ry

     iteration # 99     ecut=    30.00 Ry     beta=0.70
     Davidson diagonalization with overlap
     ethr =  3.73E-07,  avg # of iterations =  1.0

     total cpu time spent up to now is        9.0 secs

     total energy              =     -31.88382665 Ry
     Harris-Foulkes estimate   =     -31.88380964 Ry
     estimated scf accuracy    <       0.00004863 Ry

     iteration #100     ecut=    30.00 Ry     beta=0.70
     Davidson diagonalization with overlap
     ethr =  3.73E-07,  avg # of iterations =  1.0

     total cpu time spent up to now is        9.1 secs

     total energy              =     -31.88381501 Ry
     Harris-Foulkes estimate   =     -31.88382389 Ry
     estimated scf accuracy    <       0.00003410 Ry

     End of self-consistent calculation

     convergence NOT achieved after 100 iterations: stopping

     Writing output data file pwscf.save
 
     init_run     :      0.17s CPU      0.19s WALL (       1 calls)
     electrons    :      6.53s CPU      8.00s WALL (       3 calls)
     update_pot   :      0.32s CPU      0.48s WALL (       2 calls)
     forces       :      0.08s CPU      0.09s WALL (       2 calls)

     Called by init_run:
     wfcinit      :      0.01s CPU      0.02s WALL (       1 calls)
     potinit      :      0.05s CPU      0.05s WALL (       1 calls)

     Called by electrons:
     c_bands      :      2.92s CPU      3.05s WALL (     145 calls)
     sum_band     :      0.74s CPU      0.78s WALL (     145 calls)
     v_of_rho     :      1.54s CPU      1.60s WALL (     148 calls)
     mix_rho      :      1.01s CPU      2.01s WALL (     145 calls)

     Called by c_bands:
     init_us_2    :      0.02s CPU      0.03s WALL (     291 calls)
     cegterg      :      2.88s CPU      2.97s WALL (     145 calls)

     Called by sum_band:

     Called by *egterg:
     h_psi        :      2.53s CPU      2.58s WALL (     438 calls)
     g_psi        :      0.02s CPU      0.02s WALL (     292 calls)
     cdiaghg      :      0.12s CPU      0.13s WALL (     435 calls)

     Called by h_psi:
     h_psi:pot    :      2.51s CPU      2.57s WALL (     438 calls)
     h_psi:calbec :      0.02s CPU      0.02s WALL (     438 calls)
     vloc_psi     :      2.49s CPU      2.54s WALL (     438 calls)
     add_vuspsi   :      0.01s CPU      0.01s WALL (     438 calls)

     General routines
     calbec       :      0.02s CPU      0.02s WALL (     447 calls)
     fft          :      1.04s CPU      1.08s WALL (    1632 calls)
     fftw         :      2.73s CPU      2.80s WALL (    6888 calls)
     davcio       :      0.18s CPU      0.88s WALL (    2646 calls)
 
     Parallel routines
     fft_scatter  :      1.14s CPU      1.20s WALL (    8520 calls)
 
     PWSCF        :     7.34s CPU         9.23s WALL

 
   This run was terminated on:  13: 5:10  13Feb2018            

=------------------------------------------------------------------------------=
   JOB DONE.
=------------------------------------------------------------------------------=
