
     Program PWSCF v.6.0 (svn rev. 13079) starts on 13Feb2018 at 14: 0:54 

     This program is part of the open-source Quantum ESPRESSO suite
     for quantum simulation of materials; please cite
         "P. Giannozzi et al., J. Phys.:Condens. Matter 21 395502 (2009);
          URL http://www.quantum-espresso.org", 
     in publications or presentations arising from this work. More details at
     http://www.quantum-espresso.org/quote

     Parallel version (MPI), running on    28 processors
     R & G space division:  proc/nbgrp/npool/nimage =      28
     Reading input from inputs/MD-H2O-round1/193.in

     Current dimensions of program PWSCF are:
     Max number of different atomic species (ntypx) = 10
     Max number of k-points (npk) =  40000
     Max angular momentum in pseudopotentials (lmaxx) =  3

     Subspace diagonalization in iterative solution of the eigenvalue problem:
     a serial algorithm will be used

 
     Parallelization info
     --------------------
     sticks:   dense  smooth     PW     G-vecs:    dense   smooth      PW
     Min         136     136     33                 6338     6338     787
     Max         137     137     34                 6341     6341     792
     Sum        3809    3809    949               177509   177509   22119
 


     bravais-lattice index     =            1
     lattice parameter (alat)  =      20.0000  a.u.
     unit-cell volume          =    8000.0000 (a.u.)^3
     number of atoms/cell      =            3
     number of atomic types    =            2
     number of electrons       =         8.00
     number of Kohn-Sham states=            8
     kinetic-energy cutoff     =      30.0000  Ry
     charge density cutoff     =     120.0000  Ry
     convergence threshold     =      1.0E-08
     mixing beta               =       0.7000
     number of iterations used =            8  plain     mixing
     Exchange-correlation      = BLYP ( 1  3  1  3 0 0)
     nstep                     =         5000


     celldm(1)=  20.000000  celldm(2)=   0.000000  celldm(3)=   0.000000
     celldm(4)=   0.000000  celldm(5)=   0.000000  celldm(6)=   0.000000

     crystal axes: (cart. coord. in units of alat)
               a(1) = (   1.000000   0.000000   0.000000 )  
               a(2) = (   0.000000   1.000000   0.000000 )  
               a(3) = (   0.000000   0.000000   1.000000 )  

     reciprocal axes: (cart. coord. in units 2 pi/alat)
               b(1) = (  1.000000  0.000000  0.000000 )  
               b(2) = (  0.000000  1.000000  0.000000 )  
               b(3) = (  0.000000  0.000000  1.000000 )  


     PseudoPot. # 1 for  H read from file:
     ./H.blyp-hgh.UPF
     MD5 check sum: c576e69559cde411e611be972c763230
     Pseudo is Norm-conserving, Zval =  1.0
     Generated in analytical, separable form
     Using radial grid of  929 points,  0 beta functions with: 

     PseudoPot. # 2 for  O read from file:
     ./O.blyp-hgh.UPF
     MD5 check sum: d0b7156309aa9befef28faac7bc56342
     Pseudo is Norm-conserving, Zval =  6.0
     Generated in analytical, separable form
     Using radial grid of 1095 points,  1 beta functions with: 
                l(1) =   0

     atomic species   valence    mass     pseudopotential
        H              1.00     1.01000      H( 1.00)
        O              6.00    16.00000      O( 1.00)

     No symmetry found



   Cartesian axes

     site n.     atom                  positions (alat units)
         1           O   tau(   1) = (   0.8705839   0.1981836   0.6813372  )
         2           H   tau(   2) = (   0.4260605   0.6287459   0.3641476  )
         3           H   tau(   3) = (   0.8148940   0.2421703   0.6442066  )

     number of k points=     1  Marzari-Vanderbilt smearing, width (Ry)=  0.0250
                       cart. coord. in units 2pi/alat
        k(    1) = (   0.0000000   0.0000000   0.0000000), wk =   2.0000000

     Dense  grid:   177509 G-vectors     FFT dimensions: (  72,  72,  72)

     Estimated max dynamical RAM per process >       6.09Mb

     Estimated total allocated dynamical RAM >     170.64Mb

     Initial potential from superposition of free atoms
     Check: negative starting charge=   -0.353059

     starting charge    7.99998, renormalised to    8.00000

     negative rho (up, down):  3.531E-01 0.000E+00
     Starting wfc are    6 randomized atomic wfcs +    2 random wfc

     total cpu time spent up to now is        0.3 secs

     per-process dynamical memory:    18.8 Mb

     Self-consistent Calculation

     iteration #  1     ecut=    30.00 Ry     beta=0.70
     Davidson diagonalization with overlap
     ethr =  1.00E-02,  avg # of iterations =  8.0

     negative rho (up, down):  9.559E-02 0.000E+00

     total cpu time spent up to now is        0.4 secs

     total energy              =     -31.56266407 Ry
     Harris-Foulkes estimate   =     -32.06896631 Ry
     estimated scf accuracy    <       0.53317854 Ry

     iteration #  2     ecut=    30.00 Ry     beta=0.70
     Davidson diagonalization with overlap
     ethr =  6.66E-03,  avg # of iterations =  3.0

     negative rho (up, down):  7.428E-02 0.000E+00

     total cpu time spent up to now is        0.5 secs

     total energy              =     -31.71077803 Ry
     Harris-Foulkes estimate   =     -32.38750210 Ry
     estimated scf accuracy    <       2.28687506 Ry

     iteration #  3     ecut=    30.00 Ry     beta=0.70
     Davidson diagonalization with overlap
     ethr =  6.66E-03,  avg # of iterations =  2.0

     negative rho (up, down):  2.665E-02 0.000E+00

     total cpu time spent up to now is        0.5 secs

     total energy              =     -31.71168945 Ry
     Harris-Foulkes estimate   =     -31.79335972 Ry
     estimated scf accuracy    <       0.51273900 Ry

     iteration #  4     ecut=    30.00 Ry     beta=0.70
     Davidson diagonalization with overlap
     ethr =  6.41E-03,  avg # of iterations =  1.0

     negative rho (up, down):  9.696E-03 0.000E+00

     total cpu time spent up to now is        0.6 secs

     total energy              =     -31.66073274 Ry
     Harris-Foulkes estimate   =     -31.96736048 Ry
     estimated scf accuracy    <       1.44776781 Ry

     iteration #  5     ecut=    30.00 Ry     beta=0.70
     Davidson diagonalization with overlap
     ethr =  6.41E-03,  avg # of iterations =  1.0

     negative rho (up, down):  6.414E-04 0.000E+00

     total cpu time spent up to now is        0.6 secs

     total energy              =     -31.86324071 Ry
     Harris-Foulkes estimate   =     -31.96114073 Ry
     estimated scf accuracy    <       1.05878148 Ry

     iteration #  6     ecut=    30.00 Ry     beta=0.70
     Davidson diagonalization with overlap
     ethr =  6.41E-03,  avg # of iterations =  1.0

     negative rho (up, down):  6.495E-04 0.000E+00

     total cpu time spent up to now is        0.7 secs

     total energy              =     -31.80639052 Ry
     Harris-Foulkes estimate   =     -31.86405319 Ry
     estimated scf accuracy    <       0.86588944 Ry

     iteration #  7     ecut=    30.00 Ry     beta=0.70
     Davidson diagonalization with overlap
     ethr =  6.41E-03,  avg # of iterations =  1.0

     negative rho (up, down):  2.486E-04 0.000E+00

     total cpu time spent up to now is        0.7 secs

     total energy              =     -31.85534679 Ry
     Harris-Foulkes estimate   =     -31.84888847 Ry
     estimated scf accuracy    <       0.74938736 Ry

     iteration #  8     ecut=    30.00 Ry     beta=0.70
     Davidson diagonalization with overlap
     ethr =  6.41E-03,  avg # of iterations =  1.0

     negative rho (up, down):  2.674E-05 0.000E+00

     total cpu time spent up to now is        0.8 secs

     total energy              =     -31.80596221 Ry
     Harris-Foulkes estimate   =     -31.85627939 Ry
     estimated scf accuracy    <       1.20640438 Ry

     iteration #  9     ecut=    30.00 Ry     beta=0.70
     Davidson diagonalization with overlap
     ethr =  6.41E-03,  avg # of iterations =  1.0

     negative rho (up, down):  2.103E-08 0.000E+00

     total cpu time spent up to now is        0.8 secs

     total energy              =     -31.84279695 Ry
     Harris-Foulkes estimate   =     -31.84474207 Ry
     estimated scf accuracy    <       0.33473809 Ry

     iteration # 10     ecut=    30.00 Ry     beta=0.70
     Davidson diagonalization with overlap
     ethr =  4.18E-03,  avg # of iterations =  1.0

     total cpu time spent up to now is        0.9 secs

     total energy              =     -31.84308308 Ry
     Harris-Foulkes estimate   =     -31.84295430 Ry
     estimated scf accuracy    <       0.23653952 Ry

     iteration # 11     ecut=    30.00 Ry     beta=0.70
     Davidson diagonalization with overlap
     ethr =  2.96E-03,  avg # of iterations =  1.0

     total cpu time spent up to now is        0.9 secs

     total energy              =     -31.83990353 Ry
     Harris-Foulkes estimate   =     -31.84308473 Ry
     estimated scf accuracy    <       0.24442898 Ry

     iteration # 12     ecut=    30.00 Ry     beta=0.70
     Davidson diagonalization with overlap
     ethr =  2.96E-03,  avg # of iterations =  1.0

     total cpu time spent up to now is        1.0 secs

     total energy              =     -31.83983914 Ry
     Harris-Foulkes estimate   =     -31.84053564 Ry
     estimated scf accuracy    <       0.08326922 Ry

     iteration # 13     ecut=    30.00 Ry     beta=0.70
     Davidson diagonalization with overlap
     ethr =  1.04E-03,  avg # of iterations =  1.0

     total cpu time spent up to now is        1.0 secs

     total energy              =     -31.83865132 Ry
     Harris-Foulkes estimate   =     -31.83994053 Ry
     estimated scf accuracy    <       0.04110814 Ry

     iteration # 14     ecut=    30.00 Ry     beta=0.70
     Davidson diagonalization with overlap
     ethr =  5.14E-04,  avg # of iterations =  1.0

     total cpu time spent up to now is        1.1 secs

     total energy              =     -31.83932313 Ry
     Harris-Foulkes estimate   =     -31.83941599 Ry
     estimated scf accuracy    <       0.00188568 Ry

     iteration # 15     ecut=    30.00 Ry     beta=0.70
     Davidson diagonalization with overlap
     ethr =  2.36E-05,  avg # of iterations =  9.0

     total cpu time spent up to now is        1.1 secs

     total energy              =     -31.83941075 Ry
     Harris-Foulkes estimate   =     -31.83941396 Ry
     estimated scf accuracy    <       0.00173734 Ry

     iteration # 16     ecut=    30.00 Ry     beta=0.70
     Davidson diagonalization with overlap
     ethr =  2.17E-05,  avg # of iterations =  1.0

     total cpu time spent up to now is        1.2 secs

     total energy              =     -31.83940393 Ry
     Harris-Foulkes estimate   =     -31.83941103 Ry
     estimated scf accuracy    <       0.00145208 Ry

     iteration # 17     ecut=    30.00 Ry     beta=0.70
     Davidson diagonalization with overlap
     ethr =  1.82E-05,  avg # of iterations =  1.0

     total cpu time spent up to now is        1.2 secs

     total energy              =     -31.83938847 Ry
     Harris-Foulkes estimate   =     -31.83940484 Ry
     estimated scf accuracy    <       0.00088766 Ry

     iteration # 18     ecut=    30.00 Ry     beta=0.70
     Davidson diagonalization with overlap
     ethr =  1.11E-05,  avg # of iterations =  1.0

     total cpu time spent up to now is        1.3 secs

     total energy              =     -31.83939439 Ry
     Harris-Foulkes estimate   =     -31.83939423 Ry
     estimated scf accuracy    <       0.00006981 Ry

     iteration # 19     ecut=    30.00 Ry     beta=0.70
     Davidson diagonalization with overlap
     ethr =  8.73E-07,  avg # of iterations =  1.0

     total cpu time spent up to now is        1.3 secs

     total energy              =     -31.83939464 Ry
     Harris-Foulkes estimate   =     -31.83939440 Ry
     estimated scf accuracy    <       0.00008154 Ry

     iteration # 20     ecut=    30.00 Ry     beta=0.70
     Davidson diagonalization with overlap
     ethr =  8.73E-07,  avg # of iterations =  1.0

     total cpu time spent up to now is        1.4 secs

     total energy              =     -31.83939215 Ry
     Harris-Foulkes estimate   =     -31.83939465 Ry
     estimated scf accuracy    <       0.00009233 Ry

     iteration # 21     ecut=    30.00 Ry     beta=0.70
     Davidson diagonalization with overlap
     ethr =  8.73E-07,  avg # of iterations =  1.0

     total cpu time spent up to now is        1.4 secs

     total energy              =     -31.83939358 Ry
     Harris-Foulkes estimate   =     -31.83939375 Ry
     estimated scf accuracy    <       0.00000293 Ry

     iteration # 22     ecut=    30.00 Ry     beta=0.70
     Davidson diagonalization with overlap
     ethr =  3.66E-08,  avg # of iterations =  1.0

     total cpu time spent up to now is        1.5 secs

     End of self-consistent calculation

          k = 0.0000 0.0000 0.0000 ( 22119 PWs)   bands (ev):

   -26.1915 -11.0882  -7.1735  -7.1729  -7.0302  -0.4571   0.5091   0.8256

     the Fermi energy is    -7.0016 ev

!    total energy              =     -31.83939365 Ry
     Harris-Foulkes estimate   =     -31.83939362 Ry
     estimated scf accuracy    <          1.0E-09 Ry

     convergence has been achieved in  22 iterations

     Forces acting on atoms (Ry/au):

     atom    1 type  2   force =     0.43135949   -0.33976652    0.28712521
     atom    2 type  1   force =     0.00028420   -0.00035174   -0.00005075
     atom    3 type  1   force =    -0.43164369    0.34011826   -0.28707446

     Total force =     0.876563     Total SCF correction =     0.000039

     Molecular Dynamics Calculation

     Starting temperature  =  1000.00 K

     temperature is controlled by Andersen thermostat
     Collision frequency = 1.0000/timestep
     mass H                =     1.01
     mass O                =    16.00
     Time step             =   100.00 a.u.,  4.8378 femto-seconds

     Entering Dynamics:    iteration =     1
                           time      =   0.0048 pico-seconds


     Andersen thermostat:    3 collisions

ATOMIC_POSITIONS (bohr)
O       17.547491201   3.844161645  13.728955809
H        8.654024008  12.403786894   7.251502224
H       14.013554897   6.907755617  11.296386800


     kinetic energy (Ekin) =     0.00465070 Ry
     temperature           =   244.76233761 K 
     Ekin + Etot (const)   =   -31.83474294 Ry

     Linear momentum :    0.0000000000   -0.0000000000   -0.0000000000

     Writing output data file pwscf.save
     Check: negative starting charge=   -0.353059
     NEW-OLD atomic charge density approx. for the potential
     Check: negative starting charge=   -0.344936

     negative rho (up, down):  4.266E-01 0.000E+00

     total cpu time spent up to now is        1.9 secs

     per-process dynamical memory:    20.4 Mb

     Self-consistent Calculation

     iteration #  1     ecut=    30.00 Ry     beta=0.70
     Davidson diagonalization with overlap
     ethr =  1.00E-06,  avg # of iterations = 11.0

     negative rho (up, down):  1.025E-01 0.000E+00

     total cpu time spent up to now is        2.0 secs

     total energy              =     -12.49711024 Ry
     Harris-Foulkes estimate   =     -38.07044673 Ry
     estimated scf accuracy    <      11.75483035 Ry

     iteration #  2     ecut=    30.00 Ry     beta=0.70
     Davidson diagonalization with overlap
     ethr =  1.00E-02,  avg # of iterations =  5.0

     negative rho (up, down):  7.080E-02 0.000E+00

     total cpu time spent up to now is        2.1 secs

     total energy              =     -33.56318769 Ry
     Harris-Foulkes estimate   =     -42.73012990 Ry
     estimated scf accuracy    <      20.35610506 Ry

     iteration #  3     ecut=    30.00 Ry     beta=0.70
     Davidson diagonalization with overlap
     ethr =  1.00E-02,  avg # of iterations =  2.0

     negative rho (up, down):  4.980E-02 0.000E+00

     total cpu time spent up to now is        2.1 secs

     total energy              =     -31.76542050 Ry
     Harris-Foulkes estimate   =     -34.12201358 Ry
     estimated scf accuracy    <       7.02202521 Ry

     iteration #  4     ecut=    30.00 Ry     beta=0.70
     Davidson diagonalization with overlap
     ethr =  1.00E-02,  avg # of iterations =  5.0

     negative rho (up, down):  4.568E-02 0.000E+00

     total cpu time spent up to now is        2.2 secs

     total energy              =     -31.67037168 Ry
     Harris-Foulkes estimate   =     -32.01819992 Ry
     estimated scf accuracy    <       2.23979150 Ry

     iteration #  5     ecut=    30.00 Ry     beta=0.70
     Davidson diagonalization with overlap
     ethr =  1.00E-02,  avg # of iterations =  1.0

     negative rho (up, down):  1.311E-02 0.000E+00

     total cpu time spent up to now is        2.3 secs

     total energy              =     -30.82796899 Ry
     Harris-Foulkes estimate   =     -32.18827599 Ry
     estimated scf accuracy    <       3.76226035 Ry

     iteration #  6     ecut=    30.00 Ry     beta=0.70
     Davidson diagonalization with overlap
     ethr =  1.00E-02,  avg # of iterations =  2.0

     negative rho (up, down):  2.299E-02 0.000E+00

     total cpu time spent up to now is        2.3 secs

     total energy              =     -31.51140782 Ry
     Harris-Foulkes estimate   =     -32.43407608 Ry
     estimated scf accuracy    <       5.07016572 Ry

     iteration #  7     ecut=    30.00 Ry     beta=0.70
     Davidson diagonalization with overlap
     ethr =  1.00E-02,  avg # of iterations =  1.0

     negative rho (up, down):  2.291E-02 0.000E+00

     total cpu time spent up to now is        2.4 secs

     total energy              =     -31.62259673 Ry
     Harris-Foulkes estimate   =     -31.61985284 Ry
     estimated scf accuracy    <       0.97496907 Ry

     iteration #  8     ecut=    30.00 Ry     beta=0.70
     Davidson diagonalization with overlap
     ethr =  1.00E-02,  avg # of iterations =  1.0

     negative rho (up, down):  2.312E-02 0.000E+00

     total cpu time spent up to now is        2.4 secs

     total energy              =     -31.63542974 Ry
     Harris-Foulkes estimate   =     -31.62394938 Ry
     estimated scf accuracy    <       0.97526751 Ry

     iteration #  9     ecut=    30.00 Ry     beta=0.70
     Davidson diagonalization with overlap
     ethr =  1.00E-02,  avg # of iterations =  1.0

     negative rho (up, down):  2.079E-02 0.000E+00

     total cpu time spent up to now is        2.5 secs

     total energy              =     -32.02451316 Ry
     Harris-Foulkes estimate   =     -31.69918629 Ry
     estimated scf accuracy    <       4.02309613 Ry

     iteration # 10     ecut=    30.00 Ry     beta=0.70
     Davidson diagonalization with overlap
     ethr =  1.00E-02,  avg # of iterations =  1.0

     negative rho (up, down):  1.438E-01 0.000E+00

     total cpu time spent up to now is        2.5 secs

     total energy              =     -32.59032980 Ry
     Harris-Foulkes estimate   =     -32.01731495 Ry
     estimated scf accuracy    <       4.26139266 Ry

     iteration # 11     ecut=    30.00 Ry     beta=0.70
     Davidson diagonalization with overlap
     ethr =  1.00E-02,  avg # of iterations =  5.0

     negative rho (up, down):  3.261E-01 0.000E+00

     total cpu time spent up to now is        2.6 secs

     total energy              =     -37.23993949 Ry
     Harris-Foulkes estimate   =     -34.80335260 Ry
     estimated scf accuracy    <      17.32488179 Ry

     iteration # 12     ecut=    30.00 Ry     beta=0.70
     Davidson diagonalization with overlap
     ethr =  1.00E-02,  avg # of iterations =  3.0

     negative rho (up, down):  1.158E+00 0.000E+00

     total cpu time spent up to now is        2.6 secs

     total energy              =     -46.39226264 Ry
     Harris-Foulkes estimate   =     -37.92763230 Ry
     estimated scf accuracy    <      21.31344175 Ry

     iteration # 13     ecut=    30.00 Ry     beta=0.70
     Davidson diagonalization with overlap
     ethr =  1.00E-02,  avg # of iterations =  5.0

     negative rho (up, down):  4.780E-02 0.000E+00

     total cpu time spent up to now is        2.7 secs

     total energy              =     -25.83127776 Ry
     Harris-Foulkes estimate   =     -61.79504796 Ry
     estimated scf accuracy    <      50.93208764 Ry

     iteration # 14     ecut=    30.00 Ry     beta=0.70
     Davidson diagonalization with overlap
     ethr =  1.00E-02,  avg # of iterations =  8.0

     negative rho (up, down):  1.583E-01 0.000E+00

     total cpu time spent up to now is        2.8 secs

     total energy              =    -109.39261643 Ry
     Harris-Foulkes estimate   =     -39.67440004 Ry
     estimated scf accuracy    <       4.93313896 Ry

     iteration # 15     ecut=    30.00 Ry     beta=0.70
     Davidson diagonalization with overlap
     ethr =  1.00E-02,  avg # of iterations =  3.0

     negative rho (up, down):  1.694E-01 0.000E+00

     total cpu time spent up to now is        2.8 secs

     total energy              =      -5.09911859 Ry
     Harris-Foulkes estimate   =    -666.65555202 Ry
     estimated scf accuracy    <       6.05276203 Ry

     iteration # 16     ecut=    30.00 Ry     beta=0.70
     Davidson diagonalization with overlap
     ethr =  1.00E-02,  avg # of iterations =  4.0

     negative rho (up, down):  1.242E-01 0.000E+00

     total cpu time spent up to now is        2.9 secs

     total energy              =    -209.45592353 Ry
     Harris-Foulkes estimate   =     -56.63415323 Ry
     estimated scf accuracy    <       5.97769592 Ry

     iteration # 17     ecut=    30.00 Ry     beta=0.70
     Davidson diagonalization with overlap
     ethr =  1.00E-02,  avg # of iterations =  4.0

     negative rho (up, down):  1.287E-01 0.000E+00

     total cpu time spent up to now is        3.0 secs

     total energy              =      14.87690013 Ry
     Harris-Foulkes estimate   =    -675.19415360 Ry
     estimated scf accuracy    <      16.99173542 Ry

     iteration # 18     ecut=    30.00 Ry     beta=0.70
     Davidson diagonalization with overlap
     ethr =  1.00E-02,  avg # of iterations =  4.0

     negative rho (up, down):  1.897E-02 0.000E+00

     total cpu time spent up to now is        3.1 secs

     total energy              =     -32.12781621 Ry
     Harris-Foulkes estimate   =     -32.98052504 Ry
     estimated scf accuracy    <       4.64679136 Ry

     iteration # 19     ecut=    30.00 Ry     beta=0.70
     Davidson diagonalization with overlap
     ethr =  1.00E-02,  avg # of iterations =  7.0

     negative rho (up, down):  4.408E-02 0.000E+00

     total cpu time spent up to now is        3.1 secs

     total energy              =     -39.71256502 Ry
     Harris-Foulkes estimate   =    -110.88331667 Ry
     estimated scf accuracy    <      35.60888831 Ry

     iteration # 20     ecut=    30.00 Ry     beta=0.70
     Davidson diagonalization with overlap
     ethr =  1.00E-02,  avg # of iterations =  5.0

     negative rho (up, down):  5.992E-02 0.000E+00

     total cpu time spent up to now is        3.2 secs

     total energy              =     -12.05760115 Ry
     Harris-Foulkes estimate   =    -431.62644893 Ry
     estimated scf accuracy    <      40.35002114 Ry

     iteration # 21     ecut=    30.00 Ry     beta=0.70
     Davidson diagonalization with overlap
     ethr =  1.00E-02,  avg # of iterations =  5.0

     negative rho (up, down):  1.339E-01 0.000E+00

     total cpu time spent up to now is        3.3 secs

     total energy              =     -26.81030108 Ry
     Harris-Foulkes estimate   =     -77.69510924 Ry
     estimated scf accuracy    <      23.67665309 Ry

     iteration # 22     ecut=    30.00 Ry     beta=0.70
     Davidson diagonalization with overlap
     ethr =  1.00E-02,  avg # of iterations =  5.0

     negative rho (up, down):  2.131E-01 0.000E+00

     total cpu time spent up to now is        3.3 secs

     total energy              =      52.57114087 Ry
     Harris-Foulkes estimate   =    -770.13189962 Ry
     estimated scf accuracy    <      37.08064507 Ry

     iteration # 23     ecut=    30.00 Ry     beta=0.70
     Davidson diagonalization with overlap
     ethr =  1.00E-02,  avg # of iterations =  5.0

     negative rho (up, down):  2.669E-01 0.000E+00

     total cpu time spent up to now is        3.4 secs

     total energy              =      37.63562546 Ry
     Harris-Foulkes estimate   =    -226.11133035 Ry
     estimated scf accuracy    <      71.66599707 Ry

     iteration # 24     ecut=    30.00 Ry     beta=0.70
     Davidson diagonalization with overlap
     ethr =  1.00E-02,  avg # of iterations =  8.0

     negative rho (up, down):  2.967E-01 0.000E+00

     total cpu time spent up to now is        3.5 secs

     total energy              =     -28.73880747 Ry
     Harris-Foulkes estimate   =    -147.49927331 Ry
     estimated scf accuracy    <      34.01528064 Ry

     iteration # 25     ecut=    30.00 Ry     beta=0.70
     Davidson diagonalization with overlap
     ethr =  1.00E-02,  avg # of iterations =  5.0

     negative rho (up, down):  3.126E-01 0.000E+00

     total cpu time spent up to now is        3.5 secs

     total energy              =       2.30528217 Ry
     Harris-Foulkes estimate   =    -201.37076083 Ry
     estimated scf accuracy    <      37.00680761 Ry

     iteration # 26     ecut=    30.00 Ry     beta=0.70
     Davidson diagonalization with overlap
     ethr =  1.00E-02,  avg # of iterations =  5.0

     negative rho (up, down):  1.872E-01 0.000E+00

     total cpu time spent up to now is        3.6 secs

     total energy              =     145.42320300 Ry
     Harris-Foulkes estimate   =     -60.38095412 Ry
     estimated scf accuracy    <       9.07604300 Ry

     iteration # 27     ecut=    30.00 Ry     beta=0.70
     Davidson diagonalization with overlap
     ethr =  1.00E-02,  avg # of iterations =  4.0

     negative rho (up, down):  1.036E+00 0.000E+00

     total cpu time spent up to now is        3.7 secs

     total energy              =    -366.59508593 Ry
     Harris-Foulkes estimate   =    -185.74862489 Ry
     estimated scf accuracy    <      17.59278139 Ry

     iteration # 28     ecut=    30.00 Ry     beta=0.70
     Davidson diagonalization with overlap
     ethr =  1.00E-02,  avg # of iterations =  8.0

     negative rho (up, down):  1.083E+00 0.000E+00

     total cpu time spent up to now is        3.8 secs

     total energy              =     -80.63502860 Ry
     Harris-Foulkes estimate   =   -3756.75517224 Ry
     estimated scf accuracy    <      58.40556804 Ry

     iteration # 29     ecut=    30.00 Ry     beta=0.70
     Davidson diagonalization with overlap
     ethr =  1.00E-02,  avg # of iterations =  4.0

     negative rho (up, down):  1.188E+00 0.000E+00

     total cpu time spent up to now is        3.8 secs

     total energy              =    -889.77374758 Ry
     Harris-Foulkes estimate   =   -4312.42048333 Ry
     estimated scf accuracy    <      56.78474212 Ry

     iteration # 30     ecut=    30.00 Ry     beta=0.70
     Davidson diagonalization with overlap
     ethr =  1.00E-02,  avg # of iterations =  8.0

     negative rho (up, down):  1.342E+00 0.000E+00

     total cpu time spent up to now is        3.9 secs

     total energy              =    -353.19193517 Ry
     Harris-Foulkes estimate   =  -12330.42081205 Ry
     estimated scf accuracy    <      55.65894869 Ry

     iteration # 31     ecut=    30.00 Ry     beta=0.70
     Davidson diagonalization with overlap
     ethr =  1.00E-02,  avg # of iterations =  6.0

     negative rho (up, down):  1.112E+00 0.000E+00

     total cpu time spent up to now is        4.0 secs

     total energy              =      51.73746332 Ry
     Harris-Foulkes estimate   =   -5050.67913713 Ry
     estimated scf accuracy    <      58.57906376 Ry

     iteration # 32     ecut=    30.00 Ry     beta=0.70
     Davidson diagonalization with overlap
     ethr =  1.00E-02,  avg # of iterations =  7.0

     negative rho (up, down):  9.316E-01 0.000E+00

     total cpu time spent up to now is        4.1 secs

     total energy              =    -288.35259805 Ry
     Harris-Foulkes estimate   =    -702.58418957 Ry
     estimated scf accuracy    <      51.48155936 Ry

     iteration # 33     ecut=    30.00 Ry     beta=0.70
     Davidson diagonalization with overlap
     ethr =  1.00E-02,  avg # of iterations =  8.0

     negative rho (up, down):  1.352E+00 0.000E+00

     total cpu time spent up to now is        4.2 secs

     total energy              =     -49.06183125 Ry
     Harris-Foulkes estimate   =  -16539.35730575 Ry
     estimated scf accuracy    <      56.70229552 Ry

     iteration # 34     ecut=    30.00 Ry     beta=0.70
     Davidson diagonalization with overlap
     ethr =  1.00E-02,  avg # of iterations =  8.0

     negative rho (up, down):  1.456E+00 0.000E+00

     total cpu time spent up to now is        4.3 secs

     total energy              =    -195.28371970 Ry
     Harris-Foulkes estimate   =   -1210.57361614 Ry
     estimated scf accuracy    <      54.83748076 Ry

     iteration # 35     ecut=    30.00 Ry     beta=0.70
     Davidson diagonalization with overlap
     ethr =  1.00E-02,  avg # of iterations =  9.0

     negative rho (up, down):  2.203E+00 0.000E+00

     total cpu time spent up to now is        4.4 secs

     total energy              =     -75.41595063 Ry
     Harris-Foulkes estimate   =  -32860.87373096 Ry
     estimated scf accuracy    <      53.86034046 Ry

     iteration # 36     ecut=    30.00 Ry     beta=0.70
     Davidson diagonalization with overlap
     ethr =  1.00E-02,  avg # of iterations =  8.0

     negative rho (up, down):  1.998E+00 0.000E+00

     total cpu time spent up to now is        4.5 secs

     total energy              = -172313.86809201 Ry
     Harris-Foulkes estimate   =   -1297.67569621 Ry
     estimated scf accuracy    <      44.37224919 Ry

     iteration # 37     ecut=    30.00 Ry     beta=0.70
     Davidson diagonalization with overlap
     ethr =  1.00E-02,  avg # of iterations =  8.0

     negative rho (up, down):  2.019E+00 0.000E+00

     total cpu time spent up to now is        4.6 secs

     total energy              =     164.73473611 Ry
     Harris-Foulkes estimate   = -409516.00895126 Ry
     estimated scf accuracy    <      30.62392766 Ry

     iteration # 38     ecut=    30.00 Ry     beta=0.70
     Davidson diagonalization with overlap
     ethr =  1.00E-02,  avg # of iterations =  8.0

     negative rho (up, down):  1.499E+00 0.000E+00

     total cpu time spent up to now is        4.7 secs

     total energy              =    -200.45153681 Ry
     Harris-Foulkes estimate   =   -2114.06932750 Ry
     estimated scf accuracy    <      23.88902631 Ry

     iteration # 39     ecut=    30.00 Ry     beta=0.70
     Davidson diagonalization with overlap
     ethr =  1.00E-02,  avg # of iterations =  7.0

     negative rho (up, down):  8.549E-01 0.000E+00

     total cpu time spent up to now is        4.8 secs

     total energy              =      79.32000606 Ry
     Harris-Foulkes estimate   =  -43870.04258121 Ry
     estimated scf accuracy    <      17.63491155 Ry

     iteration # 40     ecut=    30.00 Ry     beta=0.70
     Davidson diagonalization with overlap
     ethr =  1.00E-02,  avg # of iterations =  7.0

     negative rho (up, down):  5.535E-01 0.000E+00

     total cpu time spent up to now is        4.8 secs

     total energy              =      67.78136163 Ry
     Harris-Foulkes estimate   =   -7439.53616715 Ry
     estimated scf accuracy    <      22.47463213 Ry

     iteration # 41     ecut=    30.00 Ry     beta=0.70
     Davidson diagonalization with overlap
     ethr =  1.00E-02,  avg # of iterations =  7.0

     negative rho (up, down):  3.875E-01 0.000E+00

     total cpu time spent up to now is        4.9 secs

     total energy              =      77.88013845 Ry
     Harris-Foulkes estimate   =   -3115.47465408 Ry
     estimated scf accuracy    <      22.47481508 Ry

     iteration # 42     ecut=    30.00 Ry     beta=0.70
     Davidson diagonalization with overlap
     ethr =  1.00E-02,  avg # of iterations = 10.0

     negative rho (up, down):  2.482E-01 0.000E+00

     total cpu time spent up to now is        5.0 secs

     total energy              =     113.96701375 Ry
     Harris-Foulkes estimate   =   -2887.56249119 Ry
     estimated scf accuracy    <      18.49688334 Ry

     iteration # 43     ecut=    30.00 Ry     beta=0.70
     Davidson diagonalization with overlap
     ethr =  1.00E-02,  avg # of iterations =  7.0

     negative rho (up, down):  1.082E-01 0.000E+00

     total cpu time spent up to now is        5.1 secs

     total energy              =     113.77253890 Ry
     Harris-Foulkes estimate   =    -425.46904214 Ry
     estimated scf accuracy    <      13.94858833 Ry

     iteration # 44     ecut=    30.00 Ry     beta=0.70
     Davidson diagonalization with overlap
     ethr =  1.00E-02,  avg # of iterations =  9.0

     negative rho (up, down):  3.151E-03 0.000E+00

     total cpu time spent up to now is        5.2 secs

     total energy              =      17.53572372 Ry
     Harris-Foulkes estimate   =   -3364.07500112 Ry
     estimated scf accuracy    <      25.66971818 Ry

     iteration # 45     ecut=    30.00 Ry     beta=0.70
     Davidson diagonalization with overlap
     ethr =  1.00E-02,  avg # of iterations =  6.0

     negative rho (up, down):  2.936E-02 0.000E+00

     total cpu time spent up to now is        5.3 secs

     total energy              =     -32.25563609 Ry
     Harris-Foulkes estimate   =    -104.18038867 Ry
     estimated scf accuracy    <      43.02097920 Ry

     iteration # 46     ecut=    30.00 Ry     beta=0.70
     Davidson diagonalization with overlap
     ethr =  1.00E-02,  avg # of iterations =  4.0

     negative rho (up, down):  3.261E-02 0.000E+00

     total cpu time spent up to now is        5.3 secs

     total energy              =     -79.10836471 Ry
     Harris-Foulkes estimate   =     -78.93767376 Ry
     estimated scf accuracy    <      64.39583886 Ry

     iteration # 47     ecut=    30.00 Ry     beta=0.70
     Davidson diagonalization with overlap
     ethr =  1.00E-02,  avg # of iterations =  5.0

     negative rho (up, down):  4.230E-02 0.000E+00

     total cpu time spent up to now is        5.4 secs

     total energy              =     -30.89563789 Ry
     Harris-Foulkes estimate   =    -153.60809143 Ry
     estimated scf accuracy    <      37.88385855 Ry

     iteration # 48     ecut=    30.00 Ry     beta=0.70
     Davidson diagonalization with overlap
     ethr =  1.00E-02,  avg # of iterations =  7.0

     negative rho (up, down):  2.632E-01 0.000E+00

     total cpu time spent up to now is        5.5 secs

     total energy              =     -61.18226642 Ry
     Harris-Foulkes estimate   =     -91.76642661 Ry
     estimated scf accuracy    <      36.04327114 Ry

     iteration # 49     ecut=    30.00 Ry     beta=0.70
     Davidson diagonalization with overlap
     ethr =  1.00E-02,  avg # of iterations =  5.0

     negative rho (up, down):  4.068E-01 0.000E+00

     total cpu time spent up to now is        5.6 secs

     total energy              =     -37.69338550 Ry
     Harris-Foulkes estimate   =   -1559.86252859 Ry
     estimated scf accuracy    <      25.96814363 Ry

     iteration # 50     ecut=    30.00 Ry     beta=0.70
     Davidson diagonalization with overlap
     ethr =  1.00E-02,  avg # of iterations = 10.0

     negative rho (up, down):  4.413E-01 0.000E+00

     total cpu time spent up to now is        5.6 secs

     total energy              =      37.14008928 Ry
     Harris-Foulkes estimate   =  -14509.84442344 Ry
     estimated scf accuracy    <      17.08897682 Ry

     iteration # 51     ecut=    30.00 Ry     beta=0.70
     Davidson diagonalization with overlap
     ethr =  1.00E-02,  avg # of iterations =  6.0

     negative rho (up, down):  4.574E-01 0.000E+00

     total cpu time spent up to now is        5.7 secs

     total energy              =      70.39481784 Ry
     Harris-Foulkes estimate   =    -618.06893913 Ry
     estimated scf accuracy    <      31.44625011 Ry

     iteration # 52     ecut=    30.00 Ry     beta=0.70
     Davidson diagonalization with overlap
     ethr =  1.00E-02,  avg # of iterations =  8.0

     negative rho (up, down):  2.771E-01 0.000E+00

     total cpu time spent up to now is        5.8 secs

     total energy              =     140.08106737 Ry
     Harris-Foulkes estimate   =  -10365.41437838 Ry
     estimated scf accuracy    <      20.99926998 Ry

     iteration # 53     ecut=    30.00 Ry     beta=0.70
     Davidson diagonalization with overlap
     ethr =  1.00E-02,  avg # of iterations = 13.0

     negative rho (up, down):  6.713E-03 0.000E+00

     total cpu time spent up to now is        5.9 secs

     total energy              =      70.77770194 Ry
     Harris-Foulkes estimate   =    -292.00231515 Ry
     estimated scf accuracy    <      30.74601046 Ry

     iteration # 54     ecut=    30.00 Ry     beta=0.70
     Davidson diagonalization with overlap
     ethr =  1.00E-02,  avg # of iterations =  9.0

     negative rho (up, down):  3.204E-03 0.000E+00

     total cpu time spent up to now is        6.0 secs

     total energy              =     -19.10601833 Ry
     Harris-Foulkes estimate   =    -124.02942125 Ry
     estimated scf accuracy    <      22.89097915 Ry

     iteration # 55     ecut=    30.00 Ry     beta=0.70
     Davidson diagonalization with overlap
     ethr =  1.00E-02,  avg # of iterations =  7.0

     negative rho (up, down):  1.349E-03 0.000E+00

     total cpu time spent up to now is        6.1 secs

     total energy              =     -60.33483605 Ry
     Harris-Foulkes estimate   =     -62.60400685 Ry
     estimated scf accuracy    <      43.48865766 Ry

     iteration # 56     ecut=    30.00 Ry     beta=0.70
     Davidson diagonalization with overlap
     ethr =  1.00E-02,  avg # of iterations =  1.0

     negative rho (up, down):  4.530E-01 0.000E+00

     total cpu time spent up to now is        6.1 secs

     total energy              =     -54.16983899 Ry
     Harris-Foulkes estimate   =     -60.34318487 Ry
     estimated scf accuracy    <      40.28902388 Ry

     iteration # 57     ecut=    30.00 Ry     beta=0.70
     Davidson diagonalization with overlap
     ethr =  1.00E-02,  avg # of iterations =  9.0

     negative rho (up, down):  3.917E-02 0.000E+00

     total cpu time spent up to now is        6.2 secs

     total energy              =     120.19902311 Ry
     Harris-Foulkes estimate   =   -2190.68540232 Ry
     estimated scf accuracy    <      29.05163940 Ry

     iteration # 58     ecut=    30.00 Ry     beta=0.70
     Davidson diagonalization with overlap
     ethr =  1.00E-02,  avg # of iterations = 10.0

     negative rho (up, down):  9.890E-02 0.000E+00

     total cpu time spent up to now is        6.3 secs

     total energy              =     -29.90198749 Ry
     Harris-Foulkes estimate   =     -67.21102573 Ry
     estimated scf accuracy    <      20.85723894 Ry

     iteration # 59     ecut=    30.00 Ry     beta=0.70
     Davidson diagonalization with overlap
     ethr =  1.00E-02,  avg # of iterations =  5.0

     negative rho (up, down):  4.581E-02 0.000E+00

     total cpu time spent up to now is        6.4 secs

     total energy              =     -10.84097460 Ry
     Harris-Foulkes estimate   =    -127.47259870 Ry
     estimated scf accuracy    <      17.81452292 Ry

     iteration # 60     ecut=    30.00 Ry     beta=0.70
     Davidson diagonalization with overlap
     ethr =  1.00E-02,  avg # of iterations =  6.0

     negative rho (up, down):  9.715E-02 0.000E+00

     total cpu time spent up to now is        6.5 secs

     total energy              =   -1041.04986454 Ry
     Harris-Foulkes estimate   =   -1414.67678857 Ry
     estimated scf accuracy    <      17.84741053 Ry

     iteration # 61     ecut=    30.00 Ry     beta=0.70
     Davidson diagonalization with overlap
     ethr =  1.00E-02,  avg # of iterations =  4.0

     negative rho (up, down):  8.949E-02 0.000E+00

     total cpu time spent up to now is        6.6 secs

     total energy              =     -46.70707330 Ry
     Harris-Foulkes estimate   =   -2790.17325393 Ry
     estimated scf accuracy    <      19.38950109 Ry

     iteration # 62     ecut=    30.00 Ry     beta=0.70
     Davidson diagonalization with overlap
     ethr =  1.00E-02,  avg # of iterations =  4.0

     negative rho (up, down):  1.614E-01 0.000E+00

     total cpu time spent up to now is        6.6 secs

     total energy              =     -13.41148281 Ry
     Harris-Foulkes estimate   =    -568.51657999 Ry
     estimated scf accuracy    <      36.60473537 Ry

     iteration # 63     ecut=    30.00 Ry     beta=0.70
     Davidson diagonalization with overlap
     ethr =  1.00E-02,  avg # of iterations =  7.0

     negative rho (up, down):  1.032E-01 0.000E+00

     total cpu time spent up to now is        6.7 secs

     total energy              =    -496.42394791 Ry
     Harris-Foulkes estimate   =    -201.07266808 Ry
     estimated scf accuracy    <      19.49936666 Ry

     iteration # 64     ecut=    30.00 Ry     beta=0.70
     Davidson diagonalization with overlap
     ethr =  1.00E-02,  avg # of iterations =  4.0

     negative rho (up, down):  1.000E-01 0.000E+00

     total cpu time spent up to now is        6.8 secs

     total energy              =     -68.47821826 Ry
     Harris-Foulkes estimate   =   -1974.82820177 Ry
     estimated scf accuracy    <      44.51647049 Ry

     iteration # 65     ecut=    30.00 Ry     beta=0.70
     Davidson diagonalization with overlap
     ethr =  1.00E-02,  avg # of iterations =  5.0

     negative rho (up, down):  4.692E-02 0.000E+00

     total cpu time spent up to now is        6.8 secs

     total energy              =      26.40624320 Ry
     Harris-Foulkes estimate   =    -534.96492782 Ry
     estimated scf accuracy    <      38.39419840 Ry

     iteration # 66     ecut=    30.00 Ry     beta=0.70
     Davidson diagonalization with overlap
     ethr =  1.00E-02,  avg # of iterations =  8.0

     negative rho (up, down):  2.640E-01 0.000E+00

     total cpu time spent up to now is        7.0 secs

     total energy              =      41.61154097 Ry
     Harris-Foulkes estimate   =    -276.90477240 Ry
     estimated scf accuracy    <      14.07694923 Ry

     iteration # 67     ecut=    30.00 Ry     beta=0.70
     Davidson diagonalization with overlap
     ethr =  1.00E-02,  avg # of iterations =  7.0

     negative rho (up, down):  2.652E-01 0.000E+00

     total cpu time spent up to now is        7.0 secs

     total energy              =     149.13464243 Ry
     Harris-Foulkes estimate   =   -1024.83370828 Ry
     estimated scf accuracy    <      22.55090129 Ry

     iteration # 68     ecut=    30.00 Ry     beta=0.70
     Davidson diagonalization with overlap
     ethr =  1.00E-02,  avg # of iterations =  8.0

     negative rho (up, down):  3.664E-01 0.000E+00

     total cpu time spent up to now is        7.1 secs

     total energy              =   -1165.99169771 Ry
     Harris-Foulkes estimate   =   -4669.84301855 Ry
     estimated scf accuracy    <      35.11979223 Ry

     iteration # 69     ecut=    30.00 Ry     beta=0.70
     Davidson diagonalization with overlap
     ethr =  1.00E-02,  avg # of iterations =  4.0

     negative rho (up, down):  3.145E-01 0.000E+00

     total cpu time spent up to now is        7.2 secs

     total energy              =    -408.96743727 Ry
     Harris-Foulkes estimate   =   -7210.02752574 Ry
     estimated scf accuracy    <      32.49678117 Ry

     iteration # 70     ecut=    30.00 Ry     beta=0.70
     Davidson diagonalization with overlap
     ethr =  1.00E-02,  avg # of iterations =  5.0

     negative rho (up, down):  3.072E-01 0.000E+00

     total cpu time spent up to now is        7.3 secs

     total energy              =   -1909.31925506 Ry
     Harris-Foulkes estimate   =   -2346.94235308 Ry
     estimated scf accuracy    <      30.53521058 Ry

     iteration # 71     ecut=    30.00 Ry     beta=0.70
     Davidson diagonalization with overlap
     ethr =  1.00E-02,  avg # of iterations =  7.0

     negative rho (up, down):  5.422E-01 0.000E+00

     total cpu time spent up to now is        7.4 secs

     total energy              =     -74.08206246 Ry
     Harris-Foulkes estimate   =   -6353.56376905 Ry
     estimated scf accuracy    <      19.07673402 Ry

     iteration # 72     ecut=    30.00 Ry     beta=0.70
     Davidson diagonalization with overlap
     ethr =  1.00E-02,  avg # of iterations =  7.0

     negative rho (up, down):  6.613E-01 0.000E+00

     total cpu time spent up to now is        7.5 secs

     total energy              =   -1444.83136862 Ry
     Harris-Foulkes estimate   =   -1267.69089988 Ry
     estimated scf accuracy    <      41.87308171 Ry

     iteration # 73     ecut=    30.00 Ry     beta=0.70
     Davidson diagonalization with overlap
     ethr =  1.00E-02,  avg # of iterations = 11.0

     negative rho (up, down):  6.115E-01 0.000E+00

     total cpu time spent up to now is        7.6 secs

     total energy              =    -612.16287230 Ry
     Harris-Foulkes estimate   =   -3868.60348347 Ry
     estimated scf accuracy    <      29.99559410 Ry

     iteration # 74     ecut=    30.00 Ry     beta=0.70
     Davidson diagonalization with overlap
     ethr =  1.00E-02,  avg # of iterations =  9.0

     negative rho (up, down):  7.441E-01 0.000E+00

     total cpu time spent up to now is        7.6 secs

     total energy              =    -584.19083496 Ry
     Harris-Foulkes estimate   =   -1933.66073168 Ry
     estimated scf accuracy    <      28.47028406 Ry

     iteration # 75     ecut=    30.00 Ry     beta=0.70
     Davidson diagonalization with overlap
     ethr =  1.00E-02,  avg # of iterations =  9.0

     negative rho (up, down):  1.028E+00 0.000E+00

     total cpu time spent up to now is        7.7 secs

     total energy              =    -445.74462247 Ry
     Harris-Foulkes estimate   =   -9204.97800783 Ry
     estimated scf accuracy    <      34.45286758 Ry

     iteration # 76     ecut=    30.00 Ry     beta=0.70
     Davidson diagonalization with overlap
     ethr =  1.00E-02,  avg # of iterations =  9.0

     negative rho (up, down):  9.299E-01 0.000E+00

     total cpu time spent up to now is        7.8 secs

     total energy              =     -77.51977910 Ry
     Harris-Foulkes estimate   =  -23739.75454419 Ry
     estimated scf accuracy    <      24.94334284 Ry

     iteration # 77     ecut=    30.00 Ry     beta=0.70
     Davidson diagonalization with overlap
     ethr =  1.00E-02,  avg # of iterations =  7.0

     negative rho (up, down):  1.025E+00 0.000E+00

     total cpu time spent up to now is        7.9 secs

     total energy              =    -145.29661913 Ry
     Harris-Foulkes estimate   =   -2479.26800343 Ry
     estimated scf accuracy    <      25.34494523 Ry

     iteration # 78     ecut=    30.00 Ry     beta=0.70
     Davidson diagonalization with overlap
     ethr =  1.00E-02,  avg # of iterations =  6.0

     negative rho (up, down):  9.794E-01 0.000E+00

     total cpu time spent up to now is        8.0 secs

     total energy              =      48.74188857 Ry
     Harris-Foulkes estimate   =   -5423.40909186 Ry
     estimated scf accuracy    <      16.54625407 Ry

     iteration # 79     ecut=    30.00 Ry     beta=0.70
     Davidson diagonalization with overlap
     ethr =  1.00E-02,  avg # of iterations =  8.0

     negative rho (up, down):  2.923E-01 0.000E+00

     total cpu time spent up to now is        8.1 secs

     total energy              =      90.86242339 Ry
     Harris-Foulkes estimate   =   -3812.61813188 Ry
     estimated scf accuracy    <      19.56674158 Ry

     iteration # 80     ecut=    30.00 Ry     beta=0.70
     Davidson diagonalization with overlap
     ethr =  1.00E-02,  avg # of iterations =  9.0

     negative rho (up, down):  2.320E-01 0.000E+00

     total cpu time spent up to now is        8.2 secs

     total energy              =     -25.33482872 Ry
     Harris-Foulkes estimate   =    -529.38985400 Ry
     estimated scf accuracy    <      10.03945910 Ry

     iteration # 81     ecut=    30.00 Ry     beta=0.70
     Davidson diagonalization with overlap
     ethr =  1.00E-02,  avg # of iterations =  7.0

     negative rho (up, down):  4.190E-03 0.000E+00

     total cpu time spent up to now is        8.3 secs

     total energy              =      83.75841435 Ry
     Harris-Foulkes estimate   =    -596.75229208 Ry
     estimated scf accuracy    <      15.67027843 Ry

     iteration # 82     ecut=    30.00 Ry     beta=0.70
     Davidson diagonalization with overlap
     ethr =  1.00E-02,  avg # of iterations = 10.0

     negative rho (up, down):  2.614E-03 0.000E+00

     total cpu time spent up to now is        8.4 secs

     total energy              =     -14.83087407 Ry
     Harris-Foulkes estimate   =     -48.59679251 Ry
     estimated scf accuracy    <      15.17377050 Ry

     iteration # 83     ecut=    30.00 Ry     beta=0.70
     Davidson diagonalization with overlap
     ethr =  1.00E-02,  avg # of iterations =  3.0

     negative rho (up, down):  2.994E-03 0.000E+00

     total cpu time spent up to now is        8.4 secs

     total energy              =     -37.71594179 Ry
     Harris-Foulkes estimate   =     -39.22318194 Ry
     estimated scf accuracy    <      13.86696598 Ry

     iteration # 84     ecut=    30.00 Ry     beta=0.70
     Davidson diagonalization with overlap
     ethr =  1.00E-02,  avg # of iterations =  1.0

     negative rho (up, down):  1.230E-01 0.000E+00

     total cpu time spent up to now is        8.5 secs

     total energy              =     -35.02327455 Ry
     Harris-Foulkes estimate   =     -37.72897097 Ry
     estimated scf accuracy    <      11.51376242 Ry

     iteration # 85     ecut=    30.00 Ry     beta=0.70
     Davidson diagonalization with overlap
     ethr =  1.00E-02,  avg # of iterations =  6.0

     negative rho (up, down):  2.000E-01 0.000E+00

     total cpu time spent up to now is        8.6 secs

     total energy              =      19.82468582 Ry
     Harris-Foulkes estimate   =    -109.07557683 Ry
     estimated scf accuracy    <      14.02094872 Ry

     iteration # 86     ecut=    30.00 Ry     beta=0.70
     Davidson diagonalization with overlap
     ethr =  1.00E-02,  avg # of iterations =  6.0

     negative rho (up, down):  2.162E-01 0.000E+00

     total cpu time spent up to now is        8.6 secs

     total energy              =      28.44266211 Ry
     Harris-Foulkes estimate   =    -376.71559564 Ry
     estimated scf accuracy    <      31.61974390 Ry

     iteration # 87     ecut=    30.00 Ry     beta=0.70
     Davidson diagonalization with overlap
     ethr =  1.00E-02,  avg # of iterations =  7.0

     negative rho (up, down):  3.855E-01 0.000E+00

     total cpu time spent up to now is        8.7 secs

     total energy              =     -24.24467224 Ry
     Harris-Foulkes estimate   =    -749.52212851 Ry
     estimated scf accuracy    <      10.20217769 Ry

     iteration # 88     ecut=    30.00 Ry     beta=0.70
     Davidson diagonalization with overlap
     ethr =  1.00E-02,  avg # of iterations =  4.0

     negative rho (up, down):  2.069E-01 0.000E+00

     total cpu time spent up to now is        8.8 secs

     total energy              =   -4168.05807337 Ry
     Harris-Foulkes estimate   =    -549.53185986 Ry
     estimated scf accuracy    <      19.36723821 Ry

     iteration # 89     ecut=    30.00 Ry     beta=0.70
     Davidson diagonalization with overlap
     ethr =  1.00E-02,  avg # of iterations =  5.0

     negative rho (up, down):  2.687E-01 0.000E+00

     total cpu time spent up to now is        8.8 secs

     total energy              =    -610.52514080 Ry
     Harris-Foulkes estimate   =   -7686.72982672 Ry
     estimated scf accuracy    <      13.56324294 Ry

     iteration # 90     ecut=    30.00 Ry     beta=0.70
     Davidson diagonalization with overlap
     ethr =  1.00E-02,  avg # of iterations =  7.0

     negative rho (up, down):  2.511E-01 0.000E+00

     total cpu time spent up to now is        8.9 secs

     total energy              =      46.68742474 Ry
     Harris-Foulkes estimate   =   -3603.51710170 Ry
     estimated scf accuracy    <      40.39447163 Ry

     iteration # 91     ecut=    30.00 Ry     beta=0.70
     Davidson diagonalization with overlap
     ethr =  1.00E-02,  avg # of iterations =  5.0

     negative rho (up, down):  1.606E-02 0.000E+00

     total cpu time spent up to now is        9.0 secs

     total energy              =      73.79102354 Ry
     Harris-Foulkes estimate   =    -224.76772294 Ry
     estimated scf accuracy    <      40.85694274 Ry

     iteration # 92     ecut=    30.00 Ry     beta=0.70
     Davidson diagonalization with overlap
     ethr =  1.00E-02,  avg # of iterations =  8.0

     negative rho (up, down):  1.303E-01 0.000E+00

     total cpu time spent up to now is        9.1 secs

     total energy              =     -72.87097672 Ry
     Harris-Foulkes estimate   =     -85.45189044 Ry
     estimated scf accuracy    <      14.82876605 Ry

     iteration # 93     ecut=    30.00 Ry     beta=0.70
     Davidson diagonalization with overlap
     ethr =  1.00E-02,  avg # of iterations =  5.0

     negative rho (up, down):  4.569E-01 0.000E+00

     total cpu time spent up to now is        9.2 secs

     total energy              =      47.78413575 Ry
     Harris-Foulkes estimate   =    -295.76568891 Ry
     estimated scf accuracy    <      30.76137901 Ry

     iteration # 94     ecut=    30.00 Ry     beta=0.70
     Davidson diagonalization with overlap
     ethr =  1.00E-02,  avg # of iterations =  7.0

     negative rho (up, down):  4.909E-01 0.000E+00

     total cpu time spent up to now is        9.2 secs

     total energy              =       3.83369139 Ry
     Harris-Foulkes estimate   =    -434.80326881 Ry
     estimated scf accuracy    <      29.70734616 Ry

     iteration # 95     ecut=    30.00 Ry     beta=0.70
     Davidson diagonalization with overlap
     ethr =  1.00E-02,  avg # of iterations =  7.0

     negative rho (up, down):  2.635E-01 0.000E+00

     total cpu time spent up to now is        9.3 secs

     total energy              =     -76.48906201 Ry
     Harris-Foulkes estimate   =    -465.33450213 Ry
     estimated scf accuracy    <      34.36991397 Ry

     iteration # 96     ecut=    30.00 Ry     beta=0.70
     Davidson diagonalization with overlap
     ethr =  1.00E-02,  avg # of iterations =  7.0

     negative rho (up, down):  6.451E-01 0.000E+00

     total cpu time spent up to now is        9.4 secs

     total energy              =    -294.91599548 Ry
     Harris-Foulkes estimate   =   -6579.62506472 Ry
     estimated scf accuracy    <      33.66574009 Ry

     iteration # 97     ecut=    30.00 Ry     beta=0.70
     Davidson diagonalization with overlap
     ethr =  1.00E-02,  avg # of iterations =  8.0

     negative rho (up, down):  7.573E-01 0.000E+00

     total cpu time spent up to now is        9.5 secs

     total energy              =   -1313.50733926 Ry
     Harris-Foulkes estimate   =   -3412.59659106 Ry
     estimated scf accuracy    <      29.05601812 Ry

     iteration # 98     ecut=    30.00 Ry     beta=0.70
     Davidson diagonalization with overlap
     ethr =  1.00E-02,  avg # of iterations =  6.0

     negative rho (up, down):  7.864E-01 0.000E+00

     total cpu time spent up to now is        9.6 secs

     total energy              =    -673.81031100 Ry
     Harris-Foulkes estimate   =   -6614.58235828 Ry
     estimated scf accuracy    <      31.64916604 Ry

     iteration # 99     ecut=    30.00 Ry     beta=0.70
     Davidson diagonalization with overlap
     ethr =  1.00E-02,  avg # of iterations =  8.0

     negative rho (up, down):  7.710E-01 0.000E+00

     total cpu time spent up to now is        9.7 secs

     total energy              =    3044.63482462 Ry
     Harris-Foulkes estimate   =  -18006.99058126 Ry
     estimated scf accuracy    <      29.47780929 Ry

     iteration #100     ecut=    30.00 Ry     beta=0.70
     Davidson diagonalization with overlap
     ethr =  1.00E-02,  avg # of iterations =  8.0

     negative rho (up, down):  4.367E-01 0.000E+00

     total cpu time spent up to now is        9.8 secs

     total energy              =       3.70416180 Ry
     Harris-Foulkes estimate   =   -9894.59631989 Ry
     estimated scf accuracy    <      22.82309609 Ry

     End of self-consistent calculation

     convergence NOT achieved after 100 iterations: stopping

     Writing output data file pwscf.save
 
     init_run     :      0.17s CPU      0.19s WALL (       1 calls)
     electrons    :      7.94s CPU      9.17s WALL (       2 calls)
     update_pot   :      0.12s CPU      0.16s WALL (       1 calls)
     forces       :      0.04s CPU      0.04s WALL (       1 calls)

     Called by init_run:
     wfcinit      :      0.01s CPU      0.02s WALL (       1 calls)
     potinit      :      0.05s CPU      0.05s WALL (       1 calls)

     Called by electrons:
     c_bands      :      4.69s CPU      4.85s WALL (     122 calls)
     sum_band     :      0.63s CPU      0.66s WALL (     122 calls)
     v_of_rho     :      1.57s CPU      1.62s WALL (     124 calls)
     mix_rho      :      0.92s CPU      1.76s WALL (     122 calls)

     Called by c_bands:
     init_us_2    :      0.02s CPU      0.02s WALL (     245 calls)
     cegterg      :      4.65s CPU      4.78s WALL (     122 calls)

     Called by sum_band:

     Called by *egterg:
     h_psi        :      3.87s CPU      3.97s WALL (     781 calls)
     g_psi        :      0.05s CPU      0.05s WALL (     658 calls)
     cdiaghg      :      0.29s CPU      0.30s WALL (     779 calls)

     Called by h_psi:
     h_psi:pot    :      3.85s CPU      3.95s WALL (     781 calls)
     h_psi:calbec :      0.04s CPU      0.05s WALL (     781 calls)
     vloc_psi     :      3.79s CPU      3.88s WALL (     781 calls)
     add_vuspsi   :      0.01s CPU      0.01s WALL (     781 calls)

     General routines
     calbec       :      0.04s CPU      0.05s WALL (     785 calls)
     fft          :      0.92s CPU      0.96s WALL (    1366 calls)
     fftw         :      3.87s CPU      3.98s WALL (    9712 calls)
     davcio       :      0.16s CPU      0.73s WALL (    2276 calls)
 
     Parallel routines
     fft_scatter  :      1.40s CPU      1.48s WALL (   11078 calls)
 
     PWSCF        :     8.46s CPU         9.90s WALL

 
   This run was terminated on:  14: 1: 4  13Feb2018            

=------------------------------------------------------------------------------=
   JOB DONE.
=------------------------------------------------------------------------------=
