
     Program PWSCF v.6.0 (svn rev. 13079) starts on 13Feb2018 at 14:14: 1 

     This program is part of the open-source Quantum ESPRESSO suite
     for quantum simulation of materials; please cite
         "P. Giannozzi et al., J. Phys.:Condens. Matter 21 395502 (2009);
          URL http://www.quantum-espresso.org", 
     in publications or presentations arising from this work. More details at
     http://www.quantum-espresso.org/quote

     Parallel version (MPI), running on    28 processors
     R & G space division:  proc/nbgrp/npool/nimage =      28
     Reading input from inputs/MD-H2O-round1/233.in

     Current dimensions of program PWSCF are:
     Max number of different atomic species (ntypx) = 10
     Max number of k-points (npk) =  40000
     Max angular momentum in pseudopotentials (lmaxx) =  3

     Subspace diagonalization in iterative solution of the eigenvalue problem:
     a serial algorithm will be used

 
     Parallelization info
     --------------------
     sticks:   dense  smooth     PW     G-vecs:    dense   smooth      PW
     Min         136     136     33                 6338     6338     787
     Max         137     137     34                 6341     6341     792
     Sum        3809    3809    949               177509   177509   22119
 


     bravais-lattice index     =            1
     lattice parameter (alat)  =      20.0000  a.u.
     unit-cell volume          =    8000.0000 (a.u.)^3
     number of atoms/cell      =            3
     number of atomic types    =            2
     number of electrons       =         8.00
     number of Kohn-Sham states=            8
     kinetic-energy cutoff     =      30.0000  Ry
     charge density cutoff     =     120.0000  Ry
     convergence threshold     =      1.0E-08
     mixing beta               =       0.7000
     number of iterations used =            8  plain     mixing
     Exchange-correlation      = BLYP ( 1  3  1  3 0 0)
     nstep                     =         5000


     celldm(1)=  20.000000  celldm(2)=   0.000000  celldm(3)=   0.000000
     celldm(4)=   0.000000  celldm(5)=   0.000000  celldm(6)=   0.000000

     crystal axes: (cart. coord. in units of alat)
               a(1) = (   1.000000   0.000000   0.000000 )  
               a(2) = (   0.000000   1.000000   0.000000 )  
               a(3) = (   0.000000   0.000000   1.000000 )  

     reciprocal axes: (cart. coord. in units 2 pi/alat)
               b(1) = (  1.000000  0.000000  0.000000 )  
               b(2) = (  0.000000  1.000000  0.000000 )  
               b(3) = (  0.000000  0.000000  1.000000 )  


     PseudoPot. # 1 for  H read from file:
     ./H.blyp-hgh.UPF
     MD5 check sum: c576e69559cde411e611be972c763230
     Pseudo is Norm-conserving, Zval =  1.0
     Generated in analytical, separable form
     Using radial grid of  929 points,  0 beta functions with: 

     PseudoPot. # 2 for  O read from file:
     ./O.blyp-hgh.UPF
     MD5 check sum: d0b7156309aa9befef28faac7bc56342
     Pseudo is Norm-conserving, Zval =  6.0
     Generated in analytical, separable form
     Using radial grid of 1095 points,  1 beta functions with: 
                l(1) =   0

     atomic species   valence    mass     pseudopotential
        H              1.00     1.01000      H( 1.00)
        O              6.00    16.00000      O( 1.00)

     No symmetry found



   Cartesian axes

     site n.     atom                  positions (alat units)
         1           O   tau(   1) = (   0.4727076   0.7908283   0.0323042  )
         2           H   tau(   2) = (   0.5238665   0.7592072   0.1091304  )
         3           H   tau(   3) = (   0.5054275   0.7702830   1.0814588  )

     number of k points=     1  Marzari-Vanderbilt smearing, width (Ry)=  0.0250
                       cart. coord. in units 2pi/alat
        k(    1) = (   0.0000000   0.0000000   0.0000000), wk =   2.0000000

     Dense  grid:   177509 G-vectors     FFT dimensions: (  72,  72,  72)

     Estimated max dynamical RAM per process >       6.09Mb

     Estimated total allocated dynamical RAM >     170.64Mb

     Initial potential from superposition of free atoms
     Check: negative starting charge=   -0.359193

     starting charge    7.99998, renormalised to    8.00000

     negative rho (up, down):  3.592E-01 0.000E+00
     Starting wfc are    6 randomized atomic wfcs +    2 random wfc

     total cpu time spent up to now is        0.4 secs

     per-process dynamical memory:    18.8 Mb

     Self-consistent Calculation

     iteration #  1     ecut=    30.00 Ry     beta=0.70
     Davidson diagonalization with overlap
     ethr =  1.00E-02,  avg # of iterations =  9.0

     negative rho (up, down):  1.022E-01 0.000E+00

     total cpu time spent up to now is        0.4 secs

     total energy              =     -30.67890844 Ry
     Harris-Foulkes estimate   =     -30.97966881 Ry
     estimated scf accuracy    <       0.34277023 Ry

     iteration #  2     ecut=    30.00 Ry     beta=0.70
     Davidson diagonalization with overlap
     ethr =  4.28E-03,  avg # of iterations =  1.0

     negative rho (up, down):  1.534E-02 0.000E+00

     total cpu time spent up to now is        0.5 secs

     total energy              =     -30.76159874 Ry
     Harris-Foulkes estimate   =     -30.70232208 Ry
     estimated scf accuracy    <       0.01855164 Ry

     iteration #  3     ecut=    30.00 Ry     beta=0.70
     Davidson diagonalization with overlap
     ethr =  2.32E-04,  avg # of iterations =  4.0

     negative rho (up, down):  3.750E-03 0.000E+00

     total cpu time spent up to now is        0.5 secs

     total energy              =     -30.77486652 Ry
     Harris-Foulkes estimate   =     -30.76438084 Ry
     estimated scf accuracy    <       0.00134140 Ry

     iteration #  4     ecut=    30.00 Ry     beta=0.70
     Davidson diagonalization with overlap
     ethr =  1.68E-05,  avg # of iterations = 18.0

     negative rho (up, down):  3.699E-04 0.000E+00

     total cpu time spent up to now is        0.6 secs

     total energy              =     -30.77717001 Ry
     Harris-Foulkes estimate   =     -30.77527705 Ry
     estimated scf accuracy    <       0.00016790 Ry

     iteration #  5     ecut=    30.00 Ry     beta=0.70
     Davidson diagonalization with overlap
     ethr =  2.10E-06,  avg # of iterations = 15.0

     negative rho (up, down):  1.745E-06 0.000E+00

     total cpu time spent up to now is        0.7 secs

     total energy              =     -30.77724280 Ry
     Harris-Foulkes estimate   =     -30.77722028 Ry
     estimated scf accuracy    <       0.00001056 Ry

     iteration #  6     ecut=    30.00 Ry     beta=0.70
     Davidson diagonalization with overlap
     ethr =  1.32E-07,  avg # of iterations =  2.0

     negative rho (up, down):  4.916E-08 0.000E+00

     total cpu time spent up to now is        0.8 secs

     total energy              =     -30.77724628 Ry
     Harris-Foulkes estimate   =     -30.77724522 Ry
     estimated scf accuracy    <       0.00000010 Ry

     iteration #  7     ecut=    30.00 Ry     beta=0.70
     Davidson diagonalization with overlap
     ethr =  1.27E-09,  avg # of iterations =  3.0

     total cpu time spent up to now is        0.8 secs

     total energy              =     -30.77724671 Ry
     Harris-Foulkes estimate   =     -30.77724635 Ry
     estimated scf accuracy    <       0.00000004 Ry

     iteration #  8     ecut=    30.00 Ry     beta=0.70
     Davidson diagonalization with overlap
     ethr =  4.59E-10,  avg # of iterations =  2.0

     total cpu time spent up to now is        0.9 secs

     End of self-consistent calculation

          k = 0.0000 0.0000 0.0000 ( 22119 PWs)   bands (ev):

   -34.0506 -14.8393  -7.6805  -7.6784  -2.2092   0.0676   1.0145   1.0224

     the Fermi energy is    -5.1286 ev

!    total energy              =     -30.77724669 Ry
     Harris-Foulkes estimate   =     -30.77724673 Ry
     estimated scf accuracy    <          4.4E-09 Ry

     convergence has been achieved in   8 iterations

     Forces acting on atoms (Ry/au):

     atom    1 type  2   force =    -1.25867902    0.79084622   -1.89057646
     atom    2 type  1   force =     1.38070749   -0.82623484    2.07102802
     atom    3 type  1   force =    -0.12202847    0.03538863   -0.18045156

     Total force =     3.565231     Total SCF correction =     0.000245

     Molecular Dynamics Calculation

     Starting temperature  =  1000.00 K

     temperature is controlled by Andersen thermostat
     Collision frequency = 1.0000/timestep
     mass H                =     1.01
     mass O                =    16.00
     Time step             =   100.00 a.u.,  4.8378 femto-seconds

     Entering Dynamics:    iteration =     1
                           time      =   0.0048 pico-seconds


     Andersen thermostat:    3 collisions

ATOMIC_POSITIONS (bohr)
O        9.000927910  16.064234189   0.028273913
H       18.095747992  10.793978665  13.445440080
H        9.669919566  15.872366875  20.153449242


     kinetic energy (Ekin) =     0.01960492 Ry
     temperature           =  1031.78953184 K 
     Ekin + Etot (const)   =   -30.75764177 Ry

     Linear momentum :   -0.0000000000   -0.0000000000    0.0000000000

     Writing output data file pwscf.save
     Check: negative starting charge=   -0.359193
     NEW-OLD atomic charge density approx. for the potential
     Check: negative starting charge=   -0.352448

     negative rho (up, down):  8.976E-01 0.000E+00

     total cpu time spent up to now is        1.3 secs

     per-process dynamical memory:    20.4 Mb

     Self-consistent Calculation

     iteration #  1     ecut=    30.00 Ry     beta=0.70
     Davidson diagonalization with overlap
     ethr =  1.00E-06,  avg # of iterations = 17.0

     negative rho (up, down):  1.381E-01 0.000E+00

     total cpu time spent up to now is        1.5 secs

     total energy              =      33.81245213 Ry
     Harris-Foulkes estimate   =    -163.40878549 Ry
     estimated scf accuracy    <      13.88778175 Ry

     iteration #  2     ecut=    30.00 Ry     beta=0.70
     Davidson diagonalization with overlap
     ethr =  1.00E-02,  avg # of iterations =  8.0

     negative rho (up, down):  7.463E-02 0.000E+00

     total cpu time spent up to now is        1.5 secs

     total energy              =      -5.93442376 Ry
     Harris-Foulkes estimate   =     -41.32382436 Ry
     estimated scf accuracy    <       8.44634166 Ry

     iteration #  3     ecut=    30.00 Ry     beta=0.70
     Davidson diagonalization with overlap
     ethr =  1.00E-02,  avg # of iterations =  5.0

     negative rho (up, down):  6.244E-02 0.000E+00

     total cpu time spent up to now is        1.8 secs

     total energy              =     -28.21745823 Ry
     Harris-Foulkes estimate   =     -30.81826056 Ry
     estimated scf accuracy    <       7.10105136 Ry

     iteration #  4     ecut=    30.00 Ry     beta=0.70
     Davidson diagonalization with overlap
     ethr =  1.00E-02,  avg # of iterations =  1.0

     negative rho (up, down):  5.800E-02 0.000E+00

     total cpu time spent up to now is        1.9 secs

     total energy              =     -28.28868964 Ry
     Harris-Foulkes estimate   =     -29.23802074 Ry
     estimated scf accuracy    <       4.87172059 Ry

     iteration #  5     ecut=    30.00 Ry     beta=0.70
     Davidson diagonalization with overlap
     ethr =  1.00E-02,  avg # of iterations =  1.0

     negative rho (up, down):  4.325E-02 0.000E+00

     total cpu time spent up to now is        1.9 secs

     total energy              =     -27.13517104 Ry
     Harris-Foulkes estimate   =     -28.31291905 Ry
     estimated scf accuracy    <       3.36375069 Ry

     iteration #  6     ecut=    30.00 Ry     beta=0.70
     Davidson diagonalization with overlap
     ethr =  1.00E-02,  avg # of iterations =  1.0

     negative rho (up, down):  1.027E-01 0.000E+00

     total cpu time spent up to now is        2.0 secs

     total energy              =     -27.45108383 Ry
     Harris-Foulkes estimate   =     -28.09585615 Ry
     estimated scf accuracy    <       3.31704575 Ry

     iteration #  7     ecut=    30.00 Ry     beta=0.70
     Davidson diagonalization with overlap
     ethr =  1.00E-02,  avg # of iterations =  5.0

     negative rho (up, down):  9.192E-02 0.000E+00

     total cpu time spent up to now is        2.0 secs

     total energy              =     -26.29104288 Ry
     Harris-Foulkes estimate   =     -31.71250372 Ry
     estimated scf accuracy    <       9.78212442 Ry

     iteration #  8     ecut=    30.00 Ry     beta=0.70
     Davidson diagonalization with overlap
     ethr =  1.00E-02,  avg # of iterations =  3.0

     negative rho (up, down):  9.215E-02 0.000E+00

     total cpu time spent up to now is        2.1 secs

     total energy              =     -31.31910709 Ry
     Harris-Foulkes estimate   =     -29.17971434 Ry
     estimated scf accuracy    <       8.19832964 Ry

     iteration #  9     ecut=    30.00 Ry     beta=0.70
     Davidson diagonalization with overlap
     ethr =  1.00E-02,  avg # of iterations =  3.0

     negative rho (up, down):  8.409E-02 0.000E+00

     total cpu time spent up to now is        2.1 secs

     total energy              =     -25.88837795 Ry
     Harris-Foulkes estimate   =     -32.43369255 Ry
     estimated scf accuracy    <       9.69410286 Ry

     iteration # 10     ecut=    30.00 Ry     beta=0.70
     Davidson diagonalization with overlap
     ethr =  1.00E-02,  avg # of iterations =  3.0

     negative rho (up, down):  2.607E-01 0.000E+00

     total cpu time spent up to now is        2.2 secs

     total energy              =      -9.43829439 Ry
     Harris-Foulkes estimate   =     -56.40453929 Ry
     estimated scf accuracy    <      11.08256825 Ry

     iteration # 11     ecut=    30.00 Ry     beta=0.70
     Davidson diagonalization with overlap
     ethr =  1.00E-02,  avg # of iterations =  5.0

     negative rho (up, down):  1.943E-01 0.000E+00

     total cpu time spent up to now is        2.3 secs

     total energy              =     761.89829852 Ry
     Harris-Foulkes estimate   =     -45.26205286 Ry
     estimated scf accuracy    <      21.03789759 Ry

     iteration # 12     ecut=    30.00 Ry     beta=0.70
     Davidson diagonalization with overlap
     ethr =  1.00E-02,  avg # of iterations =  4.0

     negative rho (up, down):  1.334E-02 0.000E+00

     total cpu time spent up to now is        2.3 secs

     total energy              =      24.50058389 Ry
     Harris-Foulkes estimate   =    -146.24732201 Ry
     estimated scf accuracy    <      41.39856408 Ry

     iteration # 13     ecut=    30.00 Ry     beta=0.70
     Davidson diagonalization with overlap
     ethr =  1.00E-02,  avg # of iterations =  4.0

     negative rho (up, down):  4.320E-02 0.000E+00

     total cpu time spent up to now is        2.4 secs

     total energy              =     -36.74222492 Ry
     Harris-Foulkes estimate   =     -62.57081236 Ry
     estimated scf accuracy    <      10.10247693 Ry

     iteration # 14     ecut=    30.00 Ry     beta=0.70
     Davidson diagonalization with overlap
     ethr =  1.00E-02,  avg # of iterations =  5.0

     negative rho (up, down):  3.044E-01 0.000E+00

     total cpu time spent up to now is        2.5 secs

     total energy              =    -300.69799054 Ry
     Harris-Foulkes estimate   =    -351.95380169 Ry
     estimated scf accuracy    <      35.97179569 Ry

     iteration # 15     ecut=    30.00 Ry     beta=0.70
     Davidson diagonalization with overlap
     ethr =  1.00E-02,  avg # of iterations =  7.0

     negative rho (up, down):  9.951E-01 0.000E+00

     total cpu time spent up to now is        2.6 secs

     total energy              =       7.35733058 Ry
     Harris-Foulkes estimate   =    -917.97417815 Ry
     estimated scf accuracy    <      57.56684576 Ry

     iteration # 16     ecut=    30.00 Ry     beta=0.70
     Davidson diagonalization with overlap
     ethr =  1.00E-02,  avg # of iterations =  9.0

     negative rho (up, down):  1.178E+00 0.000E+00

     total cpu time spent up to now is        2.7 secs

     total energy              =    -614.85213220 Ry
     Harris-Foulkes estimate   =    -530.83118633 Ry
     estimated scf accuracy    <      50.92283919 Ry

     iteration # 17     ecut=    30.00 Ry     beta=0.70
     Davidson diagonalization with overlap
     ethr =  1.00E-02,  avg # of iterations =  5.0

     negative rho (up, down):  1.430E+00 0.000E+00

     total cpu time spent up to now is        2.7 secs

     total energy              =   -2012.97382979 Ry
     Harris-Foulkes estimate   =   -8689.78563016 Ry
     estimated scf accuracy    <      49.61714328 Ry

     iteration # 18     ecut=    30.00 Ry     beta=0.70
     Davidson diagonalization with overlap
     ethr =  1.00E-02,  avg # of iterations = 13.0

     negative rho (up, down):  1.696E+00 0.000E+00

     total cpu time spent up to now is        2.9 secs

     total energy              =      54.55282611 Ry
     Harris-Foulkes estimate   =   -8135.07982110 Ry
     estimated scf accuracy    <      55.29957841 Ry

     iteration # 19     ecut=    30.00 Ry     beta=0.70
     Davidson diagonalization with overlap
     ethr =  1.00E-02,  avg # of iterations =  6.0

     negative rho (up, down):  1.811E+00 0.000E+00

     total cpu time spent up to now is        3.0 secs

     total energy              =   -1174.56908774 Ry
     Harris-Foulkes estimate   =    -383.84449877 Ry
     estimated scf accuracy    <      55.28536977 Ry

     iteration # 20     ecut=    30.00 Ry     beta=0.70
     Davidson diagonalization with overlap
     ethr =  1.00E-02,  avg # of iterations =  8.0

     negative rho (up, down):  1.954E+00 0.000E+00

     total cpu time spent up to now is        3.0 secs

     total energy              =      98.15420831 Ry
     Harris-Foulkes estimate   =  -19436.78223544 Ry
     estimated scf accuracy    <      55.11177766 Ry

     iteration # 21     ecut=    30.00 Ry     beta=0.70
     Davidson diagonalization with overlap
     ethr =  1.00E-02,  avg # of iterations =  8.0

     negative rho (up, down):  2.199E+00 0.000E+00

     total cpu time spent up to now is        3.1 secs

     total energy              =      18.99851653 Ry
     Harris-Foulkes estimate   =    -890.93295330 Ry
     estimated scf accuracy    <      44.75230676 Ry

     iteration # 22     ecut=    30.00 Ry     beta=0.70
     Davidson diagonalization with overlap
     ethr =  1.00E-02,  avg # of iterations =  8.0

     negative rho (up, down):  2.744E+00 0.000E+00

     total cpu time spent up to now is        3.2 secs

     total energy              =   -3000.34702127 Ry
     Harris-Foulkes estimate   =   -8785.94466934 Ry
     estimated scf accuracy    <      39.39000332 Ry

     iteration # 23     ecut=    30.00 Ry     beta=0.70
     Davidson diagonalization with overlap
     ethr =  1.00E-02,  avg # of iterations =  7.0

     negative rho (up, down):  3.028E+00 0.000E+00

     total cpu time spent up to now is        3.3 secs

     total energy              =    -551.55254212 Ry
     Harris-Foulkes estimate   =   -7369.26163022 Ry
     estimated scf accuracy    <      31.39137227 Ry

     iteration # 24     ecut=    30.00 Ry     beta=0.70
     Davidson diagonalization with overlap
     ethr =  1.00E-02,  avg # of iterations =  9.0

     negative rho (up, down):  3.217E-01 0.000E+00

     total cpu time spent up to now is        3.4 secs

     total energy              =     -30.78948028 Ry
     Harris-Foulkes estimate   =  -11158.43373641 Ry
     estimated scf accuracy    <      26.68987570 Ry

     iteration # 25     ecut=    30.00 Ry     beta=0.70
     Davidson diagonalization with overlap
     ethr =  1.00E-02,  avg # of iterations =  5.0

     negative rho (up, down):  1.440E-01 0.000E+00

     total cpu time spent up to now is        3.5 secs

     total energy              =     142.68829500 Ry
     Harris-Foulkes estimate   =   -1151.00572756 Ry
     estimated scf accuracy    <      17.01337866 Ry

     iteration # 26     ecut=    30.00 Ry     beta=0.70
     Davidson diagonalization with overlap
     ethr =  1.00E-02,  avg # of iterations =  7.0

     negative rho (up, down):  2.392E-01 0.000E+00

     total cpu time spent up to now is        3.6 secs

     total energy              =      86.72654071 Ry
     Harris-Foulkes estimate   =    -791.64215399 Ry
     estimated scf accuracy    <      25.58359213 Ry

     iteration # 27     ecut=    30.00 Ry     beta=0.70
     Davidson diagonalization with overlap
     ethr =  1.00E-02,  avg # of iterations =  7.0

     negative rho (up, down):  2.073E-01 0.000E+00

     total cpu time spent up to now is        3.7 secs

     total energy              =    -967.80100703 Ry
     Harris-Foulkes estimate   =    -387.37690116 Ry
     estimated scf accuracy    <      28.00425146 Ry

     iteration # 28     ecut=    30.00 Ry     beta=0.70
     Davidson diagonalization with overlap
     ethr =  1.00E-02,  avg # of iterations =  6.0

     negative rho (up, down):  2.193E-03 0.000E+00

     total cpu time spent up to now is        3.8 secs

     total energy              =     156.23519872 Ry
     Harris-Foulkes estimate   =   -3318.73498373 Ry
     estimated scf accuracy    <      18.57669083 Ry

     iteration # 29     ecut=    30.00 Ry     beta=0.70
     Davidson diagonalization with overlap
     ethr =  1.00E-02,  avg # of iterations = 10.0

     negative rho (up, down):  5.469E-03 0.000E+00

     total cpu time spent up to now is        3.9 secs

     total energy              =     -56.73618462 Ry
     Harris-Foulkes estimate   =     -75.13713058 Ry
     estimated scf accuracy    <      66.04663273 Ry

     iteration # 30     ecut=    30.00 Ry     beta=0.70
     Davidson diagonalization with overlap
     ethr =  1.00E-02,  avg # of iterations =  4.0

     negative rho (up, down):  4.069E-03 0.000E+00

     total cpu time spent up to now is        3.9 secs

     total energy              =     -21.44042505 Ry
     Harris-Foulkes estimate   =    -555.21586863 Ry
     estimated scf accuracy    <      23.16744041 Ry

     iteration # 31     ecut=    30.00 Ry     beta=0.70
     Davidson diagonalization with overlap
     ethr =  1.00E-02,  avg # of iterations =  4.0

     negative rho (up, down):  1.966E-02 0.000E+00

     total cpu time spent up to now is        4.0 secs

     total energy              =     -12.76466185 Ry
     Harris-Foulkes estimate   =    -161.30882609 Ry
     estimated scf accuracy    <      24.98785995 Ry

     iteration # 32     ecut=    30.00 Ry     beta=0.70
     Davidson diagonalization with overlap
     ethr =  1.00E-02,  avg # of iterations =  7.0

     negative rho (up, down):  3.783E-02 0.000E+00

     total cpu time spent up to now is        4.0 secs

     total energy              =     -79.75935883 Ry
     Harris-Foulkes estimate   =     -65.35200092 Ry
     estimated scf accuracy    <      51.63198305 Ry

     iteration # 33     ecut=    30.00 Ry     beta=0.70
     Davidson diagonalization with overlap
     ethr =  1.00E-02,  avg # of iterations =  4.0

     negative rho (up, down):  3.940E-02 0.000E+00

     total cpu time spent up to now is        4.1 secs

     total energy              =     -30.41608815 Ry
     Harris-Foulkes estimate   =     -84.89195153 Ry
     estimated scf accuracy    <      65.89413171 Ry

     iteration # 34     ecut=    30.00 Ry     beta=0.70
     Davidson diagonalization with overlap
     ethr =  1.00E-02,  avg # of iterations =  8.0

     negative rho (up, down):  2.945E-01 0.000E+00

     total cpu time spent up to now is        4.2 secs

     total energy              =      56.55084007 Ry
     Harris-Foulkes estimate   =    -198.72768726 Ry
     estimated scf accuracy    <      19.85458910 Ry

     iteration # 35     ecut=    30.00 Ry     beta=0.70
     Davidson diagonalization with overlap
     ethr =  1.00E-02,  avg # of iterations =  8.0

     negative rho (up, down):  2.376E-01 0.000E+00

     total cpu time spent up to now is        4.3 secs

     total energy              =      17.55343242 Ry
     Harris-Foulkes estimate   =     -95.98346170 Ry
     estimated scf accuracy    <      43.58480937 Ry

     iteration # 36     ecut=    30.00 Ry     beta=0.70
     Davidson diagonalization with overlap
     ethr =  1.00E-02,  avg # of iterations =  9.0

     negative rho (up, down):  1.506E-03 0.000E+00

     total cpu time spent up to now is        4.4 secs

     total energy              =     109.85256548 Ry
     Harris-Foulkes estimate   =    -514.88637490 Ry
     estimated scf accuracy    <      38.23182465 Ry

     iteration # 37     ecut=    30.00 Ry     beta=0.70
     Davidson diagonalization with overlap
     ethr =  1.00E-02,  avg # of iterations =  7.0

     negative rho (up, down):  1.422E-02 0.000E+00

     total cpu time spent up to now is        4.5 secs

     total energy              =      24.91175333 Ry
     Harris-Foulkes estimate   =    -111.40448956 Ry
     estimated scf accuracy    <      19.70038289 Ry

     iteration # 38     ecut=    30.00 Ry     beta=0.70
     Davidson diagonalization with overlap
     ethr =  1.00E-02,  avg # of iterations =  6.0

     negative rho (up, down):  1.533E-03 0.000E+00

     total cpu time spent up to now is        4.6 secs

     total energy              =      34.58490907 Ry
     Harris-Foulkes estimate   =    -112.08070885 Ry
     estimated scf accuracy    <      15.59752714 Ry

     iteration # 39     ecut=    30.00 Ry     beta=0.70
     Davidson diagonalization with overlap
     ethr =  1.00E-02,  avg # of iterations =  5.0

     negative rho (up, down):  1.463E-05 0.000E+00

     total cpu time spent up to now is        4.6 secs

     total energy              =     -11.85996686 Ry
     Harris-Foulkes estimate   =     -59.65672696 Ry
     estimated scf accuracy    <      18.22665160 Ry

     iteration # 40     ecut=    30.00 Ry     beta=0.70
     Davidson diagonalization with overlap
     ethr =  1.00E-02,  avg # of iterations =  6.0

     negative rho (up, down):  1.319E-02 0.000E+00

     total cpu time spent up to now is        4.7 secs

     total energy              =     -32.68665716 Ry
     Harris-Foulkes estimate   =     -37.82894609 Ry
     estimated scf accuracy    <      16.21385163 Ry

     iteration # 41     ecut=    30.00 Ry     beta=0.70
     Davidson diagonalization with overlap
     ethr =  1.00E-02,  avg # of iterations =  4.0

     total cpu time spent up to now is        4.8 secs

     total energy              =       9.03374601 Ry
     Harris-Foulkes estimate   =    -295.30398714 Ry
     estimated scf accuracy    <       4.82604216 Ry

     iteration # 42     ecut=    30.00 Ry     beta=0.70
     Davidson diagonalization with overlap
     ethr =  1.00E-02,  avg # of iterations =  5.0

     negative rho (up, down):  2.918E-02 0.000E+00

     total cpu time spent up to now is        4.8 secs

     total energy              =     -28.52809360 Ry
     Harris-Foulkes estimate   =     -32.85417145 Ry
     estimated scf accuracy    <       9.48098442 Ry

     iteration # 43     ecut=    30.00 Ry     beta=0.70
     Davidson diagonalization with overlap
     ethr =  1.00E-02,  avg # of iterations =  7.0

     negative rho (up, down):  3.181E-02 0.000E+00

     total cpu time spent up to now is        4.9 secs

     total energy              =    -175.96892489 Ry
     Harris-Foulkes estimate   =     -71.92144401 Ry
     estimated scf accuracy    <      11.88582684 Ry

     iteration # 44     ecut=    30.00 Ry     beta=0.70
     Davidson diagonalization with overlap
     ethr =  1.00E-02,  avg # of iterations =  5.0

     negative rho (up, down):  4.268E-02 0.000E+00

     total cpu time spent up to now is        5.0 secs

     total energy              =      46.08377539 Ry
     Harris-Foulkes estimate   =    -386.46931964 Ry
     estimated scf accuracy    <      25.05321196 Ry

     iteration # 45     ecut=    30.00 Ry     beta=0.70
     Davidson diagonalization with overlap
     ethr =  1.00E-02,  avg # of iterations =  5.0

     negative rho (up, down):  1.291E-01 0.000E+00

     total cpu time spent up to now is        5.0 secs

     total energy              =    -165.20062411 Ry
     Harris-Foulkes estimate   =    -128.26434991 Ry
     estimated scf accuracy    <      18.02192288 Ry

     iteration # 46     ecut=    30.00 Ry     beta=0.70
     Davidson diagonalization with overlap
     ethr =  1.00E-02,  avg # of iterations =  7.0

     negative rho (up, down):  6.804E-02 0.000E+00

     total cpu time spent up to now is        5.1 secs

     total energy              =     109.32569393 Ry
     Harris-Foulkes estimate   =   -1108.40078122 Ry
     estimated scf accuracy    <      40.38260019 Ry

     iteration # 47     ecut=    30.00 Ry     beta=0.70
     Davidson diagonalization with overlap
     ethr =  1.00E-02,  avg # of iterations =  8.0

     negative rho (up, down):  9.150E-02 0.000E+00

     total cpu time spent up to now is        5.2 secs

     total energy              =     -49.21351388 Ry
     Harris-Foulkes estimate   =     -29.49931571 Ry
     estimated scf accuracy    <       4.98479718 Ry

     iteration # 48     ecut=    30.00 Ry     beta=0.70
     Davidson diagonalization with overlap
     ethr =  1.00E-02,  avg # of iterations =  5.0

     negative rho (up, down):  4.039E-02 0.000E+00

     total cpu time spent up to now is        5.3 secs

     total energy              =      28.01354612 Ry
     Harris-Foulkes estimate   =    -964.83223922 Ry
     estimated scf accuracy    <      21.98109337 Ry

     iteration # 49     ecut=    30.00 Ry     beta=0.70
     Davidson diagonalization with overlap
     ethr =  1.00E-02,  avg # of iterations =  6.0

     negative rho (up, down):  5.123E-02 0.000E+00

     total cpu time spent up to now is        5.4 secs

     total energy              =      48.14526239 Ry
     Harris-Foulkes estimate   =    -337.58195626 Ry
     estimated scf accuracy    <      39.70064897 Ry

     iteration # 50     ecut=    30.00 Ry     beta=0.70
     Davidson diagonalization with overlap
     ethr =  1.00E-02,  avg # of iterations =  5.0

     negative rho (up, down):  1.588E-01 0.000E+00

     total cpu time spent up to now is        5.4 secs

     total energy              =    -191.50983088 Ry
     Harris-Foulkes estimate   =    -146.55858415 Ry
     estimated scf accuracy    <      30.73542388 Ry

     iteration # 51     ecut=    30.00 Ry     beta=0.70
     Davidson diagonalization with overlap
     ethr =  1.00E-02,  avg # of iterations =  6.0

     negative rho (up, down):  1.030E-01 0.000E+00

     total cpu time spent up to now is        5.5 secs

     total energy              =      53.41481942 Ry
     Harris-Foulkes estimate   =   -2935.49046616 Ry
     estimated scf accuracy    <      25.43656007 Ry

     iteration # 52     ecut=    30.00 Ry     beta=0.70
     Davidson diagonalization with overlap
     ethr =  1.00E-02,  avg # of iterations =  7.0

     negative rho (up, down):  7.485E-02 0.000E+00

     total cpu time spent up to now is        5.6 secs

     total energy              =      35.21618516 Ry
     Harris-Foulkes estimate   =    -401.77760209 Ry
     estimated scf accuracy    <      32.48938683 Ry

     iteration # 53     ecut=    30.00 Ry     beta=0.70
     Davidson diagonalization with overlap
     ethr =  1.00E-02,  avg # of iterations =  8.0

     negative rho (up, down):  3.100E-01 0.000E+00

     total cpu time spent up to now is        5.7 secs

     total energy              =   -5833.12336987 Ry
     Harris-Foulkes estimate   =    -554.72598321 Ry
     estimated scf accuracy    <      37.80181366 Ry

     iteration # 54     ecut=    30.00 Ry     beta=0.70
     Davidson diagonalization with overlap
     ethr =  1.00E-02,  avg # of iterations =  7.0

     negative rho (up, down):  1.556E-01 0.000E+00

     total cpu time spent up to now is        5.8 secs

     total energy              =    -117.03151826 Ry
     Harris-Foulkes estimate   =   -9938.29543353 Ry
     estimated scf accuracy    <      35.52841798 Ry

     iteration # 55     ecut=    30.00 Ry     beta=0.70
     Davidson diagonalization with overlap
     ethr =  1.00E-02,  avg # of iterations =  7.0

     negative rho (up, down):  2.381E-01 0.000E+00

     total cpu time spent up to now is        5.9 secs

     total energy              =      84.35072368 Ry
     Harris-Foulkes estimate   =    -569.80002240 Ry
     estimated scf accuracy    <      32.52885052 Ry

     iteration # 56     ecut=    30.00 Ry     beta=0.70
     Davidson diagonalization with overlap
     ethr =  1.00E-02,  avg # of iterations =  7.0

     negative rho (up, down):  7.759E-01 0.000E+00

     total cpu time spent up to now is        6.0 secs

     total energy              =      59.34254005 Ry
     Harris-Foulkes estimate   =    -372.28086404 Ry
     estimated scf accuracy    <      35.91819747 Ry

     iteration # 57     ecut=    30.00 Ry     beta=0.70
     Davidson diagonalization with overlap
     ethr =  1.00E-02,  avg # of iterations =  8.0

     negative rho (up, down):  1.065E+00 0.000E+00

     total cpu time spent up to now is        6.1 secs

     total energy              =      49.10245554 Ry
     Harris-Foulkes estimate   =    -170.53345677 Ry
     estimated scf accuracy    <      28.38193454 Ry

     iteration # 58     ecut=    30.00 Ry     beta=0.70
     Davidson diagonalization with overlap
     ethr =  1.00E-02,  avg # of iterations =  7.0

     negative rho (up, down):  1.374E+00 0.000E+00

     total cpu time spent up to now is        6.1 secs

     total energy              =      54.50228233 Ry
     Harris-Foulkes estimate   =   -1715.03125051 Ry
     estimated scf accuracy    <      24.73449873 Ry

     iteration # 59     ecut=    30.00 Ry     beta=0.70
     Davidson diagonalization with overlap
     ethr =  1.00E-02,  avg # of iterations =  7.0

     negative rho (up, down):  1.775E+00 0.000E+00

     total cpu time spent up to now is        6.3 secs

     total energy              =     118.71741464 Ry
     Harris-Foulkes estimate   =   -4249.01815118 Ry
     estimated scf accuracy    <      26.01482378 Ry

     iteration # 60     ecut=    30.00 Ry     beta=0.70
     Davidson diagonalization with overlap
     ethr =  1.00E-02,  avg # of iterations = 13.0

     negative rho (up, down):  1.765E+00 0.000E+00

     total cpu time spent up to now is        6.4 secs

     total energy              =      88.60330792 Ry
     Harris-Foulkes estimate   =    -694.21139362 Ry
     estimated scf accuracy    <      22.70716808 Ry

     iteration # 61     ecut=    30.00 Ry     beta=0.70
     Davidson diagonalization with overlap
     ethr =  1.00E-02,  avg # of iterations =  8.0

     negative rho (up, down):  1.843E+00 0.000E+00

     total cpu time spent up to now is        6.5 secs

     total energy              =    -168.74275948 Ry
     Harris-Foulkes estimate   =    -829.66191874 Ry
     estimated scf accuracy    <      31.55130615 Ry

     iteration # 62     ecut=    30.00 Ry     beta=0.70
     Davidson diagonalization with overlap
     ethr =  1.00E-02,  avg # of iterations =  8.0

     negative rho (up, down):  1.326E+00 0.000E+00

     total cpu time spent up to now is        6.5 secs

     total energy              =     -26.78642557 Ry
     Harris-Foulkes estimate   =  -54613.30689499 Ry
     estimated scf accuracy    <      22.25968645 Ry

     iteration # 63     ecut=    30.00 Ry     beta=0.70
     Davidson diagonalization with overlap
     ethr =  1.00E-02,  avg # of iterations =  6.0

     negative rho (up, down):  2.905E-02 0.000E+00

     total cpu time spent up to now is        6.6 secs

     total energy              =     141.32399627 Ry
     Harris-Foulkes estimate   =   -1808.37761673 Ry
     estimated scf accuracy    <      23.67518670 Ry

     iteration # 64     ecut=    30.00 Ry     beta=0.70
     Davidson diagonalization with overlap
     ethr =  1.00E-02,  avg # of iterations =  9.0

     negative rho (up, down):  1.392E-02 0.000E+00

     total cpu time spent up to now is        6.7 secs

     total energy              =      65.40218997 Ry
     Harris-Foulkes estimate   =    -235.94171379 Ry
     estimated scf accuracy    <      23.29805624 Ry

     iteration # 65     ecut=    30.00 Ry     beta=0.70
     Davidson diagonalization with overlap
     ethr =  1.00E-02,  avg # of iterations =  8.0

     negative rho (up, down):  1.895E-01 0.000E+00

     total cpu time spent up to now is        6.8 secs

     total energy              =     -66.21669360 Ry
     Harris-Foulkes estimate   =   -1766.54464211 Ry
     estimated scf accuracy    <      26.62718990 Ry

     iteration # 66     ecut=    30.00 Ry     beta=0.70
     Davidson diagonalization with overlap
     ethr =  1.00E-02,  avg # of iterations =  4.0

     negative rho (up, down):  1.910E-01 0.000E+00

     total cpu time spent up to now is        6.9 secs

     total energy              =     102.10795747 Ry
     Harris-Foulkes estimate   =    -514.76360590 Ry
     estimated scf accuracy    <      21.14466538 Ry

     iteration # 67     ecut=    30.00 Ry     beta=0.70
     Davidson diagonalization with overlap
     ethr =  1.00E-02,  avg # of iterations =  7.0

     negative rho (up, down):  1.308E-01 0.000E+00

     total cpu time spent up to now is        7.0 secs

     total energy              =    -266.13949416 Ry
     Harris-Foulkes estimate   =    -680.91926439 Ry
     estimated scf accuracy    <      38.16126246 Ry

     iteration # 68     ecut=    30.00 Ry     beta=0.70
     Davidson diagonalization with overlap
     ethr =  1.00E-02,  avg # of iterations =  6.0

     negative rho (up, down):  8.862E-02 0.000E+00

     total cpu time spent up to now is        7.0 secs

     total energy              =     -69.40300431 Ry
     Harris-Foulkes estimate   =    -710.41695479 Ry
     estimated scf accuracy    <      16.70120665 Ry

     iteration # 69     ecut=    30.00 Ry     beta=0.70
     Davidson diagonalization with overlap
     ethr =  1.00E-02,  avg # of iterations =  4.0

     negative rho (up, down):  1.419E-01 0.000E+00

     total cpu time spent up to now is        7.1 secs

     total energy              =      73.06898505 Ry
     Harris-Foulkes estimate   =    -603.21956735 Ry
     estimated scf accuracy    <      15.18898543 Ry

     iteration # 70     ecut=    30.00 Ry     beta=0.70
     Davidson diagonalization with overlap
     ethr =  1.00E-02,  avg # of iterations =  6.0

     negative rho (up, down):  2.889E-02 0.000E+00

     total cpu time spent up to now is        7.2 secs

     total energy              =      -3.40068433 Ry
     Harris-Foulkes estimate   =   -1936.39598278 Ry
     estimated scf accuracy    <      25.92720246 Ry

     iteration # 71     ecut=    30.00 Ry     beta=0.70
     Davidson diagonalization with overlap
     ethr =  1.00E-02,  avg # of iterations =  4.0

     negative rho (up, down):  1.664E-04 0.000E+00

     total cpu time spent up to now is        7.2 secs

     total energy              =      38.42726024 Ry
     Harris-Foulkes estimate   =    -166.89538688 Ry
     estimated scf accuracy    <      12.79853567 Ry

     iteration # 72     ecut=    30.00 Ry     beta=0.70
     Davidson diagonalization with overlap
     ethr =  1.00E-02,  avg # of iterations =  6.0

     negative rho (up, down):  1.848E-01 0.000E+00

     total cpu time spent up to now is        7.3 secs

     total energy              =     -45.16859633 Ry
     Harris-Foulkes estimate   =     -52.66434722 Ry
     estimated scf accuracy    <      33.93796304 Ry

     iteration # 73     ecut=    30.00 Ry     beta=0.70
     Davidson diagonalization with overlap
     ethr =  1.00E-02,  avg # of iterations =  5.0

     negative rho (up, down):  4.902E-01 0.000E+00

     total cpu time spent up to now is        7.4 secs

     total energy              =     -45.55674289 Ry
     Harris-Foulkes estimate   =     -49.57934498 Ry
     estimated scf accuracy    <      32.58809972 Ry

     iteration # 74     ecut=    30.00 Ry     beta=0.70
     Davidson diagonalization with overlap
     ethr =  1.00E-02,  avg # of iterations =  6.0

     negative rho (up, down):  2.493E-01 0.000E+00

     total cpu time spent up to now is        7.4 secs

     total energy              =      49.13879481 Ry
     Harris-Foulkes estimate   =   -5635.67243657 Ry
     estimated scf accuracy    <      23.57220105 Ry

     iteration # 75     ecut=    30.00 Ry     beta=0.70
     Davidson diagonalization with overlap
     ethr =  1.00E-02,  avg # of iterations =  9.0

     negative rho (up, down):  1.330E-01 0.000E+00

     total cpu time spent up to now is        7.5 secs

     total energy              =      -3.33747227 Ry
     Harris-Foulkes estimate   =    -289.01459285 Ry
     estimated scf accuracy    <      16.34724937 Ry

     iteration # 76     ecut=    30.00 Ry     beta=0.70
     Davidson diagonalization with overlap
     ethr =  1.00E-02,  avg # of iterations =  5.0

     negative rho (up, down):  9.955E-02 0.000E+00

     total cpu time spent up to now is        7.6 secs

     total energy              =   -2103.14181918 Ry
     Harris-Foulkes estimate   =     -50.13098649 Ry
     estimated scf accuracy    <      15.78891027 Ry

     iteration # 77     ecut=    30.00 Ry     beta=0.70
     Davidson diagonalization with overlap
     ethr =  1.00E-02,  avg # of iterations =  4.0

     negative rho (up, down):  9.000E-02 0.000E+00

     total cpu time spent up to now is        7.7 secs

     total energy              =  -16696.37229577 Ry
     Harris-Foulkes estimate   =  -21296.59385948 Ry
     estimated scf accuracy    <      18.88145390 Ry

     iteration # 78     ecut=    30.00 Ry     beta=0.70
     Davidson diagonalization with overlap
     ethr =  1.00E-02,  avg # of iterations =  7.0

     negative rho (up, down):  3.551E-02 0.000E+00

     total cpu time spent up to now is        7.8 secs

     total energy              =     -60.36908915 Ry
     Harris-Foulkes estimate   =  -17399.40666693 Ry
     estimated scf accuracy    <      14.28042039 Ry

     iteration # 79     ecut=    30.00 Ry     beta=0.70
     Davidson diagonalization with overlap
     ethr =  1.00E-02,  avg # of iterations =  9.0

     negative rho (up, down):  1.660E-02 0.000E+00

     total cpu time spent up to now is        7.8 secs

     total energy              =     134.40420721 Ry
     Harris-Foulkes estimate   =    -506.13177490 Ry
     estimated scf accuracy    <      24.26581374 Ry

     iteration # 80     ecut=    30.00 Ry     beta=0.70
     Davidson diagonalization with overlap
     ethr =  1.00E-02,  avg # of iterations =  9.0

     negative rho (up, down):  6.429E-03 0.000E+00

     total cpu time spent up to now is        7.9 secs

     total energy              =      -2.35181937 Ry
     Harris-Foulkes estimate   =     -93.47556460 Ry
     estimated scf accuracy    <      16.69671489 Ry

     iteration # 81     ecut=    30.00 Ry     beta=0.70
     Davidson diagonalization with overlap
     ethr =  1.00E-02,  avg # of iterations =  6.0

     negative rho (up, down):  3.048E-02 0.000E+00

     total cpu time spent up to now is        8.0 secs

     total energy              =     -42.04607679 Ry
     Harris-Foulkes estimate   =     -45.66952959 Ry
     estimated scf accuracy    <      25.43344294 Ry

     iteration # 82     ecut=    30.00 Ry     beta=0.70
     Davidson diagonalization with overlap
     ethr =  1.00E-02,  avg # of iterations =  5.0

     negative rho (up, down):  1.082E-02 0.000E+00

     total cpu time spent up to now is        8.1 secs

     total energy              =      39.21736896 Ry
     Harris-Foulkes estimate   =    -230.22278004 Ry
     estimated scf accuracy    <      13.91366534 Ry

     iteration # 83     ecut=    30.00 Ry     beta=0.70
     Davidson diagonalization with overlap
     ethr =  1.00E-02,  avg # of iterations =  6.0

     negative rho (up, down):  9.181E-02 0.000E+00

     total cpu time spent up to now is        8.2 secs

     total energy              =       0.59893487 Ry
     Harris-Foulkes estimate   =     -74.85142301 Ry
     estimated scf accuracy    <       9.62445894 Ry

     iteration # 84     ecut=    30.00 Ry     beta=0.70
     Davidson diagonalization with overlap
     ethr =  1.00E-02,  avg # of iterations =  6.0

     negative rho (up, down):  1.588E-03 0.000E+00

     total cpu time spent up to now is        8.2 secs

     total energy              =     100.65564590 Ry
     Harris-Foulkes estimate   =    -202.64317150 Ry
     estimated scf accuracy    <      30.89507317 Ry

     iteration # 85     ecut=    30.00 Ry     beta=0.70
     Davidson diagonalization with overlap
     ethr =  1.00E-02,  avg # of iterations =  8.0

     negative rho (up, down):  8.073E-02 0.000E+00

     total cpu time spent up to now is        8.3 secs

     total energy              =     -40.61127346 Ry
     Harris-Foulkes estimate   =     -41.93359736 Ry
     estimated scf accuracy    <      21.78741758 Ry

     iteration # 86     ecut=    30.00 Ry     beta=0.70
     Davidson diagonalization with overlap
     ethr =  1.00E-02,  avg # of iterations =  6.0

     negative rho (up, down):  3.644E-02 0.000E+00

     total cpu time spent up to now is        8.4 secs

     total energy              =      37.78935074 Ry
     Harris-Foulkes estimate   =    -355.57620518 Ry
     estimated scf accuracy    <      37.38987875 Ry

     iteration # 87     ecut=    30.00 Ry     beta=0.70
     Davidson diagonalization with overlap
     ethr =  1.00E-02,  avg # of iterations =  5.0

     negative rho (up, down):  2.616E-02 0.000E+00

     total cpu time spent up to now is        8.5 secs

     total energy              =       5.90237239 Ry
     Harris-Foulkes estimate   =    -180.78000617 Ry
     estimated scf accuracy    <      13.50530898 Ry

     iteration # 88     ecut=    30.00 Ry     beta=0.70
     Davidson diagonalization with overlap
     ethr =  1.00E-02,  avg # of iterations =  6.0

     negative rho (up, down):  8.340E-02 0.000E+00

     total cpu time spent up to now is        8.5 secs

     total energy              =      26.44587237 Ry
     Harris-Foulkes estimate   =    -255.90029080 Ry
     estimated scf accuracy    <      10.51746077 Ry

     iteration # 89     ecut=    30.00 Ry     beta=0.70
     Davidson diagonalization with overlap
     ethr =  1.00E-02,  avg # of iterations =  5.0

     negative rho (up, down):  6.196E-03 0.000E+00

     total cpu time spent up to now is        8.6 secs

     total energy              =     134.08619968 Ry
     Harris-Foulkes estimate   =   -1380.75010947 Ry
     estimated scf accuracy    <      40.38387071 Ry

     iteration # 90     ecut=    30.00 Ry     beta=0.70
     Davidson diagonalization with overlap
     ethr =  1.00E-02,  avg # of iterations =  8.0

     negative rho (up, down):  5.819E-03 0.000E+00

     total cpu time spent up to now is        8.7 secs

     total energy              =      -9.36237880 Ry
     Harris-Foulkes estimate   =     -67.17613827 Ry
     estimated scf accuracy    <      15.55477170 Ry

     iteration # 91     ecut=    30.00 Ry     beta=0.70
     Davidson diagonalization with overlap
     ethr =  1.00E-02,  avg # of iterations =  4.0

     negative rho (up, down):  3.488E-04 0.000E+00

     total cpu time spent up to now is        8.8 secs

     total energy              =      -9.27686533 Ry
     Harris-Foulkes estimate   =     -58.50082412 Ry
     estimated scf accuracy    <      15.64592507 Ry

     iteration # 92     ecut=    30.00 Ry     beta=0.70
     Davidson diagonalization with overlap
     ethr =  1.00E-02,  avg # of iterations =  5.0

     negative rho (up, down):  3.718E-02 0.000E+00

     total cpu time spent up to now is        8.8 secs

     total energy              =     -35.71497967 Ry
     Harris-Foulkes estimate   =     -38.38437949 Ry
     estimated scf accuracy    <      17.30772450 Ry

     iteration # 93     ecut=    30.00 Ry     beta=0.70
     Davidson diagonalization with overlap
     ethr =  1.00E-02,  avg # of iterations =  4.0

     negative rho (up, down):  8.647E-02 0.000E+00

     total cpu time spent up to now is        8.9 secs

     total energy              =     -59.04690736 Ry
     Harris-Foulkes estimate   =     -88.53424084 Ry
     estimated scf accuracy    <      10.47855907 Ry

     iteration # 94     ecut=    30.00 Ry     beta=0.70
     Davidson diagonalization with overlap
     ethr =  1.00E-02,  avg # of iterations =  6.0

     total cpu time spent up to now is        9.0 secs

     total energy              =     120.74312999 Ry
     Harris-Foulkes estimate   =    -494.16978418 Ry
     estimated scf accuracy    <      37.29062326 Ry

     iteration # 95     ecut=    30.00 Ry     beta=0.70
     Davidson diagonalization with overlap
     ethr =  1.00E-02,  avg # of iterations = 12.0

     negative rho (up, down):  2.845E-02 0.000E+00

     total cpu time spent up to now is        9.1 secs

     total energy              =     -35.72733334 Ry
     Harris-Foulkes estimate   =     -36.98992887 Ry
     estimated scf accuracy    <      15.32516475 Ry

     iteration # 96     ecut=    30.00 Ry     beta=0.70
     Davidson diagonalization with overlap
     ethr =  1.00E-02,  avg # of iterations =  4.0

     negative rho (up, down):  6.099E-02 0.000E+00

     total cpu time spent up to now is        9.2 secs

     total energy              =     -15.33611885 Ry
     Harris-Foulkes estimate   =    -306.09641892 Ry
     estimated scf accuracy    <      12.69132074 Ry

     iteration # 97     ecut=    30.00 Ry     beta=0.70
     Davidson diagonalization with overlap
     ethr =  1.00E-02,  avg # of iterations =  4.0

     negative rho (up, down):  4.301E-02 0.000E+00

     total cpu time spent up to now is        9.2 secs

     total energy              =     -16.60444544 Ry
     Harris-Foulkes estimate   =     -42.93890757 Ry
     estimated scf accuracy    <      13.13856887 Ry

     iteration # 98     ecut=    30.00 Ry     beta=0.70
     Davidson diagonalization with overlap
     ethr =  1.00E-02,  avg # of iterations =  4.0

     negative rho (up, down):  9.670E-02 0.000E+00

     total cpu time spent up to now is        9.3 secs

     total energy              =     -18.22596781 Ry
     Harris-Foulkes estimate   =     -52.63113349 Ry
     estimated scf accuracy    <       9.73450461 Ry

     iteration # 99     ecut=    30.00 Ry     beta=0.70
     Davidson diagonalization with overlap
     ethr =  1.00E-02,  avg # of iterations =  7.0

     negative rho (up, down):  7.250E-02 0.000E+00

     total cpu time spent up to now is        9.4 secs

     total energy              =     128.28693743 Ry
     Harris-Foulkes estimate   =   -1458.44499324 Ry
     estimated scf accuracy    <      31.44910980 Ry

     iteration #100     ecut=    30.00 Ry     beta=0.70
     Davidson diagonalization with overlap
     ethr =  1.00E-02,  avg # of iterations = 13.0

     negative rho (up, down):  1.032E-01 0.000E+00

     total cpu time spent up to now is        9.5 secs

     total energy              =      28.64901754 Ry
     Harris-Foulkes estimate   =    -108.55654219 Ry
     estimated scf accuracy    <      13.00109830 Ry

     End of self-consistent calculation

     convergence NOT achieved after 100 iterations: stopping

     Writing output data file pwscf.save
 
     init_run     :      0.16s CPU      0.19s WALL (       1 calls)
     electrons    :      7.77s CPU      8.85s WALL (       2 calls)
     update_pot   :      0.13s CPU      0.16s WALL (       1 calls)
     forces       :      0.04s CPU      0.04s WALL (       1 calls)

     Called by init_run:
     wfcinit      :      0.01s CPU      0.02s WALL (       1 calls)
     potinit      :      0.05s CPU      0.05s WALL (       1 calls)

     Called by electrons:
     c_bands      :      4.57s CPU      4.73s WALL (     108 calls)
     sum_band     :      0.54s CPU      0.58s WALL (     108 calls)
     v_of_rho     :      1.42s CPU      1.46s WALL (     110 calls)
     mix_rho      :      1.11s CPU      1.79s WALL (     108 calls)

     Called by c_bands:
     init_us_2    :      0.02s CPU      0.02s WALL (     217 calls)
     cegterg      :      4.54s CPU      4.67s WALL (     108 calls)

     Called by sum_band:

     Called by *egterg:
     h_psi        :      3.79s CPU      3.90s WALL (     799 calls)
     g_psi        :      0.05s CPU      0.05s WALL (     690 calls)
     cdiaghg      :      0.30s CPU      0.32s WALL (     797 calls)

     Called by h_psi:
     h_psi:pot    :      3.77s CPU      3.87s WALL (     799 calls)
     h_psi:calbec :      0.05s CPU      0.05s WALL (     799 calls)
     vloc_psi     :      3.70s CPU      3.80s WALL (     799 calls)
     add_vuspsi   :      0.01s CPU      0.01s WALL (     799 calls)

     General routines
     calbec       :      0.05s CPU      0.05s WALL (     803 calls)
     fft          :      0.76s CPU      0.78s WALL (    1212 calls)
     fftw         :      3.73s CPU      3.86s WALL (    9366 calls)
     davcio       :      0.15s CPU      0.57s WALL (    1998 calls)
 
     Parallel routines
     fft_scatter  :      1.41s CPU      1.49s WALL (   10578 calls)
 
     PWSCF        :     8.28s CPU         9.62s WALL

 
   This run was terminated on:  14:14:10  13Feb2018            

=------------------------------------------------------------------------------=
   JOB DONE.
=------------------------------------------------------------------------------=
