
     Program PWSCF v.6.0 (svn rev. 13079) starts on 13Feb2018 at 14:15: 9 

     This program is part of the open-source Quantum ESPRESSO suite
     for quantum simulation of materials; please cite
         "P. Giannozzi et al., J. Phys.:Condens. Matter 21 395502 (2009);
          URL http://www.quantum-espresso.org", 
     in publications or presentations arising from this work. More details at
     http://www.quantum-espresso.org/quote

     Parallel version (MPI), running on    28 processors
     R & G space division:  proc/nbgrp/npool/nimage =      28
     Reading input from inputs/MD-H2O-round1/236.in

     Current dimensions of program PWSCF are:
     Max number of different atomic species (ntypx) = 10
     Max number of k-points (npk) =  40000
     Max angular momentum in pseudopotentials (lmaxx) =  3

     Subspace diagonalization in iterative solution of the eigenvalue problem:
     a serial algorithm will be used

 
     Parallelization info
     --------------------
     sticks:   dense  smooth     PW     G-vecs:    dense   smooth      PW
     Min         136     136     33                 6338     6338     787
     Max         137     137     34                 6341     6341     792
     Sum        3809    3809    949               177509   177509   22119
 


     bravais-lattice index     =            1
     lattice parameter (alat)  =      20.0000  a.u.
     unit-cell volume          =    8000.0000 (a.u.)^3
     number of atoms/cell      =            3
     number of atomic types    =            2
     number of electrons       =         8.00
     number of Kohn-Sham states=            8
     kinetic-energy cutoff     =      30.0000  Ry
     charge density cutoff     =     120.0000  Ry
     convergence threshold     =      1.0E-08
     mixing beta               =       0.7000
     number of iterations used =            8  plain     mixing
     Exchange-correlation      = BLYP ( 1  3  1  3 0 0)
     nstep                     =         5000


     celldm(1)=  20.000000  celldm(2)=   0.000000  celldm(3)=   0.000000
     celldm(4)=   0.000000  celldm(5)=   0.000000  celldm(6)=   0.000000

     crystal axes: (cart. coord. in units of alat)
               a(1) = (   1.000000   0.000000   0.000000 )  
               a(2) = (   0.000000   1.000000   0.000000 )  
               a(3) = (   0.000000   0.000000   1.000000 )  

     reciprocal axes: (cart. coord. in units 2 pi/alat)
               b(1) = (  1.000000  0.000000  0.000000 )  
               b(2) = (  0.000000  1.000000  0.000000 )  
               b(3) = (  0.000000  0.000000  1.000000 )  


     PseudoPot. # 1 for  H read from file:
     ./H.blyp-hgh.UPF
     MD5 check sum: c576e69559cde411e611be972c763230
     Pseudo is Norm-conserving, Zval =  1.0
     Generated in analytical, separable form
     Using radial grid of  929 points,  0 beta functions with: 

     PseudoPot. # 2 for  O read from file:
     ./O.blyp-hgh.UPF
     MD5 check sum: d0b7156309aa9befef28faac7bc56342
     Pseudo is Norm-conserving, Zval =  6.0
     Generated in analytical, separable form
     Using radial grid of 1095 points,  1 beta functions with: 
                l(1) =   0

     atomic species   valence    mass     pseudopotential
        H              1.00     1.01000      H( 1.00)
        O              6.00    16.00000      O( 1.00)

     No symmetry found



   Cartesian axes

     site n.     atom                  positions (alat units)
         1           O   tau(   1) = (   0.0324207   0.7095054   0.8556611  )
         2           H   tau(   2) = (   0.0978225   0.7006176   0.8104581  )
         3           H   tau(   3) = (   0.3414055   0.5474158   0.6054938  )

     number of k points=     1  Marzari-Vanderbilt smearing, width (Ry)=  0.0250
                       cart. coord. in units 2pi/alat
        k(    1) = (   0.0000000   0.0000000   0.0000000), wk =   2.0000000

     Dense  grid:   177509 G-vectors     FFT dimensions: (  72,  72,  72)

     Estimated max dynamical RAM per process >       6.09Mb

     Estimated total allocated dynamical RAM >     170.64Mb

     Initial potential from superposition of free atoms
     Check: negative starting charge=   -0.350499

     starting charge    7.99998, renormalised to    8.00000

     negative rho (up, down):  3.505E-01 0.000E+00
     Starting wfc are    6 randomized atomic wfcs +    2 random wfc

     total cpu time spent up to now is        0.3 secs

     per-process dynamical memory:    18.8 Mb

     Self-consistent Calculation

     iteration #  1     ecut=    30.00 Ry     beta=0.70
     Davidson diagonalization with overlap
     ethr =  1.00E-02,  avg # of iterations =  8.0

     negative rho (up, down):  9.482E-02 0.000E+00

     total cpu time spent up to now is        0.4 secs

     total energy              =     -31.57393922 Ry
     Harris-Foulkes estimate   =     -32.06254466 Ry
     estimated scf accuracy    <       0.52104676 Ry

     iteration #  2     ecut=    30.00 Ry     beta=0.70
     Davidson diagonalization with overlap
     ethr =  6.51E-03,  avg # of iterations =  2.0

     negative rho (up, down):  7.368E-02 0.000E+00

     total cpu time spent up to now is        0.5 secs

     total energy              =     -31.69712910 Ry
     Harris-Foulkes estimate   =     -32.33882518 Ry
     estimated scf accuracy    <       2.18538902 Ry

     iteration #  3     ecut=    30.00 Ry     beta=0.70
     Davidson diagonalization with overlap
     ethr =  6.51E-03,  avg # of iterations =  2.0

     negative rho (up, down):  2.623E-02 0.000E+00

     total cpu time spent up to now is        0.5 secs

     total energy              =     -31.67623233 Ry
     Harris-Foulkes estimate   =     -31.79910344 Ry
     estimated scf accuracy    <       0.75475523 Ry

     iteration #  4     ecut=    30.00 Ry     beta=0.70
     Davidson diagonalization with overlap
     ethr =  6.51E-03,  avg # of iterations =  1.0

     negative rho (up, down):  1.051E-02 0.000E+00

     total cpu time spent up to now is        0.6 secs

     total energy              =     -31.71760961 Ry
     Harris-Foulkes estimate   =     -31.97521845 Ry
     estimated scf accuracy    <       1.40609907 Ry

     iteration #  5     ecut=    30.00 Ry     beta=0.70
     Davidson diagonalization with overlap
     ethr =  6.51E-03,  avg # of iterations =  1.0

     negative rho (up, down):  8.999E-04 0.000E+00

     total cpu time spent up to now is        0.6 secs

     total energy              =     -31.82896895 Ry
     Harris-Foulkes estimate   =     -31.90085074 Ry
     estimated scf accuracy    <       0.93221741 Ry

     iteration #  6     ecut=    30.00 Ry     beta=0.70
     Davidson diagonalization with overlap
     ethr =  6.51E-03,  avg # of iterations =  1.0

     negative rho (up, down):  5.079E-04 0.000E+00

     total cpu time spent up to now is        0.6 secs

     total energy              =     -31.82685970 Ry
     Harris-Foulkes estimate   =     -31.83871963 Ry
     estimated scf accuracy    <       0.06425306 Ry

     iteration #  7     ecut=    30.00 Ry     beta=0.70
     Davidson diagonalization with overlap
     ethr =  8.03E-04,  avg # of iterations =  1.0

     negative rho (up, down):  3.436E-04 0.000E+00

     total cpu time spent up to now is        0.7 secs

     total energy              =     -31.85494438 Ry
     Harris-Foulkes estimate   =     -31.86990556 Ry
     estimated scf accuracy    <       1.57412912 Ry

     iteration #  8     ecut=    30.00 Ry     beta=0.70
     Davidson diagonalization with overlap
     ethr =  8.03E-04,  avg # of iterations =  1.0

     negative rho (up, down):  3.315E-07 0.000E+00

     total cpu time spent up to now is        0.7 secs

     total energy              =     -31.77493474 Ry
     Harris-Foulkes estimate   =     -31.85565638 Ry
     estimated scf accuracy    <       1.18805164 Ry

     iteration #  9     ecut=    30.00 Ry     beta=0.70
     Davidson diagonalization with overlap
     ethr =  8.03E-04,  avg # of iterations =  1.0

     total cpu time spent up to now is        0.8 secs

     total energy              =     -31.84093212 Ry
     Harris-Foulkes estimate   =     -31.86472776 Ry
     estimated scf accuracy    <       0.84817049 Ry

     iteration # 10     ecut=    30.00 Ry     beta=0.70
     Davidson diagonalization with overlap
     ethr =  8.03E-04,  avg # of iterations =  1.0

     negative rho (up, down):  3.129E-07 0.000E+00

     total cpu time spent up to now is        0.8 secs

     total energy              =     -31.84180752 Ry
     Harris-Foulkes estimate   =     -31.84388438 Ry
     estimated scf accuracy    <       0.35151541 Ry

     iteration # 11     ecut=    30.00 Ry     beta=0.70
     Davidson diagonalization with overlap
     ethr =  8.03E-04,  avg # of iterations =  1.0

     negative rho (up, down):  1.250E-07 0.000E+00

     total cpu time spent up to now is        0.9 secs

     total energy              =     -31.84363107 Ry
     Harris-Foulkes estimate   =     -31.84196269 Ry
     estimated scf accuracy    <       0.25365116 Ry

     iteration # 12     ecut=    30.00 Ry     beta=0.70
     Davidson diagonalization with overlap
     ethr =  8.03E-04,  avg # of iterations =  1.0

     negative rho (up, down):  2.851E-07 0.000E+00

     total cpu time spent up to now is        0.9 secs

     total energy              =     -31.84309743 Ry
     Harris-Foulkes estimate   =     -31.84376864 Ry
     estimated scf accuracy    <       0.34454188 Ry

     iteration # 13     ecut=    30.00 Ry     beta=0.70
     Davidson diagonalization with overlap
     ethr =  8.03E-04,  avg # of iterations =  1.0

     negative rho (up, down):  9.724E-06 0.000E+00

     total cpu time spent up to now is        1.0 secs

     total energy              =     -31.83621463 Ry
     Harris-Foulkes estimate   =     -31.84311285 Ry
     estimated scf accuracy    <       0.31279927 Ry

     iteration # 14     ecut=    30.00 Ry     beta=0.70
     Davidson diagonalization with overlap
     ethr =  8.03E-04,  avg # of iterations =  1.0

     negative rho (up, down):  1.195E-07 0.000E+00

     total cpu time spent up to now is        1.0 secs

     total energy              =     -31.83723206 Ry
     Harris-Foulkes estimate   =     -31.83836270 Ry
     estimated scf accuracy    <       0.03436988 Ry

     iteration # 15     ecut=    30.00 Ry     beta=0.70
     Davidson diagonalization with overlap
     ethr =  4.30E-04,  avg # of iterations =  1.0

     negative rho (up, down):  1.801E-08 0.000E+00

     total cpu time spent up to now is        1.1 secs

     total energy              =     -31.83792276 Ry
     Harris-Foulkes estimate   =     -31.83790971 Ry
     estimated scf accuracy    <       0.00163492 Ry

     iteration # 16     ecut=    30.00 Ry     beta=0.70
     Davidson diagonalization with overlap
     ethr =  2.04E-05,  avg # of iterations =  8.0

     total cpu time spent up to now is        1.1 secs

     total energy              =     -31.83787708 Ry
     Harris-Foulkes estimate   =     -31.83792790 Ry
     estimated scf accuracy    <       0.00334158 Ry

     iteration # 17     ecut=    30.00 Ry     beta=0.70
     Davidson diagonalization with overlap
     ethr =  2.04E-05,  avg # of iterations =  1.0

     total cpu time spent up to now is        1.2 secs

     total energy              =     -31.83787159 Ry
     Harris-Foulkes estimate   =     -31.83789282 Ry
     estimated scf accuracy    <       0.00059290 Ry

     iteration # 18     ecut=    30.00 Ry     beta=0.70
     Davidson diagonalization with overlap
     ethr =  7.41E-06,  avg # of iterations =  1.0

     total cpu time spent up to now is        1.2 secs

     total energy              =     -31.83788855 Ry
     Harris-Foulkes estimate   =     -31.83788737 Ry
     estimated scf accuracy    <       0.00010453 Ry

     iteration # 19     ecut=    30.00 Ry     beta=0.70
     Davidson diagonalization with overlap
     ethr =  1.31E-06,  avg # of iterations = 18.0

     negative rho (up, down):  5.735E-08 0.000E+00

     total cpu time spent up to now is        1.3 secs

     total energy              =     -31.83785850 Ry
     Harris-Foulkes estimate   =     -31.83788930 Ry
     estimated scf accuracy    <       0.00030356 Ry

     iteration # 20     ecut=    30.00 Ry     beta=0.70
     Davidson diagonalization with overlap
     ethr =  1.31E-06,  avg # of iterations =  1.0

     total cpu time spent up to now is        1.4 secs

     total energy              =     -31.83785665 Ry
     Harris-Foulkes estimate   =     -31.83790651 Ry
     estimated scf accuracy    <       0.00181996 Ry

     iteration # 21     ecut=    30.00 Ry     beta=0.70
     Davidson diagonalization with overlap
     ethr =  1.31E-06,  avg # of iterations =  1.0

     total cpu time spent up to now is        1.4 secs

     total energy              =     -31.83788239 Ry
     Harris-Foulkes estimate   =     -31.83788196 Ry
     estimated scf accuracy    <       0.00000163 Ry

     iteration # 22     ecut=    30.00 Ry     beta=0.70
     Davidson diagonalization with overlap
     ethr =  2.03E-08,  avg # of iterations =  1.0

     total cpu time spent up to now is        1.4 secs

     total energy              =     -31.83788241 Ry
     Harris-Foulkes estimate   =     -31.83788245 Ry
     estimated scf accuracy    <       0.00000033 Ry

     iteration # 23     ecut=    30.00 Ry     beta=0.70
     Davidson diagonalization with overlap
     ethr =  4.11E-09,  avg # of iterations =  1.0

     total cpu time spent up to now is        1.5 secs

     total energy              =     -31.83788241 Ry
     Harris-Foulkes estimate   =     -31.83788242 Ry
     estimated scf accuracy    <       0.00000004 Ry

     iteration # 24     ecut=    30.00 Ry     beta=0.70
     Davidson diagonalization with overlap
     ethr =  4.50E-10,  avg # of iterations =  1.0

     total cpu time spent up to now is        1.5 secs

     End of self-consistent calculation

          k = 0.0000 0.0000 0.0000 ( 22119 PWs)   bands (ev):

   -26.2805 -11.1693  -7.2501  -7.2491  -7.1051  -0.4467   0.3505   0.7786

     the Fermi energy is    -7.0775 ev

!    total energy              =     -31.83788241 Ry
     Harris-Foulkes estimate   =     -31.83788241 Ry
     estimated scf accuracy    <          7.8E-10 Ry

     convergence has been achieved in  24 iterations

     Forces acting on atoms (Ry/au):

     atom    1 type  2   force =    -0.51152362    0.06959798    0.35282926
     atom    2 type  1   force =     0.51161905   -0.06936238   -0.35291471
     atom    3 type  1   force =    -0.00009543   -0.00023560    0.00008545

     Total force =     0.884366     Total SCF correction =     0.000051

     Molecular Dynamics Calculation

     Starting temperature  =  1000.00 K

     temperature is controlled by Andersen thermostat
     Collision frequency = 1.0000/timestep
     mass H                =     1.01
     mass O                =    16.00
     Time step             =   100.00 a.u.,  4.8378 femto-seconds

     Entering Dynamics:    iteration =     1
                           time      =   0.0048 pico-seconds


     Andersen thermostat:    3 collisions

ATOMIC_POSITIONS (bohr)
O        0.460522544  14.206540220  17.212462646
H        4.736833501  13.816063512  14.194975321
H        7.024224816  10.884292094  12.551931636


     kinetic energy (Ekin) =     0.01337019 Ry
     temperature           =   703.66124461 K 
     Ekin + Etot (const)   =   -31.82451222 Ry

     Linear momentum :    0.0000000000   -0.0000000000    0.0000000000

     Writing output data file pwscf.save
     Check: negative starting charge=   -0.350499
     NEW-OLD atomic charge density approx. for the potential
     Check: negative starting charge=   -0.348667

     negative rho (up, down):  4.323E-01 0.000E+00

     total cpu time spent up to now is        1.9 secs

     per-process dynamical memory:    20.4 Mb

     Self-consistent Calculation

     iteration #  1     ecut=    30.00 Ry     beta=0.70
     Davidson diagonalization with overlap
     ethr =  1.00E-06,  avg # of iterations = 14.0

     negative rho (up, down):  1.046E-01 0.000E+00

     total cpu time spent up to now is        2.1 secs

     total energy              =     -15.12041318 Ry
     Harris-Foulkes estimate   =     -37.01312932 Ry
     estimated scf accuracy    <       8.52902651 Ry

     iteration #  2     ecut=    30.00 Ry     beta=0.70
     Davidson diagonalization with overlap
     ethr =  1.00E-02,  avg # of iterations =  4.0

     negative rho (up, down):  7.308E-02 0.000E+00

     total cpu time spent up to now is        2.1 secs

     total energy              =     -32.48885123 Ry
     Harris-Foulkes estimate   =     -39.49299962 Ry
     estimated scf accuracy    <      15.87201503 Ry

     iteration #  3     ecut=    30.00 Ry     beta=0.70
     Davidson diagonalization with overlap
     ethr =  1.00E-02,  avg # of iterations =  3.0

     negative rho (up, down):  5.069E-02 0.000E+00

     total cpu time spent up to now is        2.2 secs

     total energy              =     -31.21484934 Ry
     Harris-Foulkes estimate   =     -32.98007017 Ry
     estimated scf accuracy    <       5.31395024 Ry

     iteration #  4     ecut=    30.00 Ry     beta=0.70
     Davidson diagonalization with overlap
     ethr =  1.00E-02,  avg # of iterations =  5.0

     negative rho (up, down):  4.484E-02 0.000E+00

     total cpu time spent up to now is        2.3 secs

     total energy              =     -31.19088502 Ry
     Harris-Foulkes estimate   =     -32.37423645 Ry
     estimated scf accuracy    <       5.06007068 Ry

     iteration #  5     ecut=    30.00 Ry     beta=0.70
     Davidson diagonalization with overlap
     ethr =  1.00E-02,  avg # of iterations =  1.0

     negative rho (up, down):  1.720E-02 0.000E+00

     total cpu time spent up to now is        2.3 secs

     total energy              =     -31.32301760 Ry
     Harris-Foulkes estimate   =     -32.13124450 Ry
     estimated scf accuracy    <       3.83792138 Ry

     iteration #  6     ecut=    30.00 Ry     beta=0.70
     Davidson diagonalization with overlap
     ethr =  1.00E-02,  avg # of iterations =  1.0

     negative rho (up, down):  1.669E-02 0.000E+00

     total cpu time spent up to now is        2.4 secs

     total energy              =     -31.65522088 Ry
     Harris-Foulkes estimate   =     -31.66752181 Ry
     estimated scf accuracy    <       0.59758075 Ry

     iteration #  7     ecut=    30.00 Ry     beta=0.70
     Davidson diagonalization with overlap
     ethr =  7.47E-03,  avg # of iterations =  1.0

     negative rho (up, down):  1.579E-02 0.000E+00

     total cpu time spent up to now is        2.4 secs

     total energy              =     -31.63242864 Ry
     Harris-Foulkes estimate   =     -31.65688692 Ry
     estimated scf accuracy    <       0.48883514 Ry

     iteration #  8     ecut=    30.00 Ry     beta=0.70
     Davidson diagonalization with overlap
     ethr =  6.11E-03,  avg # of iterations =  1.0

     negative rho (up, down):  1.565E-02 0.000E+00

     total cpu time spent up to now is        2.5 secs

     total energy              =     -31.63660433 Ry
     Harris-Foulkes estimate   =     -31.63705190 Ry
     estimated scf accuracy    <       0.23056197 Ry

     iteration #  9     ecut=    30.00 Ry     beta=0.70
     Davidson diagonalization with overlap
     ethr =  2.88E-03,  avg # of iterations =  1.0

     negative rho (up, down):  1.112E-02 0.000E+00

     total cpu time spent up to now is        2.5 secs

     total energy              =     -31.63422951 Ry
     Harris-Foulkes estimate   =     -31.63661768 Ry
     estimated scf accuracy    <       0.23047213 Ry

     iteration # 10     ecut=    30.00 Ry     beta=0.70
     Davidson diagonalization with overlap
     ethr =  2.88E-03,  avg # of iterations =  1.0

     negative rho (up, down):  8.353E-05 0.000E+00

     total cpu time spent up to now is        2.6 secs

     total energy              =     -31.62941434 Ry
     Harris-Foulkes estimate   =     -31.63835185 Ry
     estimated scf accuracy    <       0.41075525 Ry

     iteration # 11     ecut=    30.00 Ry     beta=0.70
     Davidson diagonalization with overlap
     ethr =  2.88E-03,  avg # of iterations =  1.0

     negative rho (up, down):  7.638E-05 0.000E+00

     total cpu time spent up to now is        2.6 secs

     total energy              =     -31.61098414 Ry
     Harris-Foulkes estimate   =     -31.64397635 Ry
     estimated scf accuracy    <       0.28978114 Ry

     iteration # 12     ecut=    30.00 Ry     beta=0.70
     Davidson diagonalization with overlap
     ethr =  2.88E-03,  avg # of iterations =  1.0

     negative rho (up, down):  6.770E-05 0.000E+00

     total cpu time spent up to now is        2.7 secs

     total energy              =     -31.62333610 Ry
     Harris-Foulkes estimate   =     -31.62404972 Ry
     estimated scf accuracy    <       0.06334753 Ry

     iteration # 13     ecut=    30.00 Ry     beta=0.70
     Davidson diagonalization with overlap
     ethr =  7.92E-04,  avg # of iterations =  1.0

     negative rho (up, down):  7.344E-05 0.000E+00

     total cpu time spent up to now is        2.7 secs

     total energy              =     -31.62290379 Ry
     Harris-Foulkes estimate   =     -31.62338477 Ry
     estimated scf accuracy    <       0.05751669 Ry

     iteration # 14     ecut=    30.00 Ry     beta=0.70
     Davidson diagonalization with overlap
     ethr =  7.19E-04,  avg # of iterations =  1.0

     negative rho (up, down):  3.664E-04 0.000E+00

     total cpu time spent up to now is        2.8 secs

     total energy              =     -31.61471988 Ry
     Harris-Foulkes estimate   =     -31.62300350 Ry
     estimated scf accuracy    <       0.05379652 Ry

     iteration # 15     ecut=    30.00 Ry     beta=0.70
     Davidson diagonalization with overlap
     ethr =  6.72E-04,  avg # of iterations =  1.0

     negative rho (up, down):  3.597E-04 0.000E+00

     total cpu time spent up to now is        2.8 secs

     total energy              =     -31.61628723 Ry
     Harris-Foulkes estimate   =     -31.61834601 Ry
     estimated scf accuracy    <       0.02449996 Ry

     iteration # 16     ecut=    30.00 Ry     beta=0.70
     Davidson diagonalization with overlap
     ethr =  3.06E-04,  avg # of iterations =  1.0

     negative rho (up, down):  7.273E-06 0.000E+00

     total cpu time spent up to now is        2.9 secs

     total energy              =     -31.60893752 Ry
     Harris-Foulkes estimate   =     -31.62108123 Ry
     estimated scf accuracy    <       0.07157109 Ry

     iteration # 17     ecut=    30.00 Ry     beta=0.70
     Davidson diagonalization with overlap
     ethr =  3.06E-04,  avg # of iterations =  1.0

     negative rho (up, down):  5.297E-05 0.000E+00

     total cpu time spent up to now is        2.9 secs

     total energy              =     -31.61494862 Ry
     Harris-Foulkes estimate   =     -31.61723574 Ry
     estimated scf accuracy    <       0.01067614 Ry

     iteration # 18     ecut=    30.00 Ry     beta=0.70
     Davidson diagonalization with overlap
     ethr =  1.33E-04,  avg # of iterations =  7.0

     negative rho (up, down):  2.818E-06 0.000E+00

     total cpu time spent up to now is        3.0 secs

     total energy              =     -31.61639340 Ry
     Harris-Foulkes estimate   =     -31.61737147 Ry
     estimated scf accuracy    <       0.01796956 Ry

     iteration # 19     ecut=    30.00 Ry     beta=0.70
     Davidson diagonalization with overlap
     ethr =  1.33E-04,  avg # of iterations =  1.0

     negative rho (up, down):  7.345E-07 0.000E+00

     total cpu time spent up to now is        3.0 secs

     total energy              =     -31.61652618 Ry
     Harris-Foulkes estimate   =     -31.61667806 Ry
     estimated scf accuracy    <       0.00343850 Ry

     iteration # 20     ecut=    30.00 Ry     beta=0.70
     Davidson diagonalization with overlap
     ethr =  4.30E-05,  avg # of iterations =  1.0

     total cpu time spent up to now is        3.1 secs

     total energy              =     -31.61645363 Ry
     Harris-Foulkes estimate   =     -31.61656002 Ry
     estimated scf accuracy    <       0.00119817 Ry

     iteration # 21     ecut=    30.00 Ry     beta=0.70
     Davidson diagonalization with overlap
     ethr =  1.50E-05,  avg # of iterations =  1.0

     total cpu time spent up to now is        3.1 secs

     total energy              =     -31.61650074 Ry
     Harris-Foulkes estimate   =     -31.61650355 Ry
     estimated scf accuracy    <       0.00003688 Ry

     iteration # 22     ecut=    30.00 Ry     beta=0.70
     Davidson diagonalization with overlap
     ethr =  4.61E-07,  avg # of iterations = 12.0

     total cpu time spent up to now is        3.2 secs

     total energy              =     -31.61650300 Ry
     Harris-Foulkes estimate   =     -31.61650306 Ry
     estimated scf accuracy    <       0.00000049 Ry

     iteration # 23     ecut=    30.00 Ry     beta=0.70
     Davidson diagonalization with overlap
     ethr =  6.14E-09,  avg # of iterations =  1.0

     total cpu time spent up to now is        3.2 secs

     total energy              =     -31.61650290 Ry
     Harris-Foulkes estimate   =     -31.61650306 Ry
     estimated scf accuracy    <       0.00000009 Ry

     iteration # 24     ecut=    30.00 Ry     beta=0.70
     Davidson diagonalization with overlap
     ethr =  1.11E-09,  avg # of iterations =  1.0

     total cpu time spent up to now is        3.3 secs

     total energy              =     -31.61650293 Ry
     Harris-Foulkes estimate   =     -31.61650291 Ry
     estimated scf accuracy    <       0.00000004 Ry

     iteration # 25     ecut=    30.00 Ry     beta=0.70
     Davidson diagonalization with overlap
     ethr =  5.09E-10,  avg # of iterations =  1.0

     total cpu time spent up to now is        3.3 secs

     End of self-consistent calculation

          k = 0.0000 0.0000 0.0000 ( 22119 PWs)   bands (ev):

   -24.0190  -7.9875  -7.3881  -7.3880  -7.3335  -5.6475  -0.1991   0.6210

     the Fermi energy is    -7.2509 ev

!    total energy              =     -31.61650291 Ry
     Harris-Foulkes estimate   =     -31.61650293 Ry
     estimated scf accuracy    <          4.0E-09 Ry

     convergence has been achieved in  25 iterations

     Forces acting on atoms (Ry/au):

     atom    1 type  2   force =     0.01597901   -0.00059306   -0.01217080
     atom    2 type  1   force =     0.02392179   -0.05128210   -0.01707629
     atom    3 type  1   force =    -0.03990080    0.05187515    0.02924710

     Total force =     0.095058     Total SCF correction =     0.000025

     Entering Dynamics:    iteration =     2
                           time      =   0.0097 pico-seconds


     Andersen thermostat:    3 collisions

ATOMIC_POSITIONS (bohr)
O        0.473989343  14.190455029  17.200019516
H        5.040491238  13.133442880  14.153606344
H        6.507231647  11.821727636  12.790419496


     kinetic energy (Ekin) =     0.03558146 Ry
     temperature           =  1872.62074288 K 
     Ekin + Etot (const)   =   -31.58092144 Ry
     Message from routine dynamics:
     Total linear momentum <> 0

     Linear momentum :    0.0316409203    0.3676783473    0.1781879288

     Writing output data file pwscf.save

     first order wave-functions extrapolation
     Check: negative starting charge=   -0.348667
     first order charge density extrapolation
     Check: negative starting charge=   -0.353114

     negative rho (up, down):  4.958E-01 0.000E+00

     total cpu time spent up to now is        3.8 secs

     per-process dynamical memory:    20.4 Mb

     Self-consistent Calculation

     iteration #  1     ecut=    30.00 Ry     beta=0.70
     Davidson diagonalization with overlap
     ethr =  1.00E-06,  avg # of iterations =  9.0

     negative rho (up, down):  8.870E-02 0.000E+00

     total cpu time spent up to now is        3.9 secs

     total energy              =     103.28888293 Ry
     Harris-Foulkes estimate   =    -509.07667038 Ry
     estimated scf accuracy    <      42.54930622 Ry

     iteration #  2     ecut=    30.00 Ry     beta=0.70
     Davidson diagonalization with overlap
     ethr =  1.00E-02,  avg # of iterations =  7.0

     negative rho (up, down):  5.791E-02 0.000E+00

     total cpu time spent up to now is        4.0 secs

     total energy              =     -39.95151025 Ry
     Harris-Foulkes estimate   =     -63.13287949 Ry
     estimated scf accuracy    <      46.96512591 Ry

     iteration #  3     ecut=    30.00 Ry     beta=0.70
     Davidson diagonalization with overlap
     ethr =  1.00E-02,  avg # of iterations =  3.0

     negative rho (up, down):  3.463E-02 0.000E+00

     total cpu time spent up to now is        4.0 secs

     total energy              =     -32.29733793 Ry
     Harris-Foulkes estimate   =     -40.72866727 Ry
     estimated scf accuracy    <      16.54750018 Ry

     iteration #  4     ecut=    30.00 Ry     beta=0.70
     Davidson diagonalization with overlap
     ethr =  1.00E-02,  avg # of iterations =  5.0

     negative rho (up, down):  3.117E-02 0.000E+00

     total cpu time spent up to now is        4.1 secs

     total energy              =     -32.89327326 Ry
     Harris-Foulkes estimate   =     -32.93944700 Ry
     estimated scf accuracy    <       2.38966107 Ry

     iteration #  5     ecut=    30.00 Ry     beta=0.70
     Davidson diagonalization with overlap
     ethr =  1.00E-02,  avg # of iterations =  2.0

     negative rho (up, down):  1.443E-02 0.000E+00

     total cpu time spent up to now is        4.2 secs

     total energy              =     -31.39327354 Ry
     Harris-Foulkes estimate   =     -34.14177295 Ry
     estimated scf accuracy    <       7.37352314 Ry

     iteration #  6     ecut=    30.00 Ry     beta=0.70
     Davidson diagonalization with overlap
     ethr =  1.00E-02,  avg # of iterations =  2.0

     negative rho (up, down):  1.653E-02 0.000E+00

     total cpu time spent up to now is        4.2 secs

     total energy              =     -32.01074398 Ry
     Harris-Foulkes estimate   =     -31.98098155 Ry
     estimated scf accuracy    <       0.58779744 Ry

     iteration #  7     ecut=    30.00 Ry     beta=0.70
     Davidson diagonalization with overlap
     ethr =  7.35E-03,  avg # of iterations =  1.0

     negative rho (up, down):  1.408E-02 0.000E+00

     total cpu time spent up to now is        4.3 secs

     total energy              =     -31.93693023 Ry
     Harris-Foulkes estimate   =     -32.02608633 Ry
     estimated scf accuracy    <       0.69866045 Ry

     iteration #  8     ecut=    30.00 Ry     beta=0.70
     Davidson diagonalization with overlap
     ethr =  7.35E-03,  avg # of iterations =  1.0

     negative rho (up, down):  8.838E-03 0.000E+00

     total cpu time spent up to now is        4.3 secs

     total energy              =     -31.81894694 Ry
     Harris-Foulkes estimate   =     -31.94222555 Ry
     estimated scf accuracy    <       0.48844285 Ry

     iteration #  9     ecut=    30.00 Ry     beta=0.70
     Davidson diagonalization with overlap
     ethr =  6.11E-03,  avg # of iterations =  1.0

     negative rho (up, down):  2.853E-03 0.000E+00

     total cpu time spent up to now is        4.4 secs

     total energy              =     -31.42915231 Ry
     Harris-Foulkes estimate   =     -31.91923883 Ry
     estimated scf accuracy    <       3.38001579 Ry

     iteration # 10     ecut=    30.00 Ry     beta=0.70
     Davidson diagonalization with overlap
     ethr =  6.11E-03,  avg # of iterations =  3.0

     negative rho (up, down):  4.339E-05 0.000E+00

     total cpu time spent up to now is        4.4 secs

     total energy              =     -31.86637129 Ry
     Harris-Foulkes estimate   =     -31.81854996 Ry
     estimated scf accuracy    <       0.15459348 Ry

     iteration # 11     ecut=    30.00 Ry     beta=0.70
     Davidson diagonalization with overlap
     ethr =  1.93E-03,  avg # of iterations =  1.0

     negative rho (up, down):  4.635E-05 0.000E+00

     total cpu time spent up to now is        4.5 secs

     total energy              =     -31.86319400 Ry
     Harris-Foulkes estimate   =     -31.87225067 Ry
     estimated scf accuracy    <       0.23352190 Ry

     iteration # 12     ecut=    30.00 Ry     beta=0.70
     Davidson diagonalization with overlap
     ethr =  1.93E-03,  avg # of iterations =  1.0

     negative rho (up, down):  5.871E-05 0.000E+00

     total cpu time spent up to now is        4.5 secs

     total energy              =     -31.81632093 Ry
     Harris-Foulkes estimate   =     -31.86365771 Ry
     estimated scf accuracy    <       0.21260570 Ry

     iteration # 13     ecut=    30.00 Ry     beta=0.70
     Davidson diagonalization with overlap
     ethr =  1.93E-03,  avg # of iterations =  1.0

     negative rho (up, down):  3.234E-05 0.000E+00

     total cpu time spent up to now is        4.6 secs

     total energy              =     -31.81684945 Ry
     Harris-Foulkes estimate   =     -31.82284939 Ry
     estimated scf accuracy    <       0.06999151 Ry

     iteration # 14     ecut=    30.00 Ry     beta=0.70
     Davidson diagonalization with overlap
     ethr =  8.75E-04,  avg # of iterations =  1.0

     negative rho (up, down):  1.661E-05 0.000E+00

     total cpu time spent up to now is        4.6 secs

     total energy              =     -31.81440103 Ry
     Harris-Foulkes estimate   =     -31.81788499 Ry
     estimated scf accuracy    <       0.02467528 Ry

     iteration # 15     ecut=    30.00 Ry     beta=0.70
     Davidson diagonalization with overlap
     ethr =  3.08E-04,  avg # of iterations =  1.0

     negative rho (up, down):  1.335E-06 0.000E+00

     total cpu time spent up to now is        4.7 secs

     total energy              =     -31.81987503 Ry
     Harris-Foulkes estimate   =     -31.81515870 Ry
     estimated scf accuracy    <       0.00561123 Ry

     iteration # 16     ecut=    30.00 Ry     beta=0.70
     Davidson diagonalization with overlap
     ethr =  7.01E-05,  avg # of iterations =  7.0

     negative rho (up, down):  2.641E-07 0.000E+00

     total cpu time spent up to now is        4.8 secs

     total energy              =     -31.82293254 Ry
     Harris-Foulkes estimate   =     -31.82260797 Ry
     estimated scf accuracy    <       0.02912021 Ry

     iteration # 17     ecut=    30.00 Ry     beta=0.70
     Davidson diagonalization with overlap
     ethr =  7.01E-05,  avg # of iterations =  1.0

     negative rho (up, down):  2.801E-07 0.000E+00

     total cpu time spent up to now is        4.8 secs

     total energy              =     -31.82266542 Ry
     Harris-Foulkes estimate   =     -31.82299477 Ry
     estimated scf accuracy    <       0.02548861 Ry

     iteration # 18     ecut=    30.00 Ry     beta=0.70
     Davidson diagonalization with overlap
     ethr =  7.01E-05,  avg # of iterations =  1.0

     negative rho (up, down):  1.137E-06 0.000E+00

     total cpu time spent up to now is        4.8 secs

     total energy              =     -31.81096619 Ry
     Harris-Foulkes estimate   =     -31.82306940 Ry
     estimated scf accuracy    <       0.01985642 Ry

     iteration # 19     ecut=    30.00 Ry     beta=0.70
     Davidson diagonalization with overlap
     ethr =  7.01E-05,  avg # of iterations =  2.0

     negative rho (up, down):  2.731E-07 0.000E+00

     total cpu time spent up to now is        4.9 secs

     total energy              =     -31.81422593 Ry
     Harris-Foulkes estimate   =     -31.81427871 Ry
     estimated scf accuracy    <       0.00174468 Ry

     iteration # 20     ecut=    30.00 Ry     beta=0.70
     Davidson diagonalization with overlap
     ethr =  2.18E-05,  avg # of iterations =  2.0

     total cpu time spent up to now is        5.0 secs

     total energy              =     -31.81393341 Ry
     Harris-Foulkes estimate   =     -31.81461995 Ry
     estimated scf accuracy    <       0.00406906 Ry

     iteration # 21     ecut=    30.00 Ry     beta=0.70
     Davidson diagonalization with overlap
     ethr =  2.18E-05,  avg # of iterations =  1.0

     total cpu time spent up to now is        5.0 secs

     total energy              =     -31.81408253 Ry
     Harris-Foulkes estimate   =     -31.81414673 Ry
     estimated scf accuracy    <       0.00030362 Ry

     iteration # 22     ecut=    30.00 Ry     beta=0.70
     Davidson diagonalization with overlap
     ethr =  3.80E-06,  avg # of iterations =  4.0

     total cpu time spent up to now is        5.1 secs

     total energy              =     -31.81411509 Ry
     Harris-Foulkes estimate   =     -31.81411946 Ry
     estimated scf accuracy    <       0.00001812 Ry

     iteration # 23     ecut=    30.00 Ry     beta=0.70
     Davidson diagonalization with overlap
     ethr =  2.27E-07,  avg # of iterations =  1.0

     total cpu time spent up to now is        5.1 secs

     total energy              =     -31.81411662 Ry
     Harris-Foulkes estimate   =     -31.81411675 Ry
     estimated scf accuracy    <       0.00000062 Ry

     iteration # 24     ecut=    30.00 Ry     beta=0.70
     Davidson diagonalization with overlap
     ethr =  7.73E-09,  avg # of iterations =  2.0

     total cpu time spent up to now is        5.2 secs

     total energy              =     -31.81411669 Ry
     Harris-Foulkes estimate   =     -31.81411675 Ry
     estimated scf accuracy    <       0.00000022 Ry

     iteration # 25     ecut=    30.00 Ry     beta=0.70
     Davidson diagonalization with overlap
     ethr =  2.76E-09,  avg # of iterations =  1.0

     total cpu time spent up to now is        5.2 secs

     total energy              =     -31.81411669 Ry
     Harris-Foulkes estimate   =     -31.81411672 Ry
     estimated scf accuracy    <       0.00000007 Ry

     iteration # 26     ecut=    30.00 Ry     beta=0.70
     Davidson diagonalization with overlap
     ethr =  9.09E-10,  avg # of iterations =  1.0

     total cpu time spent up to now is        5.2 secs

     End of self-consistent calculation

          k = 0.0000 0.0000 0.0000 ( 22119 PWs)   bands (ev):

   -24.7838  -8.7343  -8.1013  -8.1010  -8.0739  -2.1944  -0.2564   0.7675

     the Fermi energy is    -7.9725 ev

!    total energy              =     -31.81411662 Ry
     Harris-Foulkes estimate   =     -31.81411670 Ry
     estimated scf accuracy    <          9.7E-09 Ry

     convergence has been achieved in  26 iterations

     Forces acting on atoms (Ry/au):

     atom    1 type  2   force =     0.00430874   -0.00080669   -0.00424325
     atom    2 type  1   force =     0.09738903   -0.09031745   -0.09106702
     atom    3 type  1   force =    -0.10169777    0.09112414    0.09531027

     Total force =     0.231738     Total SCF correction =     0.000077

     Entering Dynamics:    iteration =     3
                           time      =   0.0145 pico-seconds


     Andersen thermostat:    3 collisions

ATOMIC_POSITIONS (bohr)
O        0.461662249  14.196309300  17.194991455
H        6.226396551  12.238489031  13.453987090
H        5.516607027  12.623940549  13.569691202


     kinetic energy (Ekin) =     0.04954464 Ry
     temperature           =  2607.49003087 K 
     Ekin + Etot (const)   =   -31.76457199 Ry
     Message from routine dynamics:
     Total linear momentum <> 0

     Linear momentum :    0.3679424336   -0.4059240373    0.0655390169

     Writing output data file pwscf.save

     second order wave-functions extrapolation
     Check: negative starting charge=   -0.353114
     second order charge density extrapolation
     Check: negative starting charge=   -0.356062

     negative rho (up, down):  1.270E-01 0.000E+00

     total cpu time spent up to now is        5.7 secs

     per-process dynamical memory:    20.4 Mb

     Self-consistent Calculation

     iteration #  1     ecut=    30.00 Ry     beta=0.70
     Davidson diagonalization with overlap
     c_bands:  1 eigenvalues not converged
     ethr =  1.00E-06,  avg # of iterations = 20.0

     negative rho (up, down):  1.999E-02 0.000E+00

     total cpu time spent up to now is        5.8 secs

     total energy              =       6.26804521 Ry
     Harris-Foulkes estimate   =    -495.65286469 Ry
     estimated scf accuracy    <       7.57439095 Ry

     iteration #  2     ecut=    30.00 Ry     beta=0.70
     Davidson diagonalization with overlap
     ethr =  1.00E-02,  avg # of iterations =  4.0

     negative rho (up, down):  1.422E-02 0.000E+00

     total cpu time spent up to now is        5.9 secs

     total energy              =     -32.64884746 Ry
     Harris-Foulkes estimate   =     -40.11916412 Ry
     estimated scf accuracy    <      17.24531928 Ry

     iteration #  3     ecut=    30.00 Ry     beta=0.70
     Davidson diagonalization with overlap
     ethr =  1.00E-02,  avg # of iterations =  2.0

     negative rho (up, down):  1.008E-02 0.000E+00

     total cpu time spent up to now is        6.0 secs

     total energy              =     -30.62096390 Ry
     Harris-Foulkes estimate   =     -33.02278547 Ry
     estimated scf accuracy    <       7.00537452 Ry

     iteration #  4     ecut=    30.00 Ry     beta=0.70
     Davidson diagonalization with overlap
     ethr =  1.00E-02,  avg # of iterations =  4.0

     negative rho (up, down):  7.799E-03 0.000E+00

     total cpu time spent up to now is        6.0 secs

     total energy              =     -31.74320931 Ry
     Harris-Foulkes estimate   =     -31.92856491 Ry
     estimated scf accuracy    <       0.66750547 Ry

     iteration #  5     ecut=    30.00 Ry     beta=0.70
     Davidson diagonalization with overlap
     ethr =  8.34E-03,  avg # of iterations =  1.0

     negative rho (up, down):  6.391E-03 0.000E+00

     total cpu time spent up to now is        6.1 secs

     total energy              =     -31.71281238 Ry
     Harris-Foulkes estimate   =     -31.76204691 Ry
     estimated scf accuracy    <       0.36357119 Ry

     iteration #  6     ecut=    30.00 Ry     beta=0.70
     Davidson diagonalization with overlap
     ethr =  4.54E-03,  avg # of iterations =  1.0

     negative rho (up, down):  3.974E-03 0.000E+00

     total cpu time spent up to now is        6.1 secs

     total energy              =     -31.68203260 Ry
     Harris-Foulkes estimate   =     -31.71783834 Ry
     estimated scf accuracy    <       0.25000661 Ry

     iteration #  7     ecut=    30.00 Ry     beta=0.70
     Davidson diagonalization with overlap
     ethr =  3.13E-03,  avg # of iterations =  1.0

     negative rho (up, down):  2.838E-05 0.000E+00

     total cpu time spent up to now is        6.1 secs

     total energy              =     -30.79367181 Ry
     Harris-Foulkes estimate   =     -32.09370936 Ry
     estimated scf accuracy    <       5.96809332 Ry

     iteration #  8     ecut=    30.00 Ry     beta=0.70
     Davidson diagonalization with overlap
     ethr =  3.13E-03,  avg # of iterations =  2.0

     negative rho (up, down):  2.679E-05 0.000E+00

     total cpu time spent up to now is        6.2 secs

     total energy              =     -31.63954639 Ry
     Harris-Foulkes estimate   =     -31.63946499 Ry
     estimated scf accuracy    <       0.02281210 Ry

     iteration #  9     ecut=    30.00 Ry     beta=0.70
     Davidson diagonalization with overlap
     ethr =  2.85E-04,  avg # of iterations =  4.0

     negative rho (up, down):  1.756E-05 0.000E+00

     total cpu time spent up to now is        6.2 secs

     total energy              =     -31.64060488 Ry
     Harris-Foulkes estimate   =     -31.63994813 Ry
     estimated scf accuracy    <       0.02308269 Ry

     iteration # 10     ecut=    30.00 Ry     beta=0.70
     Davidson diagonalization with overlap
     ethr =  2.85E-04,  avg # of iterations =  1.0

     negative rho (up, down):  5.607E-06 0.000E+00

     total cpu time spent up to now is        6.3 secs

     total energy              =     -31.64299569 Ry
     Harris-Foulkes estimate   =     -31.64062866 Ry
     estimated scf accuracy    <       0.02430449 Ry

     iteration # 11     ecut=    30.00 Ry     beta=0.70
     Davidson diagonalization with overlap
     ethr =  2.85E-04,  avg # of iterations =  1.0

     negative rho (up, down):  1.250E-04 0.000E+00

     total cpu time spent up to now is        6.3 secs

     total energy              =     -31.64062272 Ry
     Harris-Foulkes estimate   =     -31.64304538 Ry
     estimated scf accuracy    <       0.02850802 Ry

     iteration # 12     ecut=    30.00 Ry     beta=0.70
     Davidson diagonalization with overlap
     ethr =  2.85E-04,  avg # of iterations =  1.0

     negative rho (up, down):  5.969E-03 0.000E+00

     total cpu time spent up to now is        6.4 secs

     total energy              =     -32.03791303 Ry
     Harris-Foulkes estimate   =     -31.64200511 Ry
     estimated scf accuracy    <       0.02681565 Ry

     iteration # 13     ecut=    30.00 Ry     beta=0.70
     Davidson diagonalization with overlap
     ethr =  2.85E-04,  avg # of iterations =  5.0

     negative rho (up, down):  8.336E-03 0.000E+00

     total cpu time spent up to now is        6.5 secs

     total energy              =     -34.86836130 Ry
     Harris-Foulkes estimate   =     -32.24187538 Ry
     estimated scf accuracy    <       0.82573429 Ry

     iteration # 14     ecut=    30.00 Ry     beta=0.70
     Davidson diagonalization with overlap
     ethr =  2.85E-04,  avg # of iterations =  4.0

     negative rho (up, down):  1.089E-03 0.000E+00

     total cpu time spent up to now is        6.5 secs

     total energy              =      -8.03525386 Ry
     Harris-Foulkes estimate   =     -60.59289694 Ry
     estimated scf accuracy    <      12.89616489 Ry

     iteration # 15     ecut=    30.00 Ry     beta=0.70
     Davidson diagonalization with overlap
     ethr =  2.85E-04,  avg # of iterations = 14.0

     negative rho (up, down):  7.958E-04 0.000E+00

     total cpu time spent up to now is        6.6 secs

     total energy              =     -31.67542096 Ry
     Harris-Foulkes estimate   =     -31.66489231 Ry
     estimated scf accuracy    <       0.14173282 Ry

     iteration # 16     ecut=    30.00 Ry     beta=0.70
     Davidson diagonalization with overlap
     ethr =  2.85E-04,  avg # of iterations =  1.0

     negative rho (up, down):  7.727E-04 0.000E+00

     total cpu time spent up to now is        6.7 secs

     total energy              =     -31.58616704 Ry
     Harris-Foulkes estimate   =     -31.69051368 Ry
     estimated scf accuracy    <       2.19555332 Ry

     iteration # 17     ecut=    30.00 Ry     beta=0.70
     Davidson diagonalization with overlap
     ethr =  2.85E-04,  avg # of iterations =  1.0

     negative rho (up, down):  3.299E-04 0.000E+00

     total cpu time spent up to now is        6.7 secs

     total energy              =     -31.68138597 Ry
     Harris-Foulkes estimate   =     -31.66869897 Ry
     estimated scf accuracy    <       0.15504124 Ry

     iteration # 18     ecut=    30.00 Ry     beta=0.70
     Davidson diagonalization with overlap
     ethr =  2.85E-04,  avg # of iterations =  2.0

     negative rho (up, down):  4.250E-05 0.000E+00

     total cpu time spent up to now is        6.8 secs

     total energy              =     -31.62809333 Ry
     Harris-Foulkes estimate   =     -31.68401106 Ry
     estimated scf accuracy    <       0.20814236 Ry

     iteration # 19     ecut=    30.00 Ry     beta=0.70
     Davidson diagonalization with overlap
     ethr =  2.85E-04,  avg # of iterations =  2.0

     negative rho (up, down):  1.187E-06 0.000E+00

     total cpu time spent up to now is        6.8 secs

     total energy              =     -31.63682138 Ry
     Harris-Foulkes estimate   =     -31.64655147 Ry
     estimated scf accuracy    <       0.09997745 Ry

     iteration # 20     ecut=    30.00 Ry     beta=0.70
     Davidson diagonalization with overlap
     ethr =  2.85E-04,  avg # of iterations =  1.0

     negative rho (up, down):  1.753E-07 0.000E+00

     total cpu time spent up to now is        6.9 secs

     total energy              =     -31.63858673 Ry
     Harris-Foulkes estimate   =     -31.63787192 Ry
     estimated scf accuracy    <       0.08046563 Ry

     iteration # 21     ecut=    30.00 Ry     beta=0.70
     Davidson diagonalization with overlap
     ethr =  2.85E-04,  avg # of iterations =  1.0

     negative rho (up, down):  4.600E-07 0.000E+00

     total cpu time spent up to now is        7.0 secs

     total energy              =     -31.63645497 Ry
     Harris-Foulkes estimate   =     -31.63898816 Ry
     estimated scf accuracy    <       0.08139784 Ry

     iteration # 22     ecut=    30.00 Ry     beta=0.70
     Davidson diagonalization with overlap
     ethr =  2.85E-04,  avg # of iterations =  1.0

     negative rho (up, down):  1.783E-06 0.000E+00

     total cpu time spent up to now is        7.0 secs

     total energy              =     -31.63793607 Ry
     Harris-Foulkes estimate   =     -31.63652329 Ry
     estimated scf accuracy    <       0.07567356 Ry

     iteration # 23     ecut=    30.00 Ry     beta=0.70
     Davidson diagonalization with overlap
     ethr =  2.85E-04,  avg # of iterations =  1.0

     negative rho (up, down):  7.991E-03 0.000E+00

     total cpu time spent up to now is        7.1 secs

     total energy              =     -31.83675406 Ry
     Harris-Foulkes estimate   =     -31.63825762 Ry
     estimated scf accuracy    <       0.08159390 Ry

     iteration # 24     ecut=    30.00 Ry     beta=0.70
     Davidson diagonalization with overlap
     ethr =  2.85E-04,  avg # of iterations =  4.0

     negative rho (up, down):  2.676E-03 0.000E+00

     total cpu time spent up to now is        7.2 secs

     total energy              =     -31.94985249 Ry
     Harris-Foulkes estimate   =     -31.91876937 Ry
     estimated scf accuracy    <       0.53168524 Ry

     iteration # 25     ecut=    30.00 Ry     beta=0.70
     Davidson diagonalization with overlap
     ethr =  2.85E-04,  avg # of iterations =  1.0

     negative rho (up, down):  2.823E-04 0.000E+00

     total cpu time spent up to now is        7.2 secs

     total energy              =     -31.52038392 Ry
     Harris-Foulkes estimate   =     -31.95068383 Ry
     estimated scf accuracy    <       0.56667832 Ry

     iteration # 26     ecut=    30.00 Ry     beta=0.70
     Davidson diagonalization with overlap
     ethr =  2.85E-04,  avg # of iterations =  5.0

     negative rho (up, down):  1.453E-04 0.000E+00

     total cpu time spent up to now is        7.3 secs

     total energy              =     -31.63047253 Ry
     Harris-Foulkes estimate   =     -31.63756318 Ry
     estimated scf accuracy    <       0.02264525 Ry

     iteration # 27     ecut=    30.00 Ry     beta=0.70
     Davidson diagonalization with overlap
     ethr =  2.83E-04,  avg # of iterations =  1.0

     negative rho (up, down):  8.844E-07 0.000E+00

     total cpu time spent up to now is        7.3 secs

     total energy              =     -31.62915181 Ry
     Harris-Foulkes estimate   =     -31.63147642 Ry
     estimated scf accuracy    <       0.00582396 Ry

     iteration # 28     ecut=    30.00 Ry     beta=0.70
     Davidson diagonalization with overlap
     ethr =  7.28E-05,  avg # of iterations =  4.0

     negative rho (up, down):  1.347E-06 0.000E+00

     total cpu time spent up to now is        7.4 secs

     total energy              =     -31.62945258 Ry
     Harris-Foulkes estimate   =     -31.62977267 Ry
     estimated scf accuracy    <       0.00160500 Ry

     iteration # 29     ecut=    30.00 Ry     beta=0.70
     Davidson diagonalization with overlap
     ethr =  2.01E-05,  avg # of iterations =  3.0

     negative rho (up, down):  2.589E-08 0.000E+00

     total cpu time spent up to now is        7.5 secs

     total energy              =     -31.62949977 Ry
     Harris-Foulkes estimate   =     -31.62961364 Ry
     estimated scf accuracy    <       0.00084053 Ry

     iteration # 30     ecut=    30.00 Ry     beta=0.70
     Davidson diagonalization with overlap
     ethr =  1.05E-05,  avg # of iterations =  1.0

     negative rho (up, down):  3.753E-08 0.000E+00

     total cpu time spent up to now is        7.5 secs

     total energy              =     -31.62941682 Ry
     Harris-Foulkes estimate   =     -31.62956768 Ry
     estimated scf accuracy    <       0.00035653 Ry

     iteration # 31     ecut=    30.00 Ry     beta=0.70
     Davidson diagonalization with overlap
     ethr =  4.46E-06,  avg # of iterations =  2.0

     negative rho (up, down):  1.299E-08 0.000E+00

     total cpu time spent up to now is        7.6 secs

     total energy              =     -31.62945332 Ry
     Harris-Foulkes estimate   =     -31.62946255 Ry
     estimated scf accuracy    <       0.00003230 Ry

     iteration # 32     ecut=    30.00 Ry     beta=0.70
     Davidson diagonalization with overlap
     ethr =  4.04E-07,  avg # of iterations =  7.0

     total cpu time spent up to now is        7.6 secs

     total energy              =     -31.62945073 Ry
     Harris-Foulkes estimate   =     -31.62945608 Ry
     estimated scf accuracy    <       0.00000259 Ry

     iteration # 33     ecut=    30.00 Ry     beta=0.70
     Davidson diagonalization with overlap
     ethr =  3.24E-08,  avg # of iterations =  2.0

     total cpu time spent up to now is        7.7 secs

     total energy              =     -31.62945025 Ry
     Harris-Foulkes estimate   =     -31.62945110 Ry
     estimated scf accuracy    <       0.00000014 Ry

     iteration # 34     ecut=    30.00 Ry     beta=0.70
     Davidson diagonalization with overlap
     ethr =  1.72E-09,  avg # of iterations =  1.0

     total cpu time spent up to now is        7.7 secs

     total energy              =     -31.62945036 Ry
     Harris-Foulkes estimate   =     -31.62945027 Ry
     estimated scf accuracy    <       0.00000005 Ry

     iteration # 35     ecut=    30.00 Ry     beta=0.70
     Davidson diagonalization with overlap
     ethr =  5.73E-10,  avg # of iterations =  1.0

     total cpu time spent up to now is        7.7 secs

     End of self-consistent calculation

          k = 0.0000 0.0000 0.0000 ( 22119 PWs)   bands (ev):

   -25.1144 -12.0550  -8.4174  -8.4168  -8.4166  -0.3287   0.6916   0.9718

     the Fermi energy is    -8.2939 ev

!    total energy              =     -31.62945012 Ry
     Harris-Foulkes estimate   =     -31.62945037 Ry
     estimated scf accuracy    <          8.6E-09 Ry

     convergence has been achieved in  35 iterations

     Forces acting on atoms (Ry/au):

     atom    1 type  2   force =    -0.00125526    0.00075450   -0.00045038
     atom    2 type  1   force =     1.31812242   -0.71576303   -0.21447578
     atom    3 type  1   force =    -1.31686716    0.71500854    0.21492616

     Total force =     2.141807     Total SCF correction =     0.000313

     Entering Dynamics:    iteration =     4
                           time      =   0.0194 pico-seconds


     Andersen thermostat:    3 collisions

ATOMIC_POSITIONS (bohr)
O        0.428321487  14.177472283  17.217307877
H       20.438800305   4.225713721  10.919631188
H       -8.167626238  20.935124058  15.750519637


     kinetic energy (Ekin) =     6.07582040 Ry
     temperature           = ************** K 
     Ekin + Etot (const)   =   -25.55362972 Ry
     Message from routine dynamics:
     Total linear momentum <> 0

     Linear momentum :    0.2868737536    0.0527050046   -0.2617939527

     Writing output data file pwscf.save

     second order wave-functions extrapolation
     Check: negative starting charge=   -0.356062
     second order charge density extrapolation
     Check: negative starting charge=   -0.350150

     negative rho (up, down):  3.339E+00 0.000E+00

     total cpu time spent up to now is        8.2 secs

     per-process dynamical memory:    20.4 Mb

     Self-consistent Calculation

     iteration #  1     ecut=    30.00 Ry     beta=0.70
     Davidson diagonalization with overlap
     ethr =  1.00E-06,  avg # of iterations = 15.0

     negative rho (up, down):  5.648E-01 0.000E+00

     total cpu time spent up to now is        8.4 secs

     total energy              =     154.82930177 Ry
     Harris-Foulkes estimate   =    -848.64712501 Ry
     estimated scf accuracy    <      56.50495651 Ry

     iteration #  2     ecut=    30.00 Ry     beta=0.70
     Davidson diagonalization with overlap
     ethr =  1.00E-02,  avg # of iterations = 14.0

     negative rho (up, down):  2.249E-01 0.000E+00

     total cpu time spent up to now is        8.6 secs

     total energy              =     138.04688127 Ry
     Harris-Foulkes estimate   =    -385.30233325 Ry
     estimated scf accuracy    <      34.70050466 Ry

     iteration #  3     ecut=    30.00 Ry     beta=0.70
     Davidson diagonalization with overlap
     ethr =  1.00E-02,  avg # of iterations = 12.0

     negative rho (up, down):  2.401E-01 0.000E+00

     total cpu time spent up to now is        8.7 secs

     total energy              =     -52.72706574 Ry
     Harris-Foulkes estimate   =     -84.26692465 Ry
     estimated scf accuracy    <      69.95319385 Ry

     iteration #  4     ecut=    30.00 Ry     beta=0.70
     Davidson diagonalization with overlap
     ethr =  1.00E-02,  avg # of iterations = 19.0

     negative rho (up, down):  2.171E-01 0.000E+00

     total cpu time spent up to now is        8.8 secs

     total energy              =      22.48753160 Ry
     Harris-Foulkes estimate   =     -70.02477903 Ry
     estimated scf accuracy    <      13.11001410 Ry

     iteration #  5     ecut=    30.00 Ry     beta=0.70
     Davidson diagonalization with overlap
     ethr =  1.00E-02,  avg # of iterations = 14.0

     negative rho (up, down):  1.085E+00 0.000E+00

     total cpu time spent up to now is        8.8 secs

     total energy              =     -30.75493268 Ry
     Harris-Foulkes estimate   =     -51.74326159 Ry
     estimated scf accuracy    <      29.28969550 Ry

     iteration #  6     ecut=    30.00 Ry     beta=0.70
     Davidson diagonalization with overlap
     ethr =  1.00E-02,  avg # of iterations =  7.0

     negative rho (up, down):  1.005E+00 0.000E+00

     total cpu time spent up to now is        8.9 secs

     total energy              =       3.12695273 Ry
     Harris-Foulkes estimate   =   -2666.70376309 Ry
     estimated scf accuracy    <      71.94133730 Ry

     iteration #  7     ecut=    30.00 Ry     beta=0.70
     Davidson diagonalization with overlap
     ethr =  1.00E-02,  avg # of iterations = 10.0

     negative rho (up, down):  8.972E-01 0.000E+00

     total cpu time spent up to now is        9.0 secs

     total energy              =    -112.67271810 Ry
     Harris-Foulkes estimate   =   -1119.68609981 Ry
     estimated scf accuracy    <      62.86172436 Ry

     iteration #  8     ecut=    30.00 Ry     beta=0.70
     Davidson diagonalization with overlap
     ethr =  1.00E-02,  avg # of iterations =  5.0

     negative rho (up, down):  8.516E-01 0.000E+00

     total cpu time spent up to now is        9.1 secs

     total energy              =     282.11235503 Ry
     Harris-Foulkes estimate   =   -1735.34160795 Ry
     estimated scf accuracy    <      69.65665672 Ry

     iteration #  9     ecut=    30.00 Ry     beta=0.70
     Davidson diagonalization with overlap
     ethr =  1.00E-02,  avg # of iterations = 18.0

     negative rho (up, down):  7.904E-01 0.000E+00

     total cpu time spent up to now is        9.2 secs

     total energy              =      64.82972337 Ry
     Harris-Foulkes estimate   =    -424.30835419 Ry
     estimated scf accuracy    <      56.02077861 Ry

     iteration # 10     ecut=    30.00 Ry     beta=0.70
     Davidson diagonalization with overlap
     ethr =  1.00E-02,  avg # of iterations =  8.0

     negative rho (up, down):  9.698E-01 0.000E+00

     total cpu time spent up to now is        9.3 secs

     total energy              =   -1283.66135872 Ry
     Harris-Foulkes estimate   =    -102.08079026 Ry
     estimated scf accuracy    <      58.86769228 Ry

     iteration # 11     ecut=    30.00 Ry     beta=0.70
     Davidson diagonalization with overlap
     ethr =  1.00E-02,  avg # of iterations =  5.0

     negative rho (up, down):  1.583E-01 0.000E+00

     total cpu time spent up to now is        9.4 secs

     total energy              =     110.24087961 Ry
     Harris-Foulkes estimate   =   -2099.64485508 Ry
     estimated scf accuracy    <      67.81797249 Ry

     iteration # 12     ecut=    30.00 Ry     beta=0.70
     Davidson diagonalization with overlap
     ethr =  1.00E-02,  avg # of iterations = 12.0

     negative rho (up, down):  3.084E-01 0.000E+00

     total cpu time spent up to now is        9.5 secs

     total energy              =      84.41915224 Ry
     Harris-Foulkes estimate   =    -149.04766738 Ry
     estimated scf accuracy    <      46.78719594 Ry

     iteration # 13     ecut=    30.00 Ry     beta=0.70
     Davidson diagonalization with overlap
     ethr =  1.00E-02,  avg # of iterations =  7.0

     negative rho (up, down):  3.148E-01 0.000E+00

     total cpu time spent up to now is        9.6 secs

     total energy              =     130.50938455 Ry
     Harris-Foulkes estimate   =    -899.85243240 Ry
     estimated scf accuracy    <      44.17567001 Ry

     iteration # 14     ecut=    30.00 Ry     beta=0.70
     Davidson diagonalization with overlap
     ethr =  1.00E-02,  avg # of iterations =  8.0

     negative rho (up, down):  2.014E+00 0.000E+00

     total cpu time spent up to now is        9.7 secs

     total energy              =    -565.92912412 Ry
     Harris-Foulkes estimate   =   -2108.84982391 Ry
     estimated scf accuracy    <      40.06317705 Ry

     iteration # 15     ecut=    30.00 Ry     beta=0.70
     Davidson diagonalization with overlap
     ethr =  1.00E-02,  avg # of iterations = 11.0

     negative rho (up, down):  2.115E+00 0.000E+00

     total cpu time spent up to now is        9.8 secs

     total energy              =     -46.79343257 Ry
     Harris-Foulkes estimate   =   -5865.03184986 Ry
     estimated scf accuracy    <      33.04412569 Ry

     iteration # 16     ecut=    30.00 Ry     beta=0.70
     Davidson diagonalization with overlap
     ethr =  1.00E-02,  avg # of iterations =  9.0

     negative rho (up, down):  1.925E+00 0.000E+00

     total cpu time spent up to now is        9.9 secs

     total energy              =     130.86577582 Ry
     Harris-Foulkes estimate   =  -35578.00501446 Ry
     estimated scf accuracy    <      20.18523090 Ry

     iteration # 17     ecut=    30.00 Ry     beta=0.70
     Davidson diagonalization with overlap
     ethr =  1.00E-02,  avg # of iterations =  7.0

     negative rho (up, down):  1.787E+00 0.000E+00

     total cpu time spent up to now is       10.0 secs

     total energy              =     -29.23805285 Ry
     Harris-Foulkes estimate   =    -988.33988248 Ry
     estimated scf accuracy    <      25.13523275 Ry

     iteration # 18     ecut=    30.00 Ry     beta=0.70
     Davidson diagonalization with overlap
     ethr =  1.00E-02,  avg # of iterations =  7.0

     negative rho (up, down):  1.636E+00 0.000E+00

     total cpu time spent up to now is       10.1 secs

     total energy              =    -137.72039593 Ry
     Harris-Foulkes estimate   =   -1166.37404023 Ry
     estimated scf accuracy    <      23.40504738 Ry

     iteration # 19     ecut=    30.00 Ry     beta=0.70
     Davidson diagonalization with overlap
     ethr =  1.00E-02,  avg # of iterations =  9.0

     negative rho (up, down):  1.432E-01 0.000E+00

     total cpu time spent up to now is       10.2 secs

     total energy              =     133.58936898 Ry
     Harris-Foulkes estimate   =   -1131.70227587 Ry
     estimated scf accuracy    <      19.69452969 Ry

     iteration # 20     ecut=    30.00 Ry     beta=0.70
     Davidson diagonalization with overlap
     ethr =  1.00E-02,  avg # of iterations = 10.0

     negative rho (up, down):  5.132E-02 0.000E+00

     total cpu time spent up to now is       10.3 secs

     total energy              =      26.95112728 Ry
     Harris-Foulkes estimate   =    -221.79147929 Ry
     estimated scf accuracy    <      29.29037436 Ry

     iteration # 21     ecut=    30.00 Ry     beta=0.70
     Davidson diagonalization with overlap
     ethr =  1.00E-02,  avg # of iterations =  5.0

     negative rho (up, down):  6.054E-02 0.000E+00

     total cpu time spent up to now is       10.3 secs

     total energy              =      25.81448431 Ry
     Harris-Foulkes estimate   =    -232.89714696 Ry
     estimated scf accuracy    <      17.53805480 Ry

     iteration # 22     ecut=    30.00 Ry     beta=0.70
     Davidson diagonalization with overlap
     ethr =  1.00E-02,  avg # of iterations =  6.0

     negative rho (up, down):  5.529E-02 0.000E+00

     total cpu time spent up to now is       10.4 secs

     total energy              =      27.65531794 Ry
     Harris-Foulkes estimate   =    -134.83862834 Ry
     estimated scf accuracy    <      20.77187116 Ry

     iteration # 23     ecut=    30.00 Ry     beta=0.70
     Davidson diagonalization with overlap
     ethr =  1.00E-02,  avg # of iterations =  9.0

     negative rho (up, down):  9.387E-02 0.000E+00

     total cpu time spent up to now is       10.5 secs

     total energy              =    -449.79200294 Ry
     Harris-Foulkes estimate   =    -345.01020133 Ry
     estimated scf accuracy    <      34.09494357 Ry

     iteration # 24     ecut=    30.00 Ry     beta=0.70
     Davidson diagonalization with overlap
     ethr =  1.00E-02,  avg # of iterations =  7.0

     negative rho (up, down):  1.399E-01 0.000E+00

     total cpu time spent up to now is       10.6 secs

     total energy              =     114.14082897 Ry
     Harris-Foulkes estimate   =   -5293.22650140 Ry
     estimated scf accuracy    <      21.49420326 Ry

     iteration # 25     ecut=    30.00 Ry     beta=0.70
     Davidson diagonalization with overlap
     ethr =  1.00E-02,  avg # of iterations =  9.0

     negative rho (up, down):  1.399E-01 0.000E+00

     total cpu time spent up to now is       10.7 secs

     total energy              =     -79.50557630 Ry
     Harris-Foulkes estimate   =   -4257.73529759 Ry
     estimated scf accuracy    <      20.94155609 Ry

     iteration # 26     ecut=    30.00 Ry     beta=0.70
     Davidson diagonalization with overlap
     ethr =  1.00E-02,  avg # of iterations =  9.0

     negative rho (up, down):  2.805E-02 0.000E+00

     total cpu time spent up to now is       10.7 secs

     total energy              =      84.69461500 Ry
     Harris-Foulkes estimate   =    -820.86107469 Ry
     estimated scf accuracy    <      21.48656382 Ry

     iteration # 27     ecut=    30.00 Ry     beta=0.70
     Davidson diagonalization with overlap
     ethr =  1.00E-02,  avg # of iterations =  6.0

     negative rho (up, down):  2.912E-05 0.000E+00

     total cpu time spent up to now is       10.8 secs

     total energy              =      87.28632624 Ry
     Harris-Foulkes estimate   =    -896.12908613 Ry
     estimated scf accuracy    <      31.06499836 Ry

     iteration # 28     ecut=    30.00 Ry     beta=0.70
     Davidson diagonalization with overlap
     ethr =  1.00E-02,  avg # of iterations =  8.0

     negative rho (up, down):  2.951E-03 0.000E+00

     total cpu time spent up to now is       10.9 secs

     total energy              =     -16.06567344 Ry
     Harris-Foulkes estimate   =    -107.39702469 Ry
     estimated scf accuracy    <      33.69484455 Ry

     iteration # 29     ecut=    30.00 Ry     beta=0.70
     Davidson diagonalization with overlap
     ethr =  1.00E-02,  avg # of iterations =  6.0

     total cpu time spent up to now is       11.0 secs

     total energy              =      29.94004616 Ry
     Harris-Foulkes estimate   =    -257.55977526 Ry
     estimated scf accuracy    <      16.26826819 Ry

     iteration # 30     ecut=    30.00 Ry     beta=0.70
     Davidson diagonalization with overlap
     ethr =  1.00E-02,  avg # of iterations =  5.0

     total cpu time spent up to now is       11.0 secs

     total energy              =     -59.27838175 Ry
     Harris-Foulkes estimate   =     -60.70560123 Ry
     estimated scf accuracy    <      42.05713694 Ry

     iteration # 31     ecut=    30.00 Ry     beta=0.70
     Davidson diagonalization with overlap
     ethr =  1.00E-02,  avg # of iterations =  1.0

     negative rho (up, down):  8.280E-01 0.000E+00

     total cpu time spent up to now is       11.1 secs

     total energy              =     -50.71161625 Ry
     Harris-Foulkes estimate   =     -59.28029379 Ry
     estimated scf accuracy    <      40.18059208 Ry

     iteration # 32     ecut=    30.00 Ry     beta=0.70
     Davidson diagonalization with overlap
     ethr =  1.00E-02,  avg # of iterations =  8.0

     negative rho (up, down):  5.391E-01 0.000E+00

     total cpu time spent up to now is       11.2 secs

     total energy              =    -509.13168106 Ry
     Harris-Foulkes estimate   =   -1550.21295140 Ry
     estimated scf accuracy    <      48.03088137 Ry

     iteration # 33     ecut=    30.00 Ry     beta=0.70
     Davidson diagonalization with overlap
     ethr =  1.00E-02,  avg # of iterations = 13.0

     negative rho (up, down):  7.396E-02 0.000E+00

     total cpu time spent up to now is       11.3 secs

     total energy              =     104.36194701 Ry
     Harris-Foulkes estimate   =   -1690.38092811 Ry
     estimated scf accuracy    <      56.90160281 Ry

     iteration # 34     ecut=    30.00 Ry     beta=0.70
     Davidson diagonalization with overlap
     ethr =  1.00E-02,  avg # of iterations =  8.0

     negative rho (up, down):  1.795E-01 0.000E+00

     total cpu time spent up to now is       11.4 secs

     total energy              =     -53.48425770 Ry
     Harris-Foulkes estimate   =     -56.45635264 Ry
     estimated scf accuracy    <      35.80168898 Ry

     iteration # 35     ecut=    30.00 Ry     beta=0.70
     Davidson diagonalization with overlap
     ethr =  1.00E-02,  avg # of iterations =  4.0

     negative rho (up, down):  3.356E-01 0.000E+00

     total cpu time spent up to now is       11.4 secs

     total energy              =    -149.26968994 Ry
     Harris-Foulkes estimate   =    -974.07659981 Ry
     estimated scf accuracy    <      18.38399538 Ry

     iteration # 36     ecut=    30.00 Ry     beta=0.70
     Davidson diagonalization with overlap
     ethr =  1.00E-02,  avg # of iterations =  8.0

     negative rho (up, down):  3.244E-01 0.000E+00

     total cpu time spent up to now is       11.5 secs

     total energy              =     274.60953274 Ry
     Harris-Foulkes estimate   =    -482.77186904 Ry
     estimated scf accuracy    <      33.78501334 Ry

     iteration # 37     ecut=    30.00 Ry     beta=0.70
     Davidson diagonalization with overlap
     ethr =  1.00E-02,  avg # of iterations =  8.0

     negative rho (up, down):  1.163E-01 0.000E+00

     total cpu time spent up to now is       11.6 secs

     total energy              =     122.70709848 Ry
     Harris-Foulkes estimate   =    -308.10363655 Ry
     estimated scf accuracy    <      29.13671442 Ry

     iteration # 38     ecut=    30.00 Ry     beta=0.70
     Davidson diagonalization with overlap
     ethr =  1.00E-02,  avg # of iterations = 11.0

     negative rho (up, down):  1.988E-01 0.000E+00

     total cpu time spent up to now is       11.7 secs

     total energy              =    -214.39204731 Ry
     Harris-Foulkes estimate   =    -225.34932662 Ry
     estimated scf accuracy    <      21.18377101 Ry

     iteration # 39     ecut=    30.00 Ry     beta=0.70
     Davidson diagonalization with overlap
     ethr =  1.00E-02,  avg # of iterations =  8.0

     negative rho (up, down):  2.992E-01 0.000E+00

     total cpu time spent up to now is       11.8 secs

     total energy              =      72.05535291 Ry
     Harris-Foulkes estimate   =   -4921.94149840 Ry
     estimated scf accuracy    <      27.70642882 Ry

     iteration # 40     ecut=    30.00 Ry     beta=0.70
     Davidson diagonalization with overlap
     ethr =  1.00E-02,  avg # of iterations =  9.0

     negative rho (up, down):  4.298E-01 0.000E+00

     total cpu time spent up to now is       11.9 secs

     total energy              =     -66.91455823 Ry
     Harris-Foulkes estimate   =   -1637.00339075 Ry
     estimated scf accuracy    <      47.15212652 Ry

     iteration # 41     ecut=    30.00 Ry     beta=0.70
     Davidson diagonalization with overlap
     ethr =  1.00E-02,  avg # of iterations =  6.0

     negative rho (up, down):  8.494E-02 0.000E+00

     total cpu time spent up to now is       12.0 secs

     total energy              =      42.14247354 Ry
     Harris-Foulkes estimate   =   -1252.52667934 Ry
     estimated scf accuracy    <      40.74899403 Ry

     iteration # 42     ecut=    30.00 Ry     beta=0.70
     Davidson diagonalization with overlap
     ethr =  1.00E-02,  avg # of iterations = 11.0

     negative rho (up, down):  2.030E-01 0.000E+00

     total cpu time spent up to now is       12.1 secs

     total energy              =      78.74509682 Ry
     Harris-Foulkes estimate   =    -667.70067124 Ry
     estimated scf accuracy    <      22.97354857 Ry

     iteration # 43     ecut=    30.00 Ry     beta=0.70
     Davidson diagonalization with overlap
     ethr =  1.00E-02,  avg # of iterations = 11.0

     negative rho (up, down):  5.121E-01 0.000E+00

     total cpu time spent up to now is       12.2 secs

     total energy              =     103.06942193 Ry
     Harris-Foulkes estimate   =    -913.72076788 Ry
     estimated scf accuracy    <      34.66009120 Ry

     iteration # 44     ecut=    30.00 Ry     beta=0.70
     Davidson diagonalization with overlap
     ethr =  1.00E-02,  avg # of iterations = 10.0

     negative rho (up, down):  4.995E-01 0.000E+00

     total cpu time spent up to now is       12.3 secs

     total energy              =     -92.29563005 Ry
     Harris-Foulkes estimate   =    -637.24722394 Ry
     estimated scf accuracy    <      25.22135557 Ry

     iteration # 45     ecut=    30.00 Ry     beta=0.70
     Davidson diagonalization with overlap
     ethr =  1.00E-02,  avg # of iterations =  7.0

     negative rho (up, down):  4.001E-01 0.000E+00

     total cpu time spent up to now is       12.4 secs

     total energy              =      76.89646517 Ry
     Harris-Foulkes estimate   =   -2306.73499097 Ry
     estimated scf accuracy    <      32.11854062 Ry

     iteration # 46     ecut=    30.00 Ry     beta=0.70
     Davidson diagonalization with overlap
     ethr =  1.00E-02,  avg # of iterations =  8.0

     negative rho (up, down):  4.648E-01 0.000E+00

     total cpu time spent up to now is       12.5 secs

     total energy              =     135.00653334 Ry
     Harris-Foulkes estimate   =   -4028.45159855 Ry
     estimated scf accuracy    <      25.09218604 Ry

     iteration # 47     ecut=    30.00 Ry     beta=0.70
     Davidson diagonalization with overlap
     ethr =  1.00E-02,  avg # of iterations = 13.0

     negative rho (up, down):  6.085E-01 0.000E+00

     total cpu time spent up to now is       12.6 secs

     total energy              =      62.10717366 Ry
     Harris-Foulkes estimate   =   -1364.91620760 Ry
     estimated scf accuracy    <      40.38970591 Ry

     iteration # 48     ecut=    30.00 Ry     beta=0.70
     Davidson diagonalization with overlap
     ethr =  1.00E-02,  avg # of iterations =  9.0

     negative rho (up, down):  7.144E-01 0.000E+00

     total cpu time spent up to now is       12.7 secs

     total energy              =   -1282.84152591 Ry
     Harris-Foulkes estimate   =    -877.22341125 Ry
     estimated scf accuracy    <      30.57492215 Ry

     iteration # 49     ecut=    30.00 Ry     beta=0.70
     Davidson diagonalization with overlap
     ethr =  1.00E-02,  avg # of iterations =  8.0

     negative rho (up, down):  7.305E-01 0.000E+00

     total cpu time spent up to now is       12.8 secs

     total energy              =   -2882.46762259 Ry
     Harris-Foulkes estimate   =   -2750.94252274 Ry
     estimated scf accuracy    <      34.58137272 Ry

     iteration # 50     ecut=    30.00 Ry     beta=0.70
     Davidson diagonalization with overlap
     ethr =  1.00E-02,  avg # of iterations = 11.0

     negative rho (up, down):  1.452E-01 0.000E+00

     total cpu time spent up to now is       12.9 secs

     total energy              =   -1308.30639424 Ry
     Harris-Foulkes estimate   =   -3683.32691190 Ry
     estimated scf accuracy    <      30.20041865 Ry

     iteration # 51     ecut=    30.00 Ry     beta=0.70
     Davidson diagonalization with overlap
     ethr =  1.00E-02,  avg # of iterations =  8.0

     negative rho (up, down):  6.904E-02 0.000E+00

     total cpu time spent up to now is       12.9 secs

     total energy              =      79.92347717 Ry
     Harris-Foulkes estimate   =   -3134.46383594 Ry
     estimated scf accuracy    <      35.50582192 Ry

     iteration # 52     ecut=    30.00 Ry     beta=0.70
     Davidson diagonalization with overlap
     ethr =  1.00E-02,  avg # of iterations =  5.0

     negative rho (up, down):  3.097E-01 0.000E+00

     total cpu time spent up to now is       13.0 secs

     total energy              =      20.23351702 Ry
     Harris-Foulkes estimate   =    -529.34066547 Ry
     estimated scf accuracy    <      29.50492475 Ry

     iteration # 53     ecut=    30.00 Ry     beta=0.70
     Davidson diagonalization with overlap
     ethr =  1.00E-02,  avg # of iterations =  8.0

     negative rho (up, down):  6.299E-01 0.000E+00

     total cpu time spent up to now is       13.1 secs

     total energy              =   -5385.83033383 Ry
     Harris-Foulkes estimate   =    -365.77123080 Ry
     estimated scf accuracy    <      28.77438976 Ry

     iteration # 54     ecut=    30.00 Ry     beta=0.70
     Davidson diagonalization with overlap
     ethr =  1.00E-02,  avg # of iterations = 10.0

     negative rho (up, down):  9.434E-01 0.000E+00

     total cpu time spent up to now is       13.2 secs

     total energy              =       7.74702212 Ry
     Harris-Foulkes estimate   =  -21124.36478225 Ry
     estimated scf accuracy    <      30.60230178 Ry

     iteration # 55     ecut=    30.00 Ry     beta=0.70
     Davidson diagonalization with overlap
     ethr =  1.00E-02,  avg # of iterations =  9.0

     negative rho (up, down):  1.023E+00 0.000E+00

     total cpu time spent up to now is       13.3 secs

     total energy              =    -237.36726624 Ry
     Harris-Foulkes estimate   =   -2825.31624178 Ry
     estimated scf accuracy    <      21.98117501 Ry

     iteration # 56     ecut=    30.00 Ry     beta=0.70
     Davidson diagonalization with overlap
     ethr =  1.00E-02,  avg # of iterations =  9.0

     negative rho (up, down):  2.530E-01 0.000E+00

     total cpu time spent up to now is       13.4 secs

     total energy              =    -766.47129061 Ry
     Harris-Foulkes estimate   =   -2010.12154456 Ry
     estimated scf accuracy    <      28.15737036 Ry

     iteration # 57     ecut=    30.00 Ry     beta=0.70
     Davidson diagonalization with overlap
     ethr =  1.00E-02,  avg # of iterations =  6.0

     negative rho (up, down):  4.923E-01 0.000E+00

     total cpu time spent up to now is       13.4 secs

     total energy              =   -2532.46142627 Ry
     Harris-Foulkes estimate   =   -7015.04105241 Ry
     estimated scf accuracy    <      24.90919245 Ry

     iteration # 58     ecut=    30.00 Ry     beta=0.70
     Davidson diagonalization with overlap
[...]
     Harris-Foulkes estimate   =   -7024.04604510 Ry
     estimated scf accuracy    <      24.84451369 Ry

     iteration # 59     ecut=    30.00 Ry     beta=0.70
     Davidson diagonalization with overlap
     ethr =  1.00E-02,  avg # of iterations =  9.0

     negative rho (up, down):  4.527E-01 0.000E+00

     total cpu time spent up to now is       13.6 secs

     total energy              =      90.51070902 Ry
     Harris-Foulkes estimate   =   -2111.44686760 Ry
     estimated scf accuracy    <      24.95722598 Ry

     iteration # 60     ecut=    30.00 Ry     beta=0.70
     Davidson diagonalization with overlap
     ethr =  1.00E-02,  avg # of iterations =  8.0

     negative rho (up, down):  7.754E-02 0.000E+00

     total cpu time spent up to now is       13.7 secs

     total energy              =     130.68349147 Ry
     Harris-Foulkes estimate   =    -724.03668575 Ry
     estimated scf accuracy    <      23.70210974 Ry

     iteration # 61     ecut=    30.00 Ry     beta=0.70
     Davidson diagonalization with overlap
     ethr =  1.00E-02,  avg # of iterations =  7.0

     negative rho (up, down):  1.573E-01 0.000E+00

     total cpu time spent up to now is       13.8 secs

     total energy              =      16.47510466 Ry
     Harris-Foulkes estimate   =    -792.28667189 Ry
     estimated scf accuracy    <      15.36216984 Ry

     iteration # 62     ecut=    30.00 Ry     beta=0.70
     Davidson diagonalization with overlap
     ethr =  1.00E-02,  avg # of iterations =  8.0

     negative rho (up, down):  1.191E-01 0.000E+00

     total cpu time spent up to now is       13.9 secs

     total energy              =      32.80194791 Ry
     Harris-Foulkes estimate   =    -885.89595127 Ry
     estimated scf accuracy    <      25.91734898 Ry

     iteration # 63     ecut=    30.00 Ry     beta=0.70
     Davidson diagonalization with overlap
     ethr =  1.00E-02,  avg # of iterations =  5.0

     negative rho (up, down):  3.590E-02 0.000E+00

     total cpu time spent up to now is       13.9 secs

     total energy              =     132.25684611 Ry
     Harris-Foulkes estimate   =    -245.68669231 Ry
     estimated scf accuracy    <      22.06405320 Ry

     iteration # 64     ecut=    30.00 Ry     beta=0.70
     Davidson diagonalization with overlap
     ethr =  1.00E-02,  avg # of iterations =  8.0

     negative rho (up, down):  4.818E-03 0.000E+00

     total cpu time spent up to now is       14.0 secs

     total energy              =     -26.85287281 Ry
     Harris-Foulkes estimate   =     -87.14752666 Ry
     estimated scf accuracy    <      41.80736665 Ry

     iteration # 65     ecut=    30.00 Ry     beta=0.70
     Davidson diagonalization with overlap
     ethr =  1.00E-02,  avg # of iterations =  7.0

     negative rho (up, down):  9.203E-05 0.000E+00

     total cpu time spent up to now is       14.1 secs

     total energy              =     -69.46241806 Ry
     Harris-Foulkes estimate   =     -70.85873739 Ry
     estimated scf accuracy    <      53.91849387 Ry

     iteration # 66     ecut=    30.00 Ry     beta=0.70
     Davidson diagonalization with overlap
     ethr =  1.00E-02,  avg # of iterations =  1.0

     negative rho (up, down):  7.164E-02 0.000E+00

     total cpu time spent up to now is       14.1 secs

     total energy              =     -67.23720317 Ry
     Harris-Foulkes estimate   =     -69.46499001 Ry
     estimated scf accuracy    <      52.00047815 Ry

     iteration # 67     ecut=    30.00 Ry     beta=0.70
     Davidson diagonalization with overlap
     ethr =  1.00E-02,  avg # of iterations = 12.0

     negative rho (up, down):  1.468E-03 0.000E+00

     total cpu time spent up to now is       14.2 secs

     total energy              =     119.34662564 Ry
     Harris-Foulkes estimate   =    -677.94035598 Ry
     estimated scf accuracy    <      24.43476973 Ry

     iteration # 68     ecut=    30.00 Ry     beta=0.70
     Davidson diagonalization with overlap
     ethr =  1.00E-02,  avg # of iterations =  8.0

     negative rho (up, down):  6.808E-02 0.000E+00

     total cpu time spent up to now is       14.3 secs

     total energy              =     -71.13560183 Ry
     Harris-Foulkes estimate   =     -70.43347872 Ry
     estimated scf accuracy    <      53.41400806 Ry

     iteration # 69     ecut=    30.00 Ry     beta=0.70
     Davidson diagonalization with overlap
     ethr =  1.00E-02,  avg # of iterations =  8.0

     negative rho (up, down):  1.830E-01 0.000E+00

     total cpu time spent up to now is       14.4 secs

     total energy              =      73.29705656 Ry
     Harris-Foulkes estimate   =    -418.20931983 Ry
     estimated scf accuracy    <      23.70081826 Ry

     iteration # 70     ecut=    30.00 Ry     beta=0.70
     Davidson diagonalization with overlap
     ethr =  1.00E-02,  avg # of iterations =  9.0

     negative rho (up, down):  1.823E-01 0.000E+00

     total cpu time spent up to now is       14.5 secs

     total energy              =    -352.39999927 Ry
     Harris-Foulkes estimate   =    -786.21879251 Ry
     estimated scf accuracy    <      28.60657685 Ry

     iteration # 71     ecut=    30.00 Ry     beta=0.70
     Davidson diagonalization with overlap
     ethr =  1.00E-02,  avg # of iterations =  8.0

     negative rho (up, down):  1.285E-01 0.000E+00

     total cpu time spent up to now is       14.5 secs

     total energy              =      95.92331233 Ry
     Harris-Foulkes estimate   =   -1129.53336123 Ry
     estimated scf accuracy    <      27.38462613 Ry

     iteration # 72     ecut=    30.00 Ry     beta=0.70
     Davidson diagonalization with overlap
     ethr =  1.00E-02,  avg # of iterations =  9.0

     negative rho (up, down):  7.763E-02 0.000E+00

     total cpu time spent up to now is       14.6 secs

     total energy              =     132.81926645 Ry
     Harris-Foulkes estimate   =   -1026.59698496 Ry
     estimated scf accuracy    <      25.69821526 Ry

     iteration # 73     ecut=    30.00 Ry     beta=0.70
     Davidson diagonalization with overlap
     ethr =  1.00E-02,  avg # of iterations =  8.0

     negative rho (up, down):  8.869E-06 0.000E+00

     total cpu time spent up to now is       14.7 secs

     total energy              =      79.42375448 Ry
     Harris-Foulkes estimate   =    -302.85832751 Ry
     estimated scf accuracy    <      15.84438046 Ry

     iteration # 74     ecut=    30.00 Ry     beta=0.70
     Davidson diagonalization with overlap
     ethr =  1.00E-02,  avg # of iterations =  8.0

     negative rho (up, down):  1.462E-02 0.000E+00

     total cpu time spent up to now is       14.8 secs

     total energy              =     -64.56516585 Ry
     Harris-Foulkes estimate   =     -66.95323122 Ry
     estimated scf accuracy    <      49.24956594 Ry

     iteration # 75     ecut=    30.00 Ry     beta=0.70
     Davidson diagonalization with overlap
     ethr =  1.00E-02,  avg # of iterations =  4.0

     negative rho (up, down):  5.557E-02 0.000E+00

     total cpu time spent up to now is       14.8 secs

     total energy              =   -3102.90468455 Ry
     Harris-Foulkes estimate   =    -322.05878420 Ry
     estimated scf accuracy    <      26.99401372 Ry

     iteration # 76     ecut=    30.00 Ry     beta=0.70
     Davidson diagonalization with overlap
     ethr =  1.00E-02,  avg # of iterations =  3.0

     negative rho (up, down):  1.015E-02 0.000E+00

     total cpu time spent up to now is       14.9 secs

     total energy              =      -8.07087594 Ry
     Harris-Foulkes estimate   =   -4683.44555641 Ry
     estimated scf accuracy    <      27.30941624 Ry

     iteration # 77     ecut=    30.00 Ry     beta=0.70
     Davidson diagonalization with overlap
     ethr =  1.00E-02,  avg # of iterations = 10.0

     negative rho (up, down):  6.027E-05 0.000E+00

     total cpu time spent up to now is       15.0 secs

     total energy              =     -22.58597674 Ry
     Harris-Foulkes estimate   =     -63.45740694 Ry
     estimated scf accuracy    <      25.08792680 Ry

     iteration # 78     ecut=    30.00 Ry     beta=0.70
     Davidson diagonalization with overlap
     ethr =  1.00E-02,  avg # of iterations =  7.0

     negative rho (up, down):  1.147E-02 0.000E+00

     total cpu time spent up to now is       15.0 secs

     total energy              =     -60.56670020 Ry
     Harris-Foulkes estimate   =     -60.68443845 Ry
     estimated scf accuracy    <      41.67410382 Ry

     iteration # 79     ecut=    30.00 Ry     beta=0.70
     Davidson diagonalization with overlap
     ethr =  1.00E-02,  avg # of iterations =  3.0

     negative rho (up, down):  1.136E-02 0.000E+00

     total cpu time spent up to now is       15.1 secs

     total energy              =     -52.86479985 Ry
     Harris-Foulkes estimate   =     -63.32454954 Ry
     estimated scf accuracy    <      39.10112891 Ry

     iteration # 80     ecut=    30.00 Ry     beta=0.70
     Davidson diagonalization with overlap
     ethr =  1.00E-02,  avg # of iterations =  3.0

     negative rho (up, down):  1.919E-02 0.000E+00

     total cpu time spent up to now is       15.1 secs

     total energy              =     -51.20249136 Ry
     Harris-Foulkes estimate   =     -55.75735285 Ry
     estimated scf accuracy    <      35.22135085 Ry

     iteration # 81     ecut=    30.00 Ry     beta=0.70
     Davidson diagonalization with overlap
     ethr =  1.00E-02,  avg # of iterations =  1.0

     negative rho (up, down):  1.249E-01 0.000E+00

     total cpu time spent up to now is       15.2 secs

     total energy              =     -43.67794517 Ry
     Harris-Foulkes estimate   =     -51.22727605 Ry
     estimated scf accuracy    <      29.33145812 Ry

     iteration # 82     ecut=    30.00 Ry     beta=0.70
     Davidson diagonalization with overlap
     ethr =  1.00E-02,  avg # of iterations =  8.0

     negative rho (up, down):  6.715E-02 0.000E+00

     total cpu time spent up to now is       15.3 secs

     total energy              =     117.84963217 Ry
     Harris-Foulkes estimate   =    -423.06884342 Ry
     estimated scf accuracy    <      44.22193754 Ry

     iteration # 83     ecut=    30.00 Ry     beta=0.70
     Davidson diagonalization with overlap
     ethr =  1.00E-02,  avg # of iterations = 10.0

     negative rho (up, down):  1.124E-01 0.000E+00

     total cpu time spent up to now is       15.4 secs

     total energy              =      97.76905194 Ry
     Harris-Foulkes estimate   =    -591.72407006 Ry
     estimated scf accuracy    <      45.85510514 Ry

     iteration # 84     ecut=    30.00 Ry     beta=0.70
     Davidson diagonalization with overlap
     ethr =  1.00E-02,  avg # of iterations =  9.0

     negative rho (up, down):  2.546E-03 0.000E+00

     total cpu time spent up to now is       15.5 secs

     total energy              =      21.31574744 Ry
     Harris-Foulkes estimate   =     -65.85652649 Ry
     estimated scf accuracy    <      11.17667764 Ry

     iteration # 85     ecut=    30.00 Ry     beta=0.70
     Davidson diagonalization with overlap
     ethr =  1.00E-02,  avg # of iterations =  7.0

     negative rho (up, down):  3.252E-02 0.000E+00

     total cpu time spent up to now is       15.5 secs

     total energy              =     -45.61450184 Ry
     Harris-Foulkes estimate   =     -50.59011033 Ry
     estimated scf accuracy    <      28.15259809 Ry

     iteration # 86     ecut=    30.00 Ry     beta=0.70
     Davidson diagonalization with overlap
     ethr =  1.00E-02,  avg # of iterations =  5.0

     negative rho (up, down):  7.079E-02 0.000E+00

     total cpu time spent up to now is       15.6 secs

     total energy              =     -26.51462556 Ry
     Harris-Foulkes estimate   =    -117.03862481 Ry
     estimated scf accuracy    <      11.41023631 Ry

     iteration # 87     ecut=    30.00 Ry     beta=0.70
     Davidson diagonalization with overlap
     ethr =  1.00E-02,  avg # of iterations =  5.0

     negative rho (up, down):  1.064E-01 0.000E+00

     total cpu time spent up to now is       15.7 secs

     total energy              =     -52.76741407 Ry
     Harris-Foulkes estimate   =    -260.69537858 Ry
     estimated scf accuracy    <       9.84864339 Ry

     iteration # 88     ecut=    30.00 Ry     beta=0.70
     Davidson diagonalization with overlap
     ethr =  1.00E-02,  avg # of iterations =  4.0

     negative rho (up, down):  1.073E-01 0.000E+00

     total cpu time spent up to now is       15.7 secs

     total energy              =      -2.47515702 Ry
     Harris-Foulkes estimate   =    -293.32935374 Ry
     estimated scf accuracy    <      10.56985254 Ry

     iteration # 89     ecut=    30.00 Ry     beta=0.70
     Davidson diagonalization with overlap
     ethr =  1.00E-02,  avg # of iterations =  4.0

     negative rho (up, down):  2.945E-02 0.000E+00

     total cpu time spent up to now is       15.8 secs

     total energy              =     -15.38856339 Ry
     Harris-Foulkes estimate   =     -91.37345141 Ry
     estimated scf accuracy    <      10.00216455 Ry

     iteration # 90     ecut=    30.00 Ry     beta=0.70
     Davidson diagonalization with overlap
     ethr =  1.00E-02,  avg # of iterations =  4.0

     negative rho (up, down):  2.541E-03 0.000E+00

     total cpu time spent up to now is       15.8 secs

     total energy              =       4.73371912 Ry
     Harris-Foulkes estimate   =    -128.32803562 Ry
     estimated scf accuracy    <      11.08998111 Ry

     iteration # 91     ecut=    30.00 Ry     beta=0.70
     Davidson diagonalization with overlap
     ethr =  1.00E-02,  avg # of iterations =  5.0

     negative rho (up, down):  1.865E-02 0.000E+00

     total cpu time spent up to now is       15.9 secs

     total energy              =     -17.08697593 Ry
     Harris-Foulkes estimate   =     -54.76790017 Ry
     estimated scf accuracy    <      11.18666129 Ry

     iteration # 92     ecut=    30.00 Ry     beta=0.70
     Davidson diagonalization with overlap
     ethr =  1.00E-02,  avg # of iterations =  6.0

     negative rho (up, down):  1.998E-01 0.000E+00

     total cpu time spent up to now is       16.0 secs

     total energy              =      55.15145032 Ry
     Harris-Foulkes estimate   =    -174.85616488 Ry
     estimated scf accuracy    <      21.34650512 Ry

     iteration # 93     ecut=    30.00 Ry     beta=0.70
     Davidson diagonalization with overlap
     ethr =  1.00E-02,  avg # of iterations =  6.0

     negative rho (up, down):  2.274E-01 0.000E+00

     total cpu time spent up to now is       16.1 secs

     total energy              =      -7.48423950 Ry
     Harris-Foulkes estimate   =     -62.07468001 Ry
     estimated scf accuracy    <      10.66604368 Ry

     iteration # 94     ecut=    30.00 Ry     beta=0.70
     Davidson diagonalization with overlap
     ethr =  1.00E-02,  avg # of iterations =  5.0

     negative rho (up, down):  1.258E-01 0.000E+00

     total cpu time spent up to now is       16.1 secs

     total energy              =     -51.28847064 Ry
     Harris-Foulkes estimate   =     -72.25338814 Ry
     estimated scf accuracy    <       6.89501350 Ry

     iteration # 95     ecut=    30.00 Ry     beta=0.70
     Davidson diagonalization with overlap
     ethr =  1.00E-02,  avg # of iterations =  5.0

     negative rho (up, down):  2.000E-01 0.000E+00

     total cpu time spent up to now is       16.2 secs

     total energy              =      98.25317512 Ry
     Harris-Foulkes estimate   =   -3371.67201849 Ry
     estimated scf accuracy    <      48.95326478 Ry

     iteration # 96     ecut=    30.00 Ry     beta=0.70
     Davidson diagonalization with overlap
     ethr =  1.00E-02,  avg # of iterations =  9.0

     negative rho (up, down):  1.566E-01 0.000E+00

     total cpu time spent up to now is       16.3 secs

     total energy              =  -24993.25708496 Ry
     Harris-Foulkes estimate   =    -139.37468634 Ry
     estimated scf accuracy    <       9.19004773 Ry

     iteration # 97     ecut=    30.00 Ry     beta=0.70
     Davidson diagonalization with overlap
     ethr =  1.00E-02,  avg # of iterations =  4.0

     negative rho (up, down):  1.794E-01 0.000E+00

     total cpu time spent up to now is       16.3 secs

     total energy              =      31.95258171 Ry
     Harris-Foulkes estimate   =  -40291.09619908 Ry
     estimated scf accuracy    <      10.35894256 Ry

     iteration # 98     ecut=    30.00 Ry     beta=0.70
     Davidson diagonalization with overlap
     ethr =  1.00E-02,  avg # of iterations =  4.0

     negative rho (up, down):  1.199E-01 0.000E+00

     total cpu time spent up to now is       16.4 secs

     total energy              =      42.23622887 Ry
     Harris-Foulkes estimate   =   -2005.75022229 Ry
     estimated scf accuracy    <       7.96238113 Ry

     iteration # 99     ecut=    30.00 Ry     beta=0.70
     Davidson diagonalization with overlap
     ethr =  1.00E-02,  avg # of iterations =  8.0

     negative rho (up, down):  6.274E-02 0.000E+00

     total cpu time spent up to now is       16.5 secs

     total energy              =     -12.41599854 Ry
     Harris-Foulkes estimate   =     -74.62610871 Ry
     estimated scf accuracy    <       8.68700864 Ry

     iteration #100     ecut=    30.00 Ry     beta=0.70
     Davidson diagonalization with overlap
     ethr =  1.00E-02,  avg # of iterations =  5.0

     negative rho (up, down):  8.245E-02 0.000E+00

     total cpu time spent up to now is       16.5 secs

     total energy              =     -27.49552400 Ry
     Harris-Foulkes estimate   =     -40.98249518 Ry
     estimated scf accuracy    <       6.31786371 Ry

     End of self-consistent calculation

     convergence NOT achieved after 100 iterations: stopping

     Writing output data file pwscf.save
 
     init_run     :      0.17s CPU      0.19s WALL (       1 calls)
     electrons    :     12.62s CPU     14.71s WALL (       5 calls)
     update_pot   :      0.79s CPU      1.04s WALL (       4 calls)
     forces       :      0.18s CPU      0.18s WALL (       4 calls)

     Called by init_run:
     wfcinit      :      0.01s CPU      0.02s WALL (       1 calls)
     potinit      :      0.05s CPU      0.05s WALL (       1 calls)

     Called by electrons:
     c_bands      :      7.07s CPU      7.30s WALL (     210 calls)
     sum_band     :      1.05s CPU      1.10s WALL (     210 calls)
     v_of_rho     :      2.65s CPU      2.77s WALL (     215 calls)
     mix_rho      :      1.53s CPU      2.87s WALL (     210 calls)

     Called by c_bands:
     init_us_2    :      0.03s CPU      0.04s WALL (     421 calls)
     cegterg      :      7.01s CPU      7.18s WALL (     210 calls)

     Called by sum_band:

     Called by *egterg:
     h_psi        :      5.85s CPU      5.97s WALL (    1280 calls)
     g_psi        :      0.07s CPU      0.07s WALL (    1069 calls)
     cdiaghg      :      0.47s CPU      0.48s WALL (    1275 calls)

     Called by h_psi:
     h_psi:pot    :      5.81s CPU      5.94s WALL (    1280 calls)
     h_psi:calbec :      0.09s CPU      0.12s WALL (    1280 calls)
     vloc_psi     :      5.69s CPU      5.79s WALL (    1280 calls)
     add_vuspsi   :      0.02s CPU      0.02s WALL (    1280 calls)

     General routines
     calbec       :      0.10s CPU      0.13s WALL (    1299 calls)
     fft          :      1.59s CPU      1.67s WALL (    2373 calls)
     fftw         :      5.85s CPU      5.98s WALL (   15082 calls)
     davcio       :      0.26s CPU      1.21s WALL (    3768 calls)
 
     Parallel routines
     fft_scatter  :      2.30s CPU      2.43s WALL (   17455 calls)
 
     PWSCF        :    14.07s CPU        16.66s WALL

 
   This run was terminated on:  14:15:25  13Feb2018            

=------------------------------------------------------------------------------=
   JOB DONE.
=------------------------------------------------------------------------------=
