
     Program PWSCF v.6.0 (svn rev. 13079) starts on 13Feb2018 at 14:17:39 

     This program is part of the open-source Quantum ESPRESSO suite
     for quantum simulation of materials; please cite
         "P. Giannozzi et al., J. Phys.:Condens. Matter 21 395502 (2009);
          URL http://www.quantum-espresso.org", 
     in publications or presentations arising from this work. More details at
     http://www.quantum-espresso.org/quote

     Parallel version (MPI), running on    28 processors
     R & G space division:  proc/nbgrp/npool/nimage =      28
     Reading input from inputs/MD-H2O-round1/245.in

     Current dimensions of program PWSCF are:
     Max number of different atomic species (ntypx) = 10
     Max number of k-points (npk) =  40000
     Max angular momentum in pseudopotentials (lmaxx) =  3

     Subspace diagonalization in iterative solution of the eigenvalue problem:
     a serial algorithm will be used

 
     Parallelization info
     --------------------
     sticks:   dense  smooth     PW     G-vecs:    dense   smooth      PW
     Min         136     136     33                 6338     6338     787
     Max         137     137     34                 6341     6341     792
     Sum        3809    3809    949               177509   177509   22119
 


     bravais-lattice index     =            1
     lattice parameter (alat)  =      20.0000  a.u.
     unit-cell volume          =    8000.0000 (a.u.)^3
     number of atoms/cell      =            3
     number of atomic types    =            2
     number of electrons       =         8.00
     number of Kohn-Sham states=            8
     kinetic-energy cutoff     =      30.0000  Ry
     charge density cutoff     =     120.0000  Ry
     convergence threshold     =      1.0E-08
     mixing beta               =       0.7000
     number of iterations used =            8  plain     mixing
     Exchange-correlation      = BLYP ( 1  3  1  3 0 0)
     nstep                     =         5000


     celldm(1)=  20.000000  celldm(2)=   0.000000  celldm(3)=   0.000000
     celldm(4)=   0.000000  celldm(5)=   0.000000  celldm(6)=   0.000000

     crystal axes: (cart. coord. in units of alat)
               a(1) = (   1.000000   0.000000   0.000000 )  
               a(2) = (   0.000000   1.000000   0.000000 )  
               a(3) = (   0.000000   0.000000   1.000000 )  

     reciprocal axes: (cart. coord. in units 2 pi/alat)
               b(1) = (  1.000000  0.000000  0.000000 )  
               b(2) = (  0.000000  1.000000  0.000000 )  
               b(3) = (  0.000000  0.000000  1.000000 )  


     PseudoPot. # 1 for  H read from file:
     ./H.blyp-hgh.UPF
     MD5 check sum: c576e69559cde411e611be972c763230
     Pseudo is Norm-conserving, Zval =  1.0
     Generated in analytical, separable form
     Using radial grid of  929 points,  0 beta functions with: 

     PseudoPot. # 2 for  O read from file:
     ./O.blyp-hgh.UPF
     MD5 check sum: d0b7156309aa9befef28faac7bc56342
     Pseudo is Norm-conserving, Zval =  6.0
     Generated in analytical, separable form
     Using radial grid of 1095 points,  1 beta functions with: 
                l(1) =   0

     atomic species   valence    mass     pseudopotential
        H              1.00     1.01000      H( 1.00)
        O              6.00    16.00000      O( 1.00)

     No symmetry found



   Cartesian axes

     site n.     atom                  positions (alat units)
         1           O   tau(   1) = (   0.2079522   0.8436360   0.1566566  )
         2           H   tau(   2) = (   0.1277979   0.7878442   0.1573344  )
         3           H   tau(   3) = (   0.1566674   0.8078464   1.1570455  )

     number of k points=     1  Marzari-Vanderbilt smearing, width (Ry)=  0.0250
                       cart. coord. in units 2pi/alat
        k(    1) = (   0.0000000   0.0000000   0.0000000), wk =   2.0000000

     Dense  grid:   177509 G-vectors     FFT dimensions: (  72,  72,  72)

     Estimated max dynamical RAM per process >       6.09Mb

     Estimated total allocated dynamical RAM >     170.64Mb

     Initial potential from superposition of free atoms
     Check: negative starting charge=   -0.359290

     starting charge    7.99998, renormalised to    8.00000

     negative rho (up, down):  3.593E-01 0.000E+00
     Starting wfc are    6 randomized atomic wfcs +    2 random wfc

     total cpu time spent up to now is        0.4 secs

     per-process dynamical memory:    18.8 Mb

     Self-consistent Calculation

     iteration #  1     ecut=    30.00 Ry     beta=0.70
     Davidson diagonalization with overlap
     ethr =  1.00E-02,  avg # of iterations =  9.0

     negative rho (up, down):  1.021E-01 0.000E+00

     total cpu time spent up to now is        0.5 secs

     total energy              =     -30.68348636 Ry
     Harris-Foulkes estimate   =     -30.98317717 Ry
     estimated scf accuracy    <       0.34256781 Ry

     iteration #  2     ecut=    30.00 Ry     beta=0.70
     Davidson diagonalization with overlap
     ethr =  4.28E-03,  avg # of iterations =  1.0

     negative rho (up, down):  1.572E-02 0.000E+00

     total cpu time spent up to now is        0.5 secs

     total energy              =     -30.76593957 Ry
     Harris-Foulkes estimate   =     -30.70737522 Ry
     estimated scf accuracy    <       0.01919027 Ry

     iteration #  3     ecut=    30.00 Ry     beta=0.70
     Davidson diagonalization with overlap
     ethr =  2.40E-04,  avg # of iterations =  4.0

     negative rho (up, down):  3.865E-03 0.000E+00

     total cpu time spent up to now is        0.6 secs

     total energy              =     -30.77963048 Ry
     Harris-Foulkes estimate   =     -30.76902411 Ry
     estimated scf accuracy    <       0.00160957 Ry

     iteration #  4     ecut=    30.00 Ry     beta=0.70
     Davidson diagonalization with overlap
     ethr =  2.01E-05,  avg # of iterations =  5.0

     negative rho (up, down):  3.869E-04 0.000E+00

     total cpu time spent up to now is        0.6 secs

     total energy              =     -30.78210037 Ry
     Harris-Foulkes estimate   =     -30.78011098 Ry
     estimated scf accuracy    <       0.00017618 Ry

     iteration #  5     ecut=    30.00 Ry     beta=0.70
     Davidson diagonalization with overlap
     c_bands:  1 eigenvalues not converged
     ethr =  2.20E-06,  avg # of iterations = 20.0

     negative rho (up, down):  1.273E-06 0.000E+00

     total cpu time spent up to now is        0.7 secs

     total energy              =     -30.78217637 Ry
     Harris-Foulkes estimate   =     -30.78215232 Ry
     estimated scf accuracy    <       0.00001060 Ry

     iteration #  6     ecut=    30.00 Ry     beta=0.70
     Davidson diagonalization with overlap
     ethr =  1.33E-07,  avg # of iterations =  8.0

     negative rho (up, down):  4.756E-08 0.000E+00

     total cpu time spent up to now is        0.8 secs

     total energy              =     -30.78217891 Ry
     Harris-Foulkes estimate   =     -30.78217879 Ry
     estimated scf accuracy    <       0.00000011 Ry

     iteration #  7     ecut=    30.00 Ry     beta=0.70
     Davidson diagonalization with overlap
     ethr =  1.42E-09,  avg # of iterations =  2.0

     total cpu time spent up to now is        0.8 secs

     total energy              =     -30.78217942 Ry
     Harris-Foulkes estimate   =     -30.78217898 Ry
     estimated scf accuracy    <       0.00000004 Ry

     iteration #  8     ecut=    30.00 Ry     beta=0.70
     Davidson diagonalization with overlap
     ethr =  4.57E-10,  avg # of iterations =  2.0

     total cpu time spent up to now is        0.9 secs

     End of self-consistent calculation

          k = 0.0000 0.0000 0.0000 ( 22119 PWs)   bands (ev):

   -34.0258 -14.8387  -7.6784  -7.6774  -2.2148   0.0671   1.0125   1.0265

     the Fermi energy is    -5.1206 ev

!    total energy              =     -30.78217943 Ry
     Harris-Foulkes estimate   =     -30.78217943 Ry
     estimated scf accuracy    <          3.2E-09 Ry

     convergence has been achieved in   8 iterations

     Forces acting on atoms (Ry/au):

     atom    1 type  2   force =     1.97003188    1.37422336   -0.01328938
     atom    2 type  1   force =    -2.14180786   -1.48337945    0.02098285
     atom    3 type  1   force =     0.17177598    0.10915609   -0.00769347

     Total force =     3.549559     Total SCF correction =     0.000177

     Molecular Dynamics Calculation

     Starting temperature  =  1000.00 K

     temperature is controlled by Andersen thermostat
     Collision frequency = 1.0000/timestep
     mass H                =     1.01
     mass O                =    16.00
     Time step             =   100.00 a.u.,  4.8378 femto-seconds

     Entering Dynamics:    iteration =     1
                           time      =   0.0048 pico-seconds


     Andersen thermostat:    3 collisions

ATOMIC_POSITIONS (bohr)
O        4.821984727  17.336458266   3.106843313
H       -9.075704982   7.880385053   3.163320042
H        4.262978665  16.687062340  23.540714564


     kinetic energy (Ekin) =     0.01337019 Ry
     temperature           =   703.66124461 K 
     Ekin + Etot (const)   =   -30.76880924 Ry

     Linear momentum :   -0.0000000000   -0.0000000000    0.0000000000

     Writing output data file pwscf.save
     Check: negative starting charge=   -0.359290
     NEW-OLD atomic charge density approx. for the potential
     Check: negative starting charge=   -0.354502

     negative rho (up, down):  8.705E-01 0.000E+00

     total cpu time spent up to now is        1.3 secs

     per-process dynamical memory:    20.4 Mb

     Self-consistent Calculation

     iteration #  1     ecut=    30.00 Ry     beta=0.70
     Davidson diagonalization with overlap
     ethr =  1.00E-06,  avg # of iterations = 15.0

     negative rho (up, down):  1.926E-01 0.000E+00

     total cpu time spent up to now is        1.4 secs

     total energy              =      -5.99454216 Ry
     Harris-Foulkes estimate   =     -41.76539480 Ry
     estimated scf accuracy    <       8.75088030 Ry

     iteration #  2     ecut=    30.00 Ry     beta=0.70
     Davidson diagonalization with overlap
     ethr =  1.00E-02,  avg # of iterations =  7.0

     negative rho (up, down):  1.077E-01 0.000E+00

     total cpu time spent up to now is        1.5 secs

     total energy              =     -11.96929905 Ry
     Harris-Foulkes estimate   =     -36.17550943 Ry
     estimated scf accuracy    <      10.12600325 Ry

     iteration #  3     ecut=    30.00 Ry     beta=0.70
     Davidson diagonalization with overlap
     ethr =  1.00E-02,  avg # of iterations =  3.0

     negative rho (up, down):  8.109E-02 0.000E+00

     total cpu time spent up to now is        1.6 secs

     total energy              =     -31.18934301 Ry
     Harris-Foulkes estimate   =     -34.29409711 Ry
     estimated scf accuracy    <       7.82644923 Ry

     iteration #  4     ecut=    30.00 Ry     beta=0.70
     Davidson diagonalization with overlap
     ethr =  1.00E-02,  avg # of iterations =  2.0

     negative rho (up, down):  7.128E-02 0.000E+00

     total cpu time spent up to now is        1.6 secs

     total energy              =     -30.78875309 Ry
     Harris-Foulkes estimate   =     -31.40067480 Ry
     estimated scf accuracy    <       2.16504245 Ry

     iteration #  5     ecut=    30.00 Ry     beta=0.70
     Davidson diagonalization with overlap
     ethr =  1.00E-02,  avg # of iterations =  1.0

     negative rho (up, down):  5.022E-02 0.000E+00

     total cpu time spent up to now is        1.7 secs

     total energy              =     -30.18796053 Ry
     Harris-Foulkes estimate   =     -30.94564009 Ry
     estimated scf accuracy    <       2.48093419 Ry

     iteration #  6     ecut=    30.00 Ry     beta=0.70
     Davidson diagonalization with overlap
     ethr =  1.00E-02,  avg # of iterations =  1.0

     negative rho (up, down):  1.070E-01 0.000E+00

     total cpu time spent up to now is        1.7 secs

     total energy              =     -30.35999594 Ry
     Harris-Foulkes estimate   =     -30.59407463 Ry
     estimated scf accuracy    <       2.13762230 Ry

     iteration #  7     ecut=    30.00 Ry     beta=0.70
     Davidson diagonalization with overlap
     ethr =  1.00E-02,  avg # of iterations =  2.0

     negative rho (up, down):  1.947E-01 0.000E+00

     total cpu time spent up to now is        1.8 secs

     total energy              =     -30.52779863 Ry
     Harris-Foulkes estimate   =     -30.41478484 Ry
     estimated scf accuracy    <       1.67398791 Ry

     iteration #  8     ecut=    30.00 Ry     beta=0.70
     Davidson diagonalization with overlap
     ethr =  1.00E-02,  avg # of iterations =  1.0

     negative rho (up, down):  1.395E-01 0.000E+00

     total cpu time spent up to now is        1.8 secs

     total energy              =     -30.02539335 Ry
     Harris-Foulkes estimate   =     -30.56453616 Ry
     estimated scf accuracy    <       2.22454324 Ry

     iteration #  9     ecut=    30.00 Ry     beta=0.70
     Davidson diagonalization with overlap
     ethr =  1.00E-02,  avg # of iterations =  4.0

     negative rho (up, down):  1.267E-01 0.000E+00

     total cpu time spent up to now is        1.9 secs

     total energy              =     -28.63071119 Ry
     Harris-Foulkes estimate   =     -32.49697844 Ry
     estimated scf accuracy    <       4.70719052 Ry

     iteration # 10     ecut=    30.00 Ry     beta=0.70
     Davidson diagonalization with overlap
     ethr =  1.00E-02,  avg # of iterations =  3.0

     negative rho (up, down):  1.453E-01 0.000E+00

     total cpu time spent up to now is        1.9 secs

     total energy              =      18.10847954 Ry
     Harris-Foulkes estimate   =     -30.99713993 Ry
     estimated scf accuracy    <       2.98242874 Ry

     iteration # 11     ecut=    30.00 Ry     beta=0.70
     Davidson diagonalization with overlap
     ethr =  1.00E-02,  avg # of iterations =  5.0

     negative rho (up, down):  3.433E-02 0.000E+00

     total cpu time spent up to now is        2.0 secs

     total energy              =      86.92652499 Ry
     Harris-Foulkes estimate   =    -136.03679922 Ry
     estimated scf accuracy    <      43.16018929 Ry

     iteration # 12     ecut=    30.00 Ry     beta=0.70
     Davidson diagonalization with overlap
     ethr =  1.00E-02,  avg # of iterations =  8.0

     negative rho (up, down):  6.704E-02 0.000E+00

     total cpu time spent up to now is        2.1 secs

     total energy              =     -11.13265547 Ry
     Harris-Foulkes estimate   =    -108.04999678 Ry
     estimated scf accuracy    <       7.70333827 Ry

     iteration # 13     ecut=    30.00 Ry     beta=0.70
     Davidson diagonalization with overlap
     ethr =  1.00E-02,  avg # of iterations =  5.0

     negative rho (up, down):  1.403E-01 0.000E+00

     total cpu time spent up to now is        2.2 secs

     total energy              =     -64.70045474 Ry
     Harris-Foulkes estimate   =     -32.67796101 Ry
     estimated scf accuracy    <       4.22587230 Ry

     iteration # 14     ecut=    30.00 Ry     beta=0.70
     Davidson diagonalization with overlap
     ethr =  1.00E-02,  avg # of iterations =  4.0

     negative rho (up, down):  2.740E-01 0.000E+00

     total cpu time spent up to now is        2.2 secs

     total energy              =       4.27682419 Ry
     Harris-Foulkes estimate   =    -365.93486704 Ry
     estimated scf accuracy    <      38.42237181 Ry

     iteration # 15     ecut=    30.00 Ry     beta=0.70
     Davidson diagonalization with overlap
     ethr =  1.00E-02,  avg # of iterations =  5.0

     negative rho (up, down):  2.274E-01 0.000E+00

     total cpu time spent up to now is        2.3 secs

     total energy              =     -33.71268322 Ry
     Harris-Foulkes estimate   =    -122.51226467 Ry
     estimated scf accuracy    <      46.06864275 Ry

     iteration # 16     ecut=    30.00 Ry     beta=0.70
     Davidson diagonalization with overlap
     ethr =  1.00E-02,  avg # of iterations =  5.0

     negative rho (up, down):  2.344E-01 0.000E+00

     total cpu time spent up to now is        2.4 secs

     total energy              =     -66.39551960 Ry
     Harris-Foulkes estimate   =    -382.50948415 Ry
     estimated scf accuracy    <      68.32814726 Ry

     iteration # 17     ecut=    30.00 Ry     beta=0.70
     Davidson diagonalization with overlap
     ethr =  1.00E-02,  avg # of iterations =  7.0

     negative rho (up, down):  3.289E-01 0.000E+00

     total cpu time spent up to now is        2.5 secs

     total energy              =    -430.70839849 Ry
     Harris-Foulkes estimate   =    -244.23872408 Ry
     estimated scf accuracy    <      66.48784092 Ry

     iteration # 18     ecut=    30.00 Ry     beta=0.70
     Davidson diagonalization with overlap
     ethr =  1.00E-02,  avg # of iterations =  5.0

     negative rho (up, down):  4.301E-01 0.000E+00

     total cpu time spent up to now is        2.5 secs

     total energy              =    -130.24463999 Ry
     Harris-Foulkes estimate   =   -4733.51299110 Ry
     estimated scf accuracy    <      62.62063563 Ry

     iteration # 19     ecut=    30.00 Ry     beta=0.70
     Davidson diagonalization with overlap
     ethr =  1.00E-02,  avg # of iterations =  8.0

     negative rho (up, down):  6.218E-01 0.000E+00

     total cpu time spent up to now is        2.6 secs

     total energy              =      42.93647118 Ry
     Harris-Foulkes estimate   =   -1161.37921511 Ry
     estimated scf accuracy    <      74.50276072 Ry

     iteration # 20     ecut=    30.00 Ry     beta=0.70
     Davidson diagonalization with overlap
     ethr =  1.00E-02,  avg # of iterations =  8.0

     negative rho (up, down):  7.765E-01 0.000E+00

     total cpu time spent up to now is        2.7 secs

     total energy              =     107.61924713 Ry
     Harris-Foulkes estimate   =   -1178.60790964 Ry
     estimated scf accuracy    <      70.15659383 Ry

     iteration # 21     ecut=    30.00 Ry     beta=0.70
     Davidson diagonalization with overlap
     ethr =  1.00E-02,  avg # of iterations = 11.0

     negative rho (up, down):  7.226E-01 0.000E+00

     total cpu time spent up to now is        2.8 secs

     total energy              =    -191.32285885 Ry
     Harris-Foulkes estimate   =   -1556.42441970 Ry
     estimated scf accuracy    <      56.05485447 Ry

     iteration # 22     ecut=    30.00 Ry     beta=0.70
     Davidson diagonalization with overlap
     ethr =  1.00E-02,  avg # of iterations =  7.0

     negative rho (up, down):  1.875E+00 0.000E+00

     total cpu time spent up to now is        2.9 secs

     total energy              =  -27981.98228252 Ry
     Harris-Foulkes estimate   =    -961.74768133 Ry
     estimated scf accuracy    <      53.64117344 Ry

     iteration # 23     ecut=    30.00 Ry     beta=0.70
     Davidson diagonalization with overlap
     ethr =  1.00E-02,  avg # of iterations =  9.0

     negative rho (up, down):  2.790E+00 0.000E+00

     total cpu time spent up to now is        3.0 secs

     total energy              =    -132.72655727 Ry
     Harris-Foulkes estimate   =  -50758.87235239 Ry
     estimated scf accuracy    <      38.06956083 Ry

     iteration # 24     ecut=    30.00 Ry     beta=0.70
     Davidson diagonalization with overlap
     ethr =  1.00E-02,  avg # of iterations =  5.0

     negative rho (up, down):  1.829E+00 0.000E+00

     total cpu time spent up to now is        3.1 secs

     total energy              =  -11080.57449260 Ry
     Harris-Foulkes estimate   =   -8038.53994028 Ry
     estimated scf accuracy    <      29.56770584 Ry

     iteration # 25     ecut=    30.00 Ry     beta=0.70
     Davidson diagonalization with overlap
     ethr =  1.00E-02,  avg # of iterations =  9.0

     negative rho (up, down):  1.667E+00 0.000E+00

     total cpu time spent up to now is        3.2 secs

     total energy              =      56.34845797 Ry
     Harris-Foulkes estimate   =  -28797.72383538 Ry
     estimated scf accuracy    <      19.81777772 Ry

     iteration # 26     ecut=    30.00 Ry     beta=0.70
     Davidson diagonalization with overlap
     ethr =  1.00E-02,  avg # of iterations =  4.0

     negative rho (up, down):  3.037E-01 0.000E+00

     total cpu time spent up to now is        3.2 secs

     total energy              =   -4829.74368841 Ry
     Harris-Foulkes estimate   =    -864.98126282 Ry
     estimated scf accuracy    <      21.43490892 Ry

     iteration # 27     ecut=    30.00 Ry     beta=0.70
     Davidson diagonalization with overlap
     ethr =  1.00E-02,  avg # of iterations =  5.0

     negative rho (up, down):  4.273E-01 0.000E+00

     total cpu time spent up to now is        3.3 secs

     total energy              =      97.94730865 Ry
     Harris-Foulkes estimate   =  -12926.70965135 Ry
     estimated scf accuracy    <      19.72140465 Ry

     iteration # 28     ecut=    30.00 Ry     beta=0.70
     Davidson diagonalization with overlap
     ethr =  1.00E-02,  avg # of iterations =  9.0

     negative rho (up, down):  7.934E-02 0.000E+00

     total cpu time spent up to now is        3.4 secs

     total energy              =    -828.95032997 Ry
     Harris-Foulkes estimate   =   -1904.74306348 Ry
     estimated scf accuracy    <      21.88760970 Ry

     iteration # 29     ecut=    30.00 Ry     beta=0.70
     Davidson diagonalization with overlap
     ethr =  1.00E-02,  avg # of iterations =  9.0

     negative rho (up, down):  3.453E-03 0.000E+00

     total cpu time spent up to now is        3.5 secs

     total energy              =      46.21246276 Ry
     Harris-Foulkes estimate   =   -2657.12085772 Ry
     estimated scf accuracy    <      22.92253355 Ry

     iteration # 30     ecut=    30.00 Ry     beta=0.70
     Davidson diagonalization with overlap
     ethr =  1.00E-02,  avg # of iterations =  6.0

     negative rho (up, down):  3.205E-03 0.000E+00

     total cpu time spent up to now is        3.5 secs

     total energy              =     -16.90531737 Ry
     Harris-Foulkes estimate   =    -295.85932866 Ry
     estimated scf accuracy    <      28.76081450 Ry

     iteration # 31     ecut=    30.00 Ry     beta=0.70
     Davidson diagonalization with overlap
     ethr =  1.00E-02,  avg # of iterations =  4.0

     negative rho (up, down):  5.897E-03 0.000E+00

     total cpu time spent up to now is        3.6 secs

     total energy              =      -5.78776059 Ry
     Harris-Foulkes estimate   =    -257.97925140 Ry
     estimated scf accuracy    <      20.44123813 Ry

     iteration # 32     ecut=    30.00 Ry     beta=0.70
     Davidson diagonalization with overlap
     ethr =  1.00E-02,  avg # of iterations =  5.0

     negative rho (up, down):  1.720E-02 0.000E+00

     total cpu time spent up to now is        3.7 secs

     total energy              =     -81.00300240 Ry
     Harris-Foulkes estimate   =     -57.90006275 Ry
     estimated scf accuracy    <      38.65472822 Ry

     iteration # 33     ecut=    30.00 Ry     beta=0.70
     Davidson diagonalization with overlap
     ethr =  1.00E-02,  avg # of iterations =  4.0

     negative rho (up, down):  2.173E-02 0.000E+00

     total cpu time spent up to now is        3.7 secs

     total energy              =      11.40219369 Ry
     Harris-Foulkes estimate   =    -291.75950786 Ry
     estimated scf accuracy    <      29.05097373 Ry

     iteration # 34     ecut=    30.00 Ry     beta=0.70
     Davidson diagonalization with overlap
     ethr =  1.00E-02,  avg # of iterations =  5.0

     negative rho (up, down):  7.238E-02 0.000E+00

     total cpu time spent up to now is        3.8 secs

     total energy              =     -60.66190732 Ry
     Harris-Foulkes estimate   =     -62.49927195 Ry
     estimated scf accuracy    <      45.82333883 Ry

     iteration # 35     ecut=    30.00 Ry     beta=0.70
     Davidson diagonalization with overlap
     ethr =  1.00E-02,  avg # of iterations =  5.0

     negative rho (up, down):  3.647E-01 0.000E+00

     total cpu time spent up to now is        3.9 secs

     total energy              =    -206.95315907 Ry
     Harris-Foulkes estimate   =     -68.27312336 Ry
     estimated scf accuracy    <      41.88843533 Ry

     iteration # 36     ecut=    30.00 Ry     beta=0.70
     Davidson diagonalization with overlap
     ethr =  1.00E-02,  avg # of iterations =  7.0

     negative rho (up, down):  4.449E-01 0.000E+00

     total cpu time spent up to now is        4.0 secs

     total energy              =    -301.89419751 Ry
     Harris-Foulkes estimate   =    -676.38129632 Ry
     estimated scf accuracy    <      35.61628980 Ry

     iteration # 37     ecut=    30.00 Ry     beta=0.70
     Davidson diagonalization with overlap
     ethr =  1.00E-02,  avg # of iterations =  7.0

     negative rho (up, down):  4.019E-01 0.000E+00

     total cpu time spent up to now is        4.0 secs

     total energy              =      72.93514948 Ry
     Harris-Foulkes estimate   =   -1529.39870391 Ry
     estimated scf accuracy    <      32.18954504 Ry

     iteration # 38     ecut=    30.00 Ry     beta=0.70
     Davidson diagonalization with overlap
     ethr =  1.00E-02,  avg # of iterations =  9.0

     negative rho (up, down):  3.092E-01 0.000E+00

     total cpu time spent up to now is        4.2 secs

     total energy              =     -29.20620617 Ry
     Harris-Foulkes estimate   =    -687.38640803 Ry
     estimated scf accuracy    <      44.27340240 Ry

     iteration # 39     ecut=    30.00 Ry     beta=0.70
     Davidson diagonalization with overlap
     ethr =  1.00E-02,  avg # of iterations =  9.0

     negative rho (up, down):  2.346E-01 0.000E+00

     total cpu time spent up to now is        4.2 secs

     total energy              =     142.75020045 Ry
     Harris-Foulkes estimate   =   -2984.76124102 Ry
     estimated scf accuracy    <      21.75025232 Ry

     iteration # 40     ecut=    30.00 Ry     beta=0.70
     Davidson diagonalization with overlap
     ethr =  1.00E-02,  avg # of iterations = 10.0

     negative rho (up, down):  2.897E-01 0.000E+00

     total cpu time spent up to now is        4.3 secs

     total energy              =     -69.55001606 Ry
     Harris-Foulkes estimate   =   -3313.21741432 Ry
     estimated scf accuracy    <      21.69988721 Ry

     iteration # 41     ecut=    30.00 Ry     beta=0.70
     Davidson diagonalization with overlap
     ethr =  1.00E-02,  avg # of iterations =  7.0

     negative rho (up, down):  6.352E-02 0.000E+00

     total cpu time spent up to now is        4.4 secs

     total energy              =     108.69731251 Ry
     Harris-Foulkes estimate   =   -8109.48060760 Ry
     estimated scf accuracy    <      18.48241939 Ry

     iteration # 42     ecut=    30.00 Ry     beta=0.70
     Davidson diagonalization with overlap
     ethr =  1.00E-02,  avg # of iterations =  9.0

     negative rho (up, down):  3.123E-02 0.000E+00

     total cpu time spent up to now is        4.5 secs

     total energy              =      61.52125027 Ry
     Harris-Foulkes estimate   =    -706.86099584 Ry
     estimated scf accuracy    <      15.19822945 Ry

     iteration # 43     ecut=    30.00 Ry     beta=0.70
     Davidson diagonalization with overlap
     ethr =  1.00E-02,  avg # of iterations =  6.0

     negative rho (up, down):  7.473E-03 0.000E+00

     total cpu time spent up to now is        4.6 secs

     total energy              =      53.79842402 Ry
     Harris-Foulkes estimate   =     -80.55137428 Ry
     estimated scf accuracy    <      18.82934068 Ry

     iteration # 44     ecut=    30.00 Ry     beta=0.70
     Davidson diagonalization with overlap
     ethr =  1.00E-02,  avg # of iterations =  5.0

     negative rho (up, down):  1.290E-05 0.000E+00

     total cpu time spent up to now is        4.7 secs

     total energy              =      -5.45894170 Ry
     Harris-Foulkes estimate   =     -91.04621320 Ry
     estimated scf accuracy    <      32.14988939 Ry

     iteration # 45     ecut=    30.00 Ry     beta=0.70
     Davidson diagonalization with overlap
     ethr =  1.00E-02,  avg # of iterations =  4.0

     negative rho (up, down):  1.398E-02 0.000E+00

     total cpu time spent up to now is        4.8 secs

     total energy              =     -37.75612675 Ry
     Harris-Foulkes estimate   =     -37.92736839 Ry
     estimated scf accuracy    <      13.60347347 Ry

     iteration # 46     ecut=    30.00 Ry     beta=0.70
     Davidson diagonalization with overlap
     ethr =  1.00E-02,  avg # of iterations =  5.0

     negative rho (up, down):  1.287E-03 0.000E+00

     total cpu time spent up to now is        4.8 secs

     total energy              =      45.00120249 Ry
     Harris-Foulkes estimate   =    -316.59017178 Ry
     estimated scf accuracy    <      11.90812006 Ry

     iteration # 47     ecut=    30.00 Ry     beta=0.70
     Davidson diagonalization with overlap
     ethr =  1.00E-02,  avg # of iterations =  5.0

     negative rho (up, down):  8.861E-03 0.000E+00

     total cpu time spent up to now is        4.9 secs

     total energy              =     -29.85572019 Ry
     Harris-Foulkes estimate   =     -38.38855805 Ry
     estimated scf accuracy    <      11.17423253 Ry

     iteration # 48     ecut=    30.00 Ry     beta=0.70
     Davidson diagonalization with overlap
     ethr =  1.00E-02,  avg # of iterations =  3.0

     negative rho (up, down):  8.335E-02 0.000E+00

     total cpu time spent up to now is        5.0 secs

     total energy              =     -31.96733600 Ry
     Harris-Foulkes estimate   =     -41.95147935 Ry
     estimated scf accuracy    <      12.37005695 Ry

     iteration # 49     ecut=    30.00 Ry     beta=0.70
     Davidson diagonalization with overlap
     ethr =  1.00E-02,  avg # of iterations =  4.0

     negative rho (up, down):  1.231E-01 0.000E+00

     total cpu time spent up to now is        5.0 secs

     total energy              =     -41.84969790 Ry
     Harris-Foulkes estimate   =    -130.38044283 Ry
     estimated scf accuracy    <      28.25972160 Ry

     iteration # 50     ecut=    30.00 Ry     beta=0.70
     Davidson diagonalization with overlap
     ethr =  1.00E-02,  avg # of iterations =  5.0

     negative rho (up, down):  2.614E-01 0.000E+00

     total cpu time spent up to now is        5.1 secs

     total energy              =    -398.69683716 Ry
     Harris-Foulkes estimate   =    -260.93201216 Ry
     estimated scf accuracy    <      29.70989193 Ry

     iteration # 51     ecut=    30.00 Ry     beta=0.70
     Davidson diagonalization with overlap
     ethr =  1.00E-02,  avg # of iterations =  6.0

     negative rho (up, down):  2.702E-01 0.000E+00

     total cpu time spent up to now is        5.2 secs

     total energy              =      16.44111731 Ry
     Harris-Foulkes estimate   =    -495.10165306 Ry
     estimated scf accuracy    <      30.10024010 Ry

     iteration # 52     ecut=    30.00 Ry     beta=0.70
     Davidson diagonalization with overlap
     ethr =  1.00E-02,  avg # of iterations =  7.0

     negative rho (up, down):  2.923E-01 0.000E+00

     total cpu time spent up to now is        5.3 secs

     total energy              =      17.07367723 Ry
     Harris-Foulkes estimate   =    -414.60016277 Ry
     estimated scf accuracy    <      40.66659555 Ry

     iteration # 53     ecut=    30.00 Ry     beta=0.70
     Davidson diagonalization with overlap
     ethr =  1.00E-02,  avg # of iterations =  8.0

     negative rho (up, down):  3.637E-01 0.000E+00

     total cpu time spent up to now is        5.3 secs

     total energy              =    -217.09092180 Ry
     Harris-Foulkes estimate   =    -381.88004670 Ry
     estimated scf accuracy    <      28.50864707 Ry

     iteration # 54     ecut=    30.00 Ry     beta=0.70
     Davidson diagonalization with overlap
     ethr =  1.00E-02,  avg # of iterations =  7.0

     negative rho (up, down):  6.206E-01 0.000E+00

     total cpu time spent up to now is        5.4 secs

     total energy              =    -602.38361244 Ry
     Harris-Foulkes estimate   =  -10245.66096681 Ry
     estimated scf accuracy    <      36.08134462 Ry

     iteration # 55     ecut=    30.00 Ry     beta=0.70
     Davidson diagonalization with overlap
     ethr =  1.00E-02,  avg # of iterations =  5.0

     negative rho (up, down):  8.340E-01 0.000E+00

     total cpu time spent up to now is        5.5 secs

     total energy              =    1208.00828929 Ry
     Harris-Foulkes estimate   =   -2779.22886601 Ry
     estimated scf accuracy    <      40.30328045 Ry

     iteration # 56     ecut=    30.00 Ry     beta=0.70
     Davidson diagonalization with overlap
     ethr =  1.00E-02,  avg # of iterations =  5.0

     negative rho (up, down):  1.127E+00 0.000E+00

     total cpu time spent up to now is        5.6 secs

     total energy              =    -105.74895405 Ry
     Harris-Foulkes estimate   =   -6610.43429997 Ry
     estimated scf accuracy    <      30.96450651 Ry

     iteration # 57     ecut=    30.00 Ry     beta=0.70
     Davidson diagonalization with overlap
     ethr =  1.00E-02,  avg # of iterations =  6.0

     negative rho (up, down):  7.379E-01 0.000E+00

     total cpu time spent up to now is        5.7 secs

     total energy              =     122.70180573 Ry
     Harris-Foulkes estimate   =   -4066.68839840 Ry
     estimated scf accuracy    <      33.17422853 Ry

     iteration # 58     ecut=    30.00 Ry     beta=0.70
     Davidson diagonalization with overlap
     ethr =  1.00E-02,  avg # of iterations =  8.0

     negative rho (up, down):  1.670E+00 0.000E+00

     total cpu time spent up to now is        5.8 secs

     total energy              =     -38.82947607 Ry
     Harris-Foulkes estimate   =   -5842.83336224 Ry
     estimated scf accuracy    <      32.97964124 Ry

     iteration # 59     ecut=    30.00 Ry     beta=0.70
     Davidson diagonalization with overlap
     ethr =  1.00E-02,  avg # of iterations = 11.0

     negative rho (up, down):  1.604E+00 0.000E+00

     total cpu time spent up to now is        5.9 secs

     total energy              =     -24.66749247 Ry
     Harris-Foulkes estimate   =   -3251.24826594 Ry
     estimated scf accuracy    <      20.01764774 Ry

     iteration # 60     ecut=    30.00 Ry     beta=0.70
     Davidson diagonalization with overlap
     ethr =  1.00E-02,  avg # of iterations =  6.0

     negative rho (up, down):  1.672E+00 0.000E+00

     total cpu time spent up to now is        6.0 secs

     total energy              =   -1459.24799292 Ry
     Harris-Foulkes estimate   =   -2308.03143891 Ry
     estimated scf accuracy    <      23.18205933 Ry

     iteration # 61     ecut=    30.00 Ry     beta=0.70
     Davidson diagonalization with overlap
     ethr =  1.00E-02,  avg # of iterations =  6.0

     negative rho (up, down):  7.698E-01 0.000E+00

     total cpu time spent up to now is        6.0 secs

     total energy              =      71.38778516 Ry
     Harris-Foulkes estimate   =   -4572.76162851 Ry
     estimated scf accuracy    <      21.21013409 Ry

     iteration # 62     ecut=    30.00 Ry     beta=0.70
     Davidson diagonalization with overlap
     ethr =  1.00E-02,  avg # of iterations =  8.0

     negative rho (up, down):  6.201E-01 0.000E+00

     total cpu time spent up to now is        6.1 secs

     total energy              =      91.02743247 Ry
     Harris-Foulkes estimate   =    -620.42929531 Ry
     estimated scf accuracy    <      21.39058519 Ry

     iteration # 63     ecut=    30.00 Ry     beta=0.70
     Davidson diagonalization with overlap
     ethr =  1.00E-02,  avg # of iterations =  9.0

     negative rho (up, down):  6.653E-01 0.000E+00

     total cpu time spent up to now is        6.2 secs

     total energy              =    -717.75348437 Ry
     Harris-Foulkes estimate   =   -3499.57531884 Ry
     estimated scf accuracy    <      23.73720077 Ry

     iteration # 64     ecut=    30.00 Ry     beta=0.70
     Davidson diagonalization with overlap
     ethr =  1.00E-02,  avg # of iterations =  6.0

     negative rho (up, down):  9.413E-03 0.000E+00

     total cpu time spent up to now is        6.3 secs

     total energy              =     122.58598768 Ry
     Harris-Foulkes estimate   =   -2513.19990338 Ry
     estimated scf accuracy    <      21.52986784 Ry

     iteration # 65     ecut=    30.00 Ry     beta=0.70
     Davidson diagonalization with overlap
     ethr =  1.00E-02,  avg # of iterations =  8.0

     negative rho (up, down):  6.216E-03 0.000E+00

     total cpu time spent up to now is        6.4 secs

     total energy              =      -4.77499227 Ry
     Harris-Foulkes estimate   =    -129.62543154 Ry
     estimated scf accuracy    <      22.95121493 Ry

     iteration # 66     ecut=    30.00 Ry     beta=0.70
     Davidson diagonalization with overlap
     ethr =  1.00E-02,  avg # of iterations =  5.0

     negative rho (up, down):  3.167E-04 0.000E+00

     total cpu time spent up to now is        6.5 secs

     total energy              =       4.06322030 Ry
     Harris-Foulkes estimate   =     -55.69128346 Ry
     estimated scf accuracy    <      11.13997830 Ry

     iteration # 67     ecut=    30.00 Ry     beta=0.70
     Davidson diagonalization with overlap
     ethr =  1.00E-02,  avg # of iterations =  6.0

     negative rho (up, down):  2.637E-02 0.000E+00

     total cpu time spent up to now is        6.5 secs

     total energy              =     -39.52252201 Ry
     Harris-Foulkes estimate   =     -41.13739898 Ry
     estimated scf accuracy    <      18.83963188 Ry

     iteration # 68     ecut=    30.00 Ry     beta=0.70
     Davidson diagonalization with overlap
     ethr =  1.00E-02,  avg # of iterations =  5.0

     negative rho (up, down):  4.616E-02 0.000E+00

     total cpu time spent up to now is        6.6 secs

     total energy              =      -9.84345283 Ry
     Harris-Foulkes estimate   =     -53.36908045 Ry
     estimated scf accuracy    <      12.71729256 Ry

     iteration # 69     ecut=    30.00 Ry     beta=0.70
     Davidson diagonalization with overlap
     ethr =  1.00E-02,  avg # of iterations =  5.0

     negative rho (up, down):  1.832E-01 0.000E+00

     total cpu time spent up to now is        6.7 secs

     total energy              =      26.98200321 Ry
     Harris-Foulkes estimate   =    -228.88612088 Ry
     estimated scf accuracy    <      18.57089657 Ry

     iteration # 70     ecut=    30.00 Ry     beta=0.70
     Davidson diagonalization with overlap
     ethr =  1.00E-02,  avg # of iterations =  5.0

     negative rho (up, down):  1.854E-01 0.000E+00

     total cpu time spent up to now is        6.7 secs

     total energy              =       2.38390553 Ry
     Harris-Foulkes estimate   =    -110.77617438 Ry
     estimated scf accuracy    <      18.43272890 Ry

     iteration # 71     ecut=    30.00 Ry     beta=0.70
     Davidson diagonalization with overlap
     ethr =  1.00E-02,  avg # of iterations =  5.0

     negative rho (up, down):  1.951E-01 0.000E+00

     total cpu time spent up to now is        6.8 secs

     total energy              =     -24.48760516 Ry
     Harris-Foulkes estimate   =    -198.60054232 Ry
     estimated scf accuracy    <      20.18038091 Ry

     iteration # 72     ecut=    30.00 Ry     beta=0.70
     Davidson diagonalization with overlap
     ethr =  1.00E-02,  avg # of iterations =  5.0

     negative rho (up, down):  2.277E-01 0.000E+00

     total cpu time spent up to now is        6.9 secs

     total energy              =     142.37893450 Ry
     Harris-Foulkes estimate   =   -1930.43840678 Ry
     estimated scf accuracy    <      52.17935501 Ry

     iteration # 73     ecut=    30.00 Ry     beta=0.70
     Davidson diagonalization with overlap
     ethr =  1.00E-02,  avg # of iterations =  8.0

     negative rho (up, down):  2.369E-01 0.000E+00

     total cpu time spent up to now is        7.0 secs

     total energy              =      33.72343708 Ry
     Harris-Foulkes estimate   =    -157.74212232 Ry
     estimated scf accuracy    <      28.46873635 Ry

     iteration # 74     ecut=    30.00 Ry     beta=0.70
     Davidson diagonalization with overlap
     ethr =  1.00E-02,  avg # of iterations =  9.0

     negative rho (up, down):  3.145E-01 0.000E+00

     total cpu time spent up to now is        7.0 secs

     total energy              =     -91.21891536 Ry
     Harris-Foulkes estimate   =   -2075.45686670 Ry
     estimated scf accuracy    <      26.63230399 Ry

     iteration # 75     ecut=    30.00 Ry     beta=0.70
     Davidson diagonalization with overlap
     ethr =  1.00E-02,  avg # of iterations =  5.0

     negative rho (up, down):  3.903E-01 0.000E+00

     total cpu time spent up to now is        7.1 secs

     total energy              =     -99.78631452 Ry
     Harris-Foulkes estimate   =   -1057.61085350 Ry
     estimated scf accuracy    <      44.35500549 Ry

     iteration # 76     ecut=    30.00 Ry     beta=0.70
     Davidson diagonalization with overlap
     ethr =  1.00E-02,  avg # of iterations =  5.0

     negative rho (up, down):  1.565E-01 0.000E+00

     total cpu time spent up to now is        7.2 secs

     total energy              =    -740.28071381 Ry
     Harris-Foulkes estimate   =    -914.29505269 Ry
     estimated scf accuracy    <      46.67069527 Ry

     iteration # 77     ecut=    30.00 Ry     beta=0.70
     Davidson diagonalization with overlap
     ethr =  1.00E-02,  avg # of iterations =  5.0

     negative rho (up, down):  4.159E-01 0.000E+00

     total cpu time spent up to now is        7.3 secs

     total energy              =    -242.11846062 Ry
     Harris-Foulkes estimate   =   -3350.12640614 Ry
     estimated scf accuracy    <      50.32159025 Ry

     iteration # 78     ecut=    30.00 Ry     beta=0.70
     Davidson diagonalization with overlap
     ethr =  1.00E-02,  avg # of iterations =  7.0

     negative rho (up, down):  6.320E-01 0.000E+00

     total cpu time spent up to now is        7.4 secs

     total energy              =      92.11613370 Ry
     Harris-Foulkes estimate   =    -686.80657200 Ry
     estimated scf accuracy    <      42.58437351 Ry

     iteration # 79     ecut=    30.00 Ry     beta=0.70
     Davidson diagonalization with overlap
     ethr =  1.00E-02,  avg # of iterations = 10.0

     negative rho (up, down):  5.812E-01 0.000E+00

     total cpu time spent up to now is        7.5 secs

     total energy              =     115.08671425 Ry
     Harris-Foulkes estimate   =    -816.02537718 Ry
     estimated scf accuracy    <      32.01418607 Ry

     iteration # 80     ecut=    30.00 Ry     beta=0.70
     Davidson diagonalization with overlap
     ethr =  1.00E-02,  avg # of iterations = 14.0

     negative rho (up, down):  5.244E-01 0.000E+00

     total cpu time spent up to now is        7.6 secs

     total energy              =      11.59607386 Ry
     Harris-Foulkes estimate   =    -340.24578239 Ry
     estimated scf accuracy    <      35.95265957 Ry

     iteration # 81     ecut=    30.00 Ry     beta=0.70
     Davidson diagonalization with overlap
     ethr =  1.00E-02,  avg # of iterations =  6.0

     negative rho (up, down):  1.096E+00 0.000E+00

     total cpu time spent up to now is        7.7 secs

     total energy              =      71.33942648 Ry
     Harris-Foulkes estimate   =  -11069.55783351 Ry
     estimated scf accuracy    <      27.56577353 Ry

     iteration # 82     ecut=    30.00 Ry     beta=0.70
     Davidson diagonalization with overlap
     ethr =  1.00E-02,  avg # of iterations =  9.0

     negative rho (up, down):  9.036E-01 0.000E+00

     total cpu time spent up to now is        7.8 secs

     total energy              =    -194.39133237 Ry
     Harris-Foulkes estimate   =   -1054.90514581 Ry
     estimated scf accuracy    <      25.65935453 Ry

     iteration # 83     ecut=    30.00 Ry     beta=0.70
     Davidson diagonalization with overlap
     ethr =  1.00E-02,  avg # of iterations =  9.0

     negative rho (up, down):  4.958E-01 0.000E+00

     total cpu time spent up to now is        7.9 secs

     total energy              =     127.98062705 Ry
     Harris-Foulkes estimate   =   -3635.35830141 Ry
     estimated scf accuracy    <      23.17820306 Ry

     iteration # 84     ecut=    30.00 Ry     beta=0.70
     Davidson diagonalization with overlap
     ethr =  1.00E-02,  avg # of iterations = 10.0

     negative rho (up, down):  1.148E-01 0.000E+00

     total cpu time spent up to now is        8.0 secs

     total energy              =      25.41803119 Ry
     Harris-Foulkes estimate   =   -1286.96322769 Ry
     estimated scf accuracy    <      26.45767993 Ry

     iteration # 85     ecut=    30.00 Ry     beta=0.70
     Davidson diagonalization with overlap
     ethr =  1.00E-02,  avg # of iterations =  9.0

     negative rho (up, down):  5.400E-02 0.000E+00

     total cpu time spent up to now is        8.1 secs

     total energy              =      37.61009016 Ry
     Harris-Foulkes estimate   =    -320.08481182 Ry
     estimated scf accuracy    <      13.78886700 Ry

     iteration # 86     ecut=    30.00 Ry     beta=0.70
     Davidson diagonalization with overlap
     ethr =  1.00E-02,  avg # of iterations =  6.0

     negative rho (up, down):  1.600E-03 0.000E+00

     total cpu time spent up to now is        8.2 secs

     total energy              =      26.23894456 Ry
     Harris-Foulkes estimate   =    -237.48282374 Ry
     estimated scf accuracy    <      17.18552979 Ry

     iteration # 87     ecut=    30.00 Ry     beta=0.70
     Davidson diagonalization with overlap
     ethr =  1.00E-02,  avg # of iterations =  7.0

     negative rho (up, down):  1.353E-03 0.000E+00

     total cpu time spent up to now is        8.2 secs

     total energy              =     -48.83341446 Ry
     Harris-Foulkes estimate   =     -52.84258244 Ry
     estimated scf accuracy    <      32.27375059 Ry

     iteration # 88     ecut=    30.00 Ry     beta=0.70
     Davidson diagonalization with overlap
     ethr =  1.00E-02,  avg # of iterations =  1.0

     negative rho (up, down):  1.284E+00 0.000E+00

     total cpu time spent up to now is        8.3 secs

     total energy              =     -35.33864169 Ry
     Harris-Foulkes estimate   =     -48.85260036 Ry
     estimated scf accuracy    <      26.87493091 Ry

     iteration # 89     ecut=    30.00 Ry     beta=0.70
     Davidson diagonalization with overlap
     ethr =  1.00E-02,  avg # of iterations = 10.0

     negative rho (up, down):  6.346E-01 0.000E+00

     total cpu time spent up to now is        8.4 secs

     total energy              =     117.49951580 Ry
     Harris-Foulkes estimate   =  -11527.79724283 Ry
     estimated scf accuracy    <      52.18283839 Ry

     iteration # 90     ecut=    30.00 Ry     beta=0.70
     Davidson diagonalization with overlap
     ethr =  1.00E-02,  avg # of iterations =  8.0

     negative rho (up, down):  8.442E-01 0.000E+00

     total cpu time spent up to now is        8.5 secs

     total energy              =      49.70378702 Ry
     Harris-Foulkes estimate   =    -183.30946473 Ry
     estimated scf accuracy    <      37.57330409 Ry

     iteration # 91     ecut=    30.00 Ry     beta=0.70
     Davidson diagonalization with overlap
     ethr =  1.00E-02,  avg # of iterations =  7.0

     negative rho (up, down):  4.822E-01 0.000E+00

     total cpu time spent up to now is        8.6 secs

     total energy              =      52.87984136 Ry
     Harris-Foulkes estimate   =    -774.91741700 Ry
     estimated scf accuracy    <      41.60877069 Ry

     iteration # 92     ecut=    30.00 Ry     beta=0.70
     Davidson diagonalization with overlap
     ethr =  1.00E-02,  avg # of iterations =  9.0

     negative rho (up, down):  3.732E-01 0.000E+00

     total cpu time spent up to now is        8.7 secs

     total energy              =      51.02849413 Ry
     Harris-Foulkes estimate   =    -997.41766072 Ry
     estimated scf accuracy    <      46.60895405 Ry

     iteration # 93     ecut=    30.00 Ry     beta=0.70
     Davidson diagonalization with overlap
     ethr =  1.00E-02,  avg # of iterations = 10.0

     negative rho (up, down):  3.447E-02 0.000E+00

     total cpu time spent up to now is        8.8 secs

     total energy              =     136.81810421 Ry
     Harris-Foulkes estimate   =   -1554.80445131 Ry
     estimated scf accuracy    <      49.01841583 Ry

     iteration # 94     ecut=    30.00 Ry     beta=0.70
     Davidson diagonalization with overlap
     ethr =  1.00E-02,  avg # of iterations =  8.0

     negative rho (up, down):  1.650E-02 0.000E+00

     total cpu time spent up to now is        8.8 secs

     total energy              =     -42.47786122 Ry
     Harris-Foulkes estimate   =     -56.61289327 Ry
     estimated scf accuracy    <      34.12477544 Ry

     iteration # 95     ecut=    30.00 Ry     beta=0.70
     Davidson diagonalization with overlap
     ethr =  1.00E-02,  avg # of iterations = 10.0

     negative rho (up, down):  8.355E-03 0.000E+00

     total cpu time spent up to now is        8.9 secs

     total energy              =      14.60498152 Ry
     Harris-Foulkes estimate   =     -60.69465577 Ry
     estimated scf accuracy    <      12.58775740 Ry

     iteration # 96     ecut=    30.00 Ry     beta=0.70
     Davidson diagonalization with overlap
     ethr =  1.00E-02,  avg # of iterations =  5.0

     negative rho (up, down):  2.383E-03 0.000E+00

     total cpu time spent up to now is        9.0 secs

     total energy              =       2.30995478 Ry
     Harris-Foulkes estimate   =     -47.01217237 Ry
     estimated scf accuracy    <      11.46674278 Ry

     iteration # 97     ecut=    30.00 Ry     beta=0.70
     Davidson diagonalization with overlap
     ethr =  1.00E-02,  avg # of iterations =  5.0

     negative rho (up, down):  3.123E-02 0.000E+00

     total cpu time spent up to now is        9.1 secs

     total energy              =     -22.90574923 Ry
     Harris-Foulkes estimate   =     -70.06109970 Ry
     estimated scf accuracy    <      12.01681247 Ry

     iteration # 98     ecut=    30.00 Ry     beta=0.70
     Davidson diagonalization with overlap
     ethr =  1.00E-02,  avg # of iterations =  5.0

     negative rho (up, down):  2.094E-01 0.000E+00

     total cpu time spent up to now is        9.1 secs

     total energy              =     -37.28437551 Ry
     Harris-Foulkes estimate   =     -41.02584899 Ry
     estimated scf accuracy    <      16.36882552 Ry

     iteration # 99     ecut=    30.00 Ry     beta=0.70
     Davidson diagonalization with overlap
     ethr =  1.00E-02,  avg # of iterations =  5.0

     negative rho (up, down):  3.838E-01 0.000E+00

     total cpu time spent up to now is        9.2 secs

     total energy              =    3295.24269464 Ry
     Harris-Foulkes estimate   =   -1462.12418878 Ry
     estimated scf accuracy    <      35.55896679 Ry

     iteration #100     ecut=    30.00 Ry     beta=0.70
     Davidson diagonalization with overlap
     ethr =  1.00E-02,  avg # of iterations =  5.0

     negative rho (up, down):  5.011E-01 0.000E+00

     total cpu time spent up to now is        9.3 secs

     total energy              =      29.62004199 Ry
     Harris-Foulkes estimate   =    -160.73617476 Ry
     estimated scf accuracy    <      16.06441026 Ry

     End of self-consistent calculation

     convergence NOT achieved after 100 iterations: stopping

     Writing output data file pwscf.save
 
     init_run     :      0.17s CPU      0.19s WALL (       1 calls)
     electrons    :      7.51s CPU      8.63s WALL (       2 calls)
     update_pot   :      0.12s CPU      0.17s WALL (       1 calls)
     forces       :      0.04s CPU      0.04s WALL (       1 calls)

     Called by init_run:
     wfcinit      :      0.01s CPU      0.02s WALL (       1 calls)
     potinit      :      0.05s CPU      0.05s WALL (       1 calls)

     Called by electrons:
     c_bands      :      4.74s CPU      4.88s WALL (     108 calls)
     sum_band     :      0.56s CPU      0.58s WALL (     108 calls)
     v_of_rho     :      1.41s CPU      1.46s WALL (     110 calls)
     mix_rho      :      0.69s CPU      1.46s WALL (     108 calls)

     Called by c_bands:
     init_us_2    :      0.02s CPU      0.02s WALL (     217 calls)
     cegterg      :      4.71s CPU      4.82s WALL (     108 calls)

     Called by sum_band:

     Called by *egterg:
     h_psi        :      3.92s CPU      3.99s WALL (     800 calls)
     g_psi        :      0.05s CPU      0.05s WALL (     691 calls)
     cdiaghg      :      0.31s CPU      0.32s WALL (     798 calls)

     Called by h_psi:
     h_psi:pot    :      3.90s CPU      3.97s WALL (     800 calls)
     h_psi:calbec :      0.03s CPU      0.03s WALL (     800 calls)
     vloc_psi     :      3.86s CPU      3.92s WALL (     800 calls)
     add_vuspsi   :      0.01s CPU      0.01s WALL (     800 calls)

     General routines
     calbec       :      0.03s CPU      0.03s WALL (     804 calls)
     fft          :      0.76s CPU      0.78s WALL (    1212 calls)
     fftw         :      3.88s CPU      3.95s WALL (    9684 calls)
     davcio       :      0.14s CPU      0.69s WALL (    1998 calls)
 
     Parallel routines
     fft_scatter  :      1.31s CPU      1.35s WALL (   10896 calls)
 
     PWSCF        :     8.04s CPU         9.39s WALL

 
   This run was terminated on:  14:17:49  13Feb2018            

=------------------------------------------------------------------------------=
   JOB DONE.
=------------------------------------------------------------------------------=
