
     Program PWSCF v.6.0 (svn rev. 13079) starts on 13Feb2018 at 14:35:25 

     This program is part of the open-source Quantum ESPRESSO suite
     for quantum simulation of materials; please cite
         "P. Giannozzi et al., J. Phys.:Condens. Matter 21 395502 (2009);
          URL http://www.quantum-espresso.org", 
     in publications or presentations arising from this work. More details at
     http://www.quantum-espresso.org/quote

     Parallel version (MPI), running on    28 processors
     R & G space division:  proc/nbgrp/npool/nimage =      28
     Reading input from inputs/MD-H2O-round1/299.in

     Current dimensions of program PWSCF are:
     Max number of different atomic species (ntypx) = 10
     Max number of k-points (npk) =  40000
     Max angular momentum in pseudopotentials (lmaxx) =  3

     Subspace diagonalization in iterative solution of the eigenvalue problem:
     a serial algorithm will be used

 
     Parallelization info
     --------------------
     sticks:   dense  smooth     PW     G-vecs:    dense   smooth      PW
     Min         136     136     33                 6338     6338     787
     Max         137     137     34                 6341     6341     792
     Sum        3809    3809    949               177509   177509   22119
 


     bravais-lattice index     =            1
     lattice parameter (alat)  =      20.0000  a.u.
     unit-cell volume          =    8000.0000 (a.u.)^3
     number of atoms/cell      =            3
     number of atomic types    =            2
     number of electrons       =         8.00
     number of Kohn-Sham states=            8
     kinetic-energy cutoff     =      30.0000  Ry
     charge density cutoff     =     120.0000  Ry
     convergence threshold     =      1.0E-08
     mixing beta               =       0.7000
     number of iterations used =            8  plain     mixing
     Exchange-correlation      = BLYP ( 1  3  1  3 0 0)
     nstep                     =         5000


     celldm(1)=  20.000000  celldm(2)=   0.000000  celldm(3)=   0.000000
     celldm(4)=   0.000000  celldm(5)=   0.000000  celldm(6)=   0.000000

     crystal axes: (cart. coord. in units of alat)
               a(1) = (   1.000000   0.000000   0.000000 )  
               a(2) = (   0.000000   1.000000   0.000000 )  
               a(3) = (   0.000000   0.000000   1.000000 )  

     reciprocal axes: (cart. coord. in units 2 pi/alat)
               b(1) = (  1.000000  0.000000  0.000000 )  
               b(2) = (  0.000000  1.000000  0.000000 )  
               b(3) = (  0.000000  0.000000  1.000000 )  


     PseudoPot. # 1 for  H read from file:
     ./H.blyp-hgh.UPF
     MD5 check sum: c576e69559cde411e611be972c763230
     Pseudo is Norm-conserving, Zval =  1.0
     Generated in analytical, separable form
     Using radial grid of  929 points,  0 beta functions with: 

     PseudoPot. # 2 for  O read from file:
     ./O.blyp-hgh.UPF
     MD5 check sum: d0b7156309aa9befef28faac7bc56342
     Pseudo is Norm-conserving, Zval =  6.0
     Generated in analytical, separable form
     Using radial grid of 1095 points,  1 beta functions with: 
                l(1) =   0

     atomic species   valence    mass     pseudopotential
        H              1.00     1.01000      H( 1.00)
        O              6.00    16.00000      O( 1.00)

     No symmetry found



   Cartesian axes

     site n.     atom                  positions (alat units)
         1           O   tau(   1) = (   0.3842919   0.4273533   0.0823513  )
         2           H   tau(   2) = (   0.3575762   0.3866249   0.1460987  )
         3           H   tau(   3) = (   0.8629022   0.4716977   0.4906079  )

     number of k points=     1  Marzari-Vanderbilt smearing, width (Ry)=  0.0250
                       cart. coord. in units 2pi/alat
        k(    1) = (   0.0000000   0.0000000   0.0000000), wk =   2.0000000

     Dense  grid:   177509 G-vectors     FFT dimensions: (  72,  72,  72)

     Estimated max dynamical RAM per process >       6.09Mb

     Estimated total allocated dynamical RAM >     170.64Mb

     Initial potential from superposition of free atoms
     Check: negative starting charge=   -0.351828

     starting charge    7.99998, renormalised to    8.00000

     negative rho (up, down):  3.518E-01 0.000E+00
     Starting wfc are    6 randomized atomic wfcs +    2 random wfc

     total cpu time spent up to now is        0.4 secs

     per-process dynamical memory:    18.8 Mb

     Self-consistent Calculation

     iteration #  1     ecut=    30.00 Ry     beta=0.70
     Davidson diagonalization with overlap
     ethr =  1.00E-02,  avg # of iterations =  5.0

     negative rho (up, down):  9.506E-02 0.000E+00

     total cpu time spent up to now is        0.4 secs

     total energy              =     -31.57175483 Ry
     Harris-Foulkes estimate   =     -32.07221137 Ry
     estimated scf accuracy    <       0.52570647 Ry

     iteration #  2     ecut=    30.00 Ry     beta=0.70
     Davidson diagonalization with overlap
     ethr =  6.57E-03,  avg # of iterations =  3.0

     negative rho (up, down):  7.388E-02 0.000E+00

     total cpu time spent up to now is        0.5 secs

     total energy              =     -31.70655809 Ry
     Harris-Foulkes estimate   =     -32.36802069 Ry
     estimated scf accuracy    <       2.24663421 Ry

     iteration #  3     ecut=    30.00 Ry     beta=0.70
     Davidson diagonalization with overlap
     ethr =  6.57E-03,  avg # of iterations =  2.0

     negative rho (up, down):  2.649E-02 0.000E+00

     total cpu time spent up to now is        0.5 secs

     total energy              =     -31.68744843 Ry
     Harris-Foulkes estimate   =     -31.80035783 Ry
     estimated scf accuracy    <       0.69367649 Ry

     iteration #  4     ecut=    30.00 Ry     beta=0.70
     Davidson diagonalization with overlap
     ethr =  6.57E-03,  avg # of iterations =  1.0

     negative rho (up, down):  1.154E-02 0.000E+00

     total cpu time spent up to now is        0.6 secs

     total energy              =     -31.72739505 Ry
     Harris-Foulkes estimate   =     -31.98048214 Ry
     estimated scf accuracy    <       1.45434044 Ry

     iteration #  5     ecut=    30.00 Ry     beta=0.70
     Davidson diagonalization with overlap
     ethr =  6.57E-03,  avg # of iterations =  1.0

     negative rho (up, down):  1.000E-03 0.000E+00

     total cpu time spent up to now is        0.6 secs

     total energy              =     -31.83453553 Ry
     Harris-Foulkes estimate   =     -31.89636147 Ry
     estimated scf accuracy    <       0.94384671 Ry

     iteration #  6     ecut=    30.00 Ry     beta=0.70
     Davidson diagonalization with overlap
     ethr =  6.57E-03,  avg # of iterations =  1.0

     negative rho (up, down):  4.185E-04 0.000E+00

     total cpu time spent up to now is        0.7 secs

     total energy              =     -31.82448075 Ry
     Harris-Foulkes estimate   =     -31.84282198 Ry
     estimated scf accuracy    <       0.10738583 Ry

     iteration #  7     ecut=    30.00 Ry     beta=0.70
     Davidson diagonalization with overlap
     ethr =  1.34E-03,  avg # of iterations =  1.0

     negative rho (up, down):  2.205E-04 0.000E+00

     total cpu time spent up to now is        0.7 secs

     total energy              =     -31.86546432 Ry
     Harris-Foulkes estimate   =     -31.88438398 Ry
     estimated scf accuracy    <       1.60130217 Ry

     iteration #  8     ecut=    30.00 Ry     beta=0.70
     Davidson diagonalization with overlap
     ethr =  1.34E-03,  avg # of iterations =  1.0

     negative rho (up, down):  1.851E-06 0.000E+00

     total cpu time spent up to now is        0.8 secs

     total energy              =     -31.76014451 Ry
     Harris-Foulkes estimate   =     -31.86531678 Ry
     estimated scf accuracy    <       1.48756302 Ry

     iteration #  9     ecut=    30.00 Ry     beta=0.70
     Davidson diagonalization with overlap
     ethr =  1.34E-03,  avg # of iterations =  1.0

     negative rho (up, down):  6.627E-08 0.000E+00

     total cpu time spent up to now is        0.8 secs

     total energy              =     -31.84853302 Ry
     Harris-Foulkes estimate   =     -31.87642154 Ry
     estimated scf accuracy    <       0.91324837 Ry

     iteration # 10     ecut=    30.00 Ry     beta=0.70
     Davidson diagonalization with overlap
     ethr =  1.34E-03,  avg # of iterations =  1.0

     negative rho (up, down):  5.661E-07 0.000E+00

     total cpu time spent up to now is        0.8 secs

     total energy              =     -31.84615224 Ry
     Harris-Foulkes estimate   =     -31.85060905 Ry
     estimated scf accuracy    <       0.50339527 Ry

     iteration # 11     ecut=    30.00 Ry     beta=0.70
     Davidson diagonalization with overlap
     ethr =  1.34E-03,  avg # of iterations =  1.0

     negative rho (up, down):  2.680E-08 0.000E+00

     total cpu time spent up to now is        0.9 secs

     total energy              =     -31.84648162 Ry
     Harris-Foulkes estimate   =     -31.84658045 Ry
     estimated scf accuracy    <       0.31967786 Ry

     iteration # 12     ecut=    30.00 Ry     beta=0.70
     Davidson diagonalization with overlap
     ethr =  1.34E-03,  avg # of iterations =  1.0

     negative rho (up, down):  1.091E-08 0.000E+00

     total cpu time spent up to now is        0.9 secs

     total energy              =     -31.83979302 Ry
     Harris-Foulkes estimate   =     -31.84648278 Ry
     estimated scf accuracy    <       0.31426665 Ry

     iteration # 13     ecut=    30.00 Ry     beta=0.70
     Davidson diagonalization with overlap
     ethr =  1.34E-03,  avg # of iterations =  1.0

     negative rho (up, down):  3.007E-07 0.000E+00

     total cpu time spent up to now is        1.0 secs

     total energy              =     -31.83996906 Ry
     Harris-Foulkes estimate   =     -31.84189280 Ry
     estimated scf accuracy    <       0.03369083 Ry

     iteration # 14     ecut=    30.00 Ry     beta=0.70
     Davidson diagonalization with overlap
     ethr =  4.21E-04,  avg # of iterations =  1.0

     total cpu time spent up to now is        1.0 secs

     total energy              =     -31.83843746 Ry
     Harris-Foulkes estimate   =     -31.84210921 Ry
     estimated scf accuracy    <       0.05374156 Ry

     iteration # 15     ecut=    30.00 Ry     beta=0.70
     Davidson diagonalization with overlap
     ethr =  4.21E-04,  avg # of iterations =  1.0

     negative rho (up, down):  9.061E-08 0.000E+00

     total cpu time spent up to now is        1.1 secs

     total energy              =     -31.84325230 Ry
     Harris-Foulkes estimate   =     -31.84340573 Ry
     estimated scf accuracy    <       0.13643272 Ry

     iteration # 16     ecut=    30.00 Ry     beta=0.70
     Davidson diagonalization with overlap
     ethr =  4.21E-04,  avg # of iterations =  1.0

     negative rho (up, down):  5.564E-08 0.000E+00

     total cpu time spent up to now is        1.1 secs

     total energy              =     -31.83978506 Ry
     Harris-Foulkes estimate   =     -31.84325563 Ry
     estimated scf accuracy    <       0.12680261 Ry

     iteration # 17     ecut=    30.00 Ry     beta=0.70
     Davidson diagonalization with overlap
     ethr =  4.21E-04,  avg # of iterations =  1.0

     total cpu time spent up to now is        1.2 secs

     total energy              =     -31.84143372 Ry
     Harris-Foulkes estimate   =     -31.84143685 Ry
     estimated scf accuracy    <       0.00001359 Ry

     iteration # 18     ecut=    30.00 Ry     beta=0.70
     Davidson diagonalization with overlap
     c_bands:  1 eigenvalues not converged
     ethr =  1.70E-07,  avg # of iterations = 20.0

     total cpu time spent up to now is        1.3 secs

     total energy              =     -31.84148983 Ry
     Harris-Foulkes estimate   =     -31.84150120 Ry
     estimated scf accuracy    <       0.00489161 Ry

     iteration # 19     ecut=    30.00 Ry     beta=0.70
     Davidson diagonalization with overlap
     c_bands:  1 eigenvalues not converged
     ethr =  1.70E-07,  avg # of iterations = 20.0

     negative rho (up, down):  1.111E-08 0.000E+00

     total cpu time spent up to now is        1.3 secs

     total energy              =     -31.84131720 Ry
     Harris-Foulkes estimate   =     -31.84149044 Ry
     estimated scf accuracy    <       0.00407549 Ry

     iteration # 20     ecut=    30.00 Ry     beta=0.70
     Davidson diagonalization with overlap
     ethr =  1.70E-07,  avg # of iterations =  5.0

     total cpu time spent up to now is        1.4 secs

     total energy              =     -31.84141638 Ry
     Harris-Foulkes estimate   =     -31.84145591 Ry
     estimated scf accuracy    <       0.00163951 Ry

     iteration # 21     ecut=    30.00 Ry     beta=0.70
     Davidson diagonalization with overlap
     ethr =  1.70E-07,  avg # of iterations =  1.0

     total cpu time spent up to now is        1.5 secs

     total energy              =     -31.84143630 Ry
     Harris-Foulkes estimate   =     -31.84143641 Ry
     estimated scf accuracy    <       0.00000077 Ry

     iteration # 22     ecut=    30.00 Ry     beta=0.70
     Davidson diagonalization with overlap
     ethr =  9.68E-09,  avg # of iterations =  1.0

     total cpu time spent up to now is        1.5 secs

     total energy              =     -31.84143591 Ry
     Harris-Foulkes estimate   =     -31.84143686 Ry
     estimated scf accuracy    <       0.00005597 Ry

     iteration # 23     ecut=    30.00 Ry     beta=0.70
     Davidson diagonalization with overlap
     ethr =  9.68E-09,  avg # of iterations =  1.0

     total cpu time spent up to now is        1.5 secs

     total energy              =     -31.84143655 Ry
     Harris-Foulkes estimate   =     -31.84143646 Ry
     estimated scf accuracy    <       0.00000085 Ry

     iteration # 24     ecut=    30.00 Ry     beta=0.70
     Davidson diagonalization with overlap
     ethr =  9.68E-09,  avg # of iterations =  1.0

     total cpu time spent up to now is        1.6 secs

     total energy              =     -31.84143659 Ry
     Harris-Foulkes estimate   =     -31.84143655 Ry
     estimated scf accuracy    <       0.00000028 Ry

     iteration # 25     ecut=    30.00 Ry     beta=0.70
     Davidson diagonalization with overlap
     ethr =  3.53E-09,  avg # of iterations =  1.0

     total cpu time spent up to now is        1.7 secs

     End of self-consistent calculation

          k = 0.0000 0.0000 0.0000 ( 22119 PWs)   bands (ev):

   -26.1688 -11.0782  -7.1652  -7.1645  -7.0208  -0.4582   0.5397   0.7768

     the Fermi energy is    -6.9929 ev

!    total energy              =     -31.84143660 Ry
     Harris-Foulkes estimate   =     -31.84143660 Ry
     estimated scf accuracy    <          5.3E-09 Ry

     convergence has been achieved in  25 iterations

     Forces acting on atoms (Ry/au):

     atom    1 type  2   force =     0.20352640    0.31067438   -0.48835082
     atom    2 type  1   force =    -0.20388219   -0.31114875    0.48836138
     atom    3 type  1   force =     0.00035579    0.00047436   -0.00001056

     Total force =     0.867932     Total SCF correction =     0.000019

     Molecular Dynamics Calculation

     Starting temperature  =  1000.00 K

     temperature is controlled by Andersen thermostat
     Collision frequency = 1.0000/timestep
     mass H                =     1.01
     mass O                =    16.00
     Time step             =   100.00 a.u.,  4.8378 femto-seconds

     Entering Dynamics:    iteration =     1
                           time      =   0.0048 pico-seconds


     Andersen thermostat:    3 collisions

ATOMIC_POSITIONS (bohr)
O        7.743111340   8.646153266   1.457857588
H        6.045673800   6.222952635   5.477166191
H       17.456608609   9.373786255  10.253693128


     kinetic energy (Ekin) =     0.01337019 Ry
     temperature           =   703.66124461 K 
     Ekin + Etot (const)   =   -31.82806641 Ry

     Linear momentum :    0.0000000000   -0.0000000000    0.0000000000

     Writing output data file pwscf.save
     Check: negative starting charge=   -0.351828
     NEW-OLD atomic charge density approx. for the potential
     Check: negative starting charge=   -0.343605

     negative rho (up, down):  4.339E-01 0.000E+00

     total cpu time spent up to now is        2.0 secs

     per-process dynamical memory:    20.4 Mb

     Self-consistent Calculation

     iteration #  1     ecut=    30.00 Ry     beta=0.70
     Davidson diagonalization with overlap
     c_bands:  1 eigenvalues not converged
     ethr =  1.00E-06,  avg # of iterations = 20.0

     negative rho (up, down):  1.025E-01 0.000E+00

     total cpu time spent up to now is        2.3 secs

     total energy              =     -28.49381278 Ry
     Harris-Foulkes estimate   =     -32.44695781 Ry
     estimated scf accuracy    <       3.04887337 Ry

     iteration #  2     ecut=    30.00 Ry     beta=0.70
     Davidson diagonalization with overlap
     ethr =  1.00E-02,  avg # of iterations =  4.0

     negative rho (up, down):  7.682E-02 0.000E+00

     total cpu time spent up to now is        2.3 secs

     total energy              =     -32.07639120 Ry
     Harris-Foulkes estimate   =     -36.00889712 Ry
     estimated scf accuracy    <      10.27055590 Ry

     iteration #  3     ecut=    30.00 Ry     beta=0.70
     Davidson diagonalization with overlap
     ethr =  1.00E-02,  avg # of iterations =  2.0

     negative rho (up, down):  6.713E-02 0.000E+00

     total cpu time spent up to now is        2.4 secs

     total energy              =     -31.80171661 Ry
     Harris-Foulkes estimate   =     -32.36488375 Ry
     estimated scf accuracy    <       3.88537661 Ry

     iteration #  4     ecut=    30.00 Ry     beta=0.70
     Davidson diagonalization with overlap
     ethr =  1.00E-02,  avg # of iterations =  1.0

     negative rho (up, down):  5.264E-02 0.000E+00

     total cpu time spent up to now is        2.5 secs

     total energy              =     -31.47020441 Ry
     Harris-Foulkes estimate   =     -31.81944272 Ry
     estimated scf accuracy    <       2.57786148 Ry

     iteration #  5     ecut=    30.00 Ry     beta=0.70
     Davidson diagonalization with overlap
     ethr =  1.00E-02,  avg # of iterations =  3.0

     negative rho (up, down):  4.624E-02 0.000E+00

     total cpu time spent up to now is        2.5 secs

     total energy              =     -31.58973454 Ry
     Harris-Foulkes estimate   =     -31.50523006 Ry
     estimated scf accuracy    <       0.35923639 Ry

     iteration #  6     ecut=    30.00 Ry     beta=0.70
     Davidson diagonalization with overlap
     ethr =  4.49E-03,  avg # of iterations =  2.0

     negative rho (up, down):  1.357E-02 0.000E+00

     total cpu time spent up to now is        2.6 secs

     total energy              =     -31.19570499 Ry
     Harris-Foulkes estimate   =     -31.72790536 Ry
     estimated scf accuracy    <       2.60754132 Ry

     iteration #  7     ecut=    30.00 Ry     beta=0.70
     Davidson diagonalization with overlap
     ethr =  4.49E-03,  avg # of iterations =  2.0

     negative rho (up, down):  1.262E-02 0.000E+00

     total cpu time spent up to now is        2.6 secs

     total energy              =     -31.91803229 Ry
     Harris-Foulkes estimate   =     -31.94584390 Ry
     estimated scf accuracy    <       2.09328810 Ry

     iteration #  8     ecut=    30.00 Ry     beta=0.70
     Davidson diagonalization with overlap
     ethr =  4.49E-03,  avg # of iterations =  1.0

     negative rho (up, down):  1.236E-02 0.000E+00

     total cpu time spent up to now is        2.7 secs

     total energy              =     -31.93186352 Ry
     Harris-Foulkes estimate   =     -31.93659790 Ry
     estimated scf accuracy    <       3.04730432 Ry

     iteration #  9     ecut=    30.00 Ry     beta=0.70
     Davidson diagonalization with overlap
     ethr =  4.49E-03,  avg # of iterations =  1.0

     negative rho (up, down):  1.258E-02 0.000E+00

     total cpu time spent up to now is        2.7 secs

     total energy              =     -31.82556754 Ry
     Harris-Foulkes estimate   =     -31.93199419 Ry
     estimated scf accuracy    <       3.04537106 Ry

     iteration # 10     ecut=    30.00 Ry     beta=0.70
     Davidson diagonalization with overlap
     ethr =  4.49E-03,  avg # of iterations =  1.0

     negative rho (up, down):  4.058E-03 0.000E+00

     total cpu time spent up to now is        2.8 secs

     total energy              =     -31.02449748 Ry
     Harris-Foulkes estimate   =     -31.82824703 Ry
     estimated scf accuracy    <       2.47542127 Ry

     iteration # 11     ecut=    30.00 Ry     beta=0.70
     Davidson diagonalization with overlap
     ethr =  4.49E-03,  avg # of iterations =  2.0

     negative rho (up, down):  1.725E-03 0.000E+00

     total cpu time spent up to now is        2.8 secs

     total energy              =     -31.72011568 Ry
     Harris-Foulkes estimate   =     -32.09069657 Ry
     estimated scf accuracy    <       2.87416214 Ry

     iteration # 12     ecut=    30.00 Ry     beta=0.70
     Davidson diagonalization with overlap
     ethr =  4.49E-03,  avg # of iterations =  1.0

     negative rho (up, down):  8.195E-04 0.000E+00

     total cpu time spent up to now is        2.9 secs

     total energy              =     -31.55145182 Ry
     Harris-Foulkes estimate   =     -31.72852316 Ry
     estimated scf accuracy    <       1.97310132 Ry

     iteration # 13     ecut=    30.00 Ry     beta=0.70
     Davidson diagonalization with overlap
     ethr =  4.49E-03,  avg # of iterations =  1.0

     negative rho (up, down):  3.416E-04 0.000E+00

     total cpu time spent up to now is        2.9 secs

     total energy              =     -31.51063089 Ry
     Harris-Foulkes estimate   =     -31.56344438 Ry
     estimated scf accuracy    <       0.50286747 Ry

     iteration # 14     ecut=    30.00 Ry     beta=0.70
     Davidson diagonalization with overlap
     ethr =  4.49E-03,  avg # of iterations =  1.0

     negative rho (up, down):  5.298E-06 0.000E+00

     total cpu time spent up to now is        3.0 secs

     total energy              =     -31.69421433 Ry
     Harris-Foulkes estimate   =     -31.63290991 Ry
     estimated scf accuracy    <       1.19348431 Ry

     iteration # 15     ecut=    30.00 Ry     beta=0.70
     Davidson diagonalization with overlap
     ethr =  4.49E-03,  avg # of iterations =  1.0

     negative rho (up, down):  1.498E-08 0.000E+00

     total cpu time spent up to now is        3.0 secs

     total energy              =     -31.70183174 Ry
     Harris-Foulkes estimate   =     -31.70189476 Ry
     estimated scf accuracy    <       1.73817298 Ry

     iteration # 16     ecut=    30.00 Ry     beta=0.70
     Davidson diagonalization with overlap
     ethr =  4.49E-03,  avg # of iterations =  1.0

     negative rho (up, down):  2.238E-06 0.000E+00

     total cpu time spent up to now is        3.1 secs

     total energy              =     -31.68799462 Ry
     Harris-Foulkes estimate   =     -31.70187529 Ry
     estimated scf accuracy    <       1.75628253 Ry

     iteration # 17     ecut=    30.00 Ry     beta=0.70
     Davidson diagonalization with overlap
     ethr =  4.49E-03,  avg # of iterations =  1.0

     negative rho (up, down):  4.882E-05 0.000E+00

     total cpu time spent up to now is        3.1 secs

     total energy              =     -31.75034625 Ry
     Harris-Foulkes estimate   =     -31.68804420 Ry
     estimated scf accuracy    <       1.69017932 Ry

     iteration # 18     ecut=    30.00 Ry     beta=0.70
     Davidson diagonalization with overlap
     ethr =  4.49E-03,  avg # of iterations =  1.0

     negative rho (up, down):  8.428E-04 0.000E+00

     total cpu time spent up to now is        3.2 secs

     total energy              =     -31.51591197 Ry
     Harris-Foulkes estimate   =     -31.75160962 Ry
     estimated scf accuracy    <       2.03515218 Ry

     iteration # 19     ecut=    30.00 Ry     beta=0.70
     Davidson diagonalization with overlap
     ethr =  4.49E-03,  avg # of iterations =  1.0

     negative rho (up, down):  2.428E-04 0.000E+00

     total cpu time spent up to now is        3.2 secs

     total energy              =     -31.55773863 Ry
     Harris-Foulkes estimate   =     -31.55621615 Ry
     estimated scf accuracy    <       0.20362032 Ry

     iteration # 20     ecut=    30.00 Ry     beta=0.70
     Davidson diagonalization with overlap
     ethr =  2.55E-03,  avg # of iterations =  1.0

     negative rho (up, down):  1.058E-04 0.000E+00

     total cpu time spent up to now is        3.3 secs

     total energy              =     -31.55692718 Ry
     Harris-Foulkes estimate   =     -31.55801843 Ry
     estimated scf accuracy    <       0.29987729 Ry

     iteration # 21     ecut=    30.00 Ry     beta=0.70
     Davidson diagonalization with overlap
     ethr =  2.55E-03,  avg # of iterations =  1.0

     negative rho (up, down):  1.297E-05 0.000E+00

     total cpu time spent up to now is        3.3 secs

     total energy              =     -31.52054258 Ry
     Harris-Foulkes estimate   =     -31.55746490 Ry
     estimated scf accuracy    <       0.20338605 Ry

     iteration # 22     ecut=    30.00 Ry     beta=0.70
     Davidson diagonalization with overlap
     ethr =  2.54E-03,  avg # of iterations =  1.0

     negative rho (up, down):  2.520E-06 0.000E+00

     total cpu time spent up to now is        3.4 secs

     total energy              =     -31.71316816 Ry
     Harris-Foulkes estimate   =     -31.66532631 Ry
     estimated scf accuracy    <       1.37063858 Ry

     iteration # 23     ecut=    30.00 Ry     beta=0.70
     Davidson diagonalization with overlap
     ethr =  2.54E-03,  avg # of iterations =  1.0

     negative rho (up, down):  5.382E-05 0.000E+00

     total cpu time spent up to now is        3.4 secs

     total energy              =     -31.65115708 Ry
     Harris-Foulkes estimate   =     -31.71347033 Ry
     estimated scf accuracy    <       1.47199441 Ry

     iteration # 24     ecut=    30.00 Ry     beta=0.70
     Davidson diagonalization with overlap
     ethr =  2.54E-03,  avg # of iterations =  1.0

     negative rho (up, down):  8.230E-06 0.000E+00

     total cpu time spent up to now is        3.4 secs

     total energy              =     -31.64619573 Ry
     Harris-Foulkes estimate   =     -31.65145454 Ry
     estimated scf accuracy    <       1.35251354 Ry

     iteration # 25     ecut=    30.00 Ry     beta=0.70
     Davidson diagonalization with overlap
     ethr =  2.54E-03,  avg # of iterations =  1.0

     negative rho (up, down):  9.934E-07 0.000E+00

     total cpu time spent up to now is        3.5 secs

     total energy              =     -31.62719835 Ry
     Harris-Foulkes estimate   =     -31.64620695 Ry
     estimated scf accuracy    <       1.34266452 Ry

     iteration # 26     ecut=    30.00 Ry     beta=0.70
     Davidson diagonalization with overlap
     ethr =  2.54E-03,  avg # of iterations =  1.0

     negative rho (up, down):  1.302E-03 0.000E+00

     total cpu time spent up to now is        3.5 secs

     total energy              =     -31.88795441 Ry
     Harris-Foulkes estimate   =     -31.62716366 Ry
     estimated scf accuracy    <       1.32550679 Ry

     iteration # 27     ecut=    30.00 Ry     beta=0.70
     Davidson diagonalization with overlap
     ethr =  2.54E-03,  avg # of iterations =  1.0

     negative rho (up, down):  1.553E-02 0.000E+00

     total cpu time spent up to now is        3.8 secs

     total energy              =     -32.03868541 Ry
     Harris-Foulkes estimate   =     -31.89449430 Ry
     estimated scf accuracy    <       2.23944199 Ry

     iteration # 28     ecut=    30.00 Ry     beta=0.70
     Davidson diagonalization with overlap
     ethr =  2.54E-03,  avg # of iterations =  1.0

     negative rho (up, down):  2.864E-03 0.000E+00

     total cpu time spent up to now is        3.8 secs

     total energy              =     -31.86049870 Ry
     Harris-Foulkes estimate   =     -32.04138880 Ry
     estimated scf accuracy    <       2.68629656 Ry

     iteration # 29     ecut=    30.00 Ry     beta=0.70
     Davidson diagonalization with overlap
     ethr =  2.54E-03,  avg # of iterations =  1.0

     negative rho (up, down):  1.355E-05 0.000E+00

     total cpu time spent up to now is        3.9 secs

     total energy              =     -31.67516251 Ry
     Harris-Foulkes estimate   =     -31.86839281 Ry
     estimated scf accuracy    <       1.85252990 Ry

     iteration # 30     ecut=    30.00 Ry     beta=0.70
     Davidson diagonalization with overlap
     ethr =  2.54E-03,  avg # of iterations =  1.0

     negative rho (up, down):  3.891E-02 0.000E+00

     total cpu time spent up to now is        3.9 secs

     total energy              =     -30.86962794 Ry
     Harris-Foulkes estimate   =     -31.68111502 Ry
     estimated scf accuracy    <       1.30438911 Ry

     iteration # 31     ecut=    30.00 Ry     beta=0.70
     Davidson diagonalization with overlap
     ethr =  2.54E-03,  avg # of iterations =  5.0

     negative rho (up, down):  2.899E-04 0.000E+00

     total cpu time spent up to now is        4.0 secs

     total energy              =     -31.86074744 Ry
     Harris-Foulkes estimate   =     -33.28898284 Ry
     estimated scf accuracy    <       4.70491526 Ry

     iteration # 32     ecut=    30.00 Ry     beta=0.70
     Davidson diagonalization with overlap
     ethr =  2.54E-03,  avg # of iterations =  4.0

     negative rho (up, down):  1.566E-06 0.000E+00

     total cpu time spent up to now is        4.1 secs

     total energy              =     -31.77360725 Ry
     Harris-Foulkes estimate   =     -31.90083409 Ry
     estimated scf accuracy    <       1.88582862 Ry

     iteration # 33     ecut=    30.00 Ry     beta=0.70
     Davidson diagonalization with overlap
     ethr =  2.54E-03,  avg # of iterations =  1.0

     negative rho (up, down):  3.434E-06 0.000E+00

     total cpu time spent up to now is        4.1 secs

     total energy              =     -31.56716680 Ry
     Harris-Foulkes estimate   =     -31.78258684 Ry
     estimated scf accuracy    <       1.90291045 Ry

     iteration # 34     ecut=    30.00 Ry     beta=0.70
     Davidson diagonalization with overlap
     ethr =  2.54E-03,  avg # of iterations =  1.0

     negative rho (up, down):  4.978E-06 0.000E+00

     total cpu time spent up to now is        4.2 secs

     total energy              =     -31.46172992 Ry
     Harris-Foulkes estimate   =     -31.58347763 Ry
     estimated scf accuracy    <       1.06470483 Ry

     iteration # 35     ecut=    30.00 Ry     beta=0.70
     Davidson diagonalization with overlap
     ethr =  2.54E-03,  avg # of iterations =  1.0

     negative rho (up, down):  2.784E-04 0.000E+00

     total cpu time spent up to now is        4.2 secs

     total energy              =     -31.72891559 Ry
     Harris-Foulkes estimate   =     -31.64966571 Ry
     estimated scf accuracy    <       1.24112033 Ry

     iteration # 36     ecut=    30.00 Ry     beta=0.70
     Davidson diagonalization with overlap
     ethr =  2.54E-03,  avg # of iterations =  1.0

     negative rho (up, down):  1.818E-05 0.000E+00

     total cpu time spent up to now is        4.3 secs

     total energy              =     -31.67296007 Ry
     Harris-Foulkes estimate   =     -31.73125620 Ry
     estimated scf accuracy    <       1.52061313 Ry

     iteration # 37     ecut=    30.00 Ry     beta=0.70
     Davidson diagonalization with overlap
     ethr =  2.54E-03,  avg # of iterations =  1.0

     negative rho (up, down):  2.459E-04 0.000E+00

     total cpu time spent up to now is        4.3 secs

     total energy              =     -31.68289349 Ry
     Harris-Foulkes estimate   =     -31.67322684 Ry
     estimated scf accuracy    <       1.38680956 Ry

     iteration # 38     ecut=    30.00 Ry     beta=0.70
     Davidson diagonalization with overlap
     ethr =  2.54E-03,  avg # of iterations =  1.0

     negative rho (up, down):  1.142E-06 0.000E+00

     total cpu time spent up to now is        4.4 secs

     total energy              =     -31.51411383 Ry
     Harris-Foulkes estimate   =     -31.68300266 Ry
     estimated scf accuracy    <       1.44353731 Ry

     iteration # 39     ecut=    30.00 Ry     beta=0.70
     Davidson diagonalization with overlap
     ethr =  2.54E-03,  avg # of iterations =  1.0

     negative rho (up, down):  1.153E-07 0.000E+00

     total cpu time spent up to now is        4.4 secs

     total energy              =     -31.59791946 Ry
     Harris-Foulkes estimate   =     -31.56500140 Ry
     estimated scf accuracy    <       0.56141844 Ry

     iteration # 40     ecut=    30.00 Ry     beta=0.70
     Davidson diagonalization with overlap
     ethr =  2.54E-03,  avg # of iterations =  1.0

     negative rho (up, down):  2.474E-08 0.000E+00

     total cpu time spent up to now is        4.5 secs

     total energy              =     -31.51232138 Ry
     Harris-Foulkes estimate   =     -31.60472143 Ry
     estimated scf accuracy    <       1.01119396 Ry

     iteration # 41     ecut=    30.00 Ry     beta=0.70
     Davidson diagonalization with overlap
     ethr =  2.54E-03,  avg # of iterations =  1.0

     negative rho (up, down):  9.709E-08 0.000E+00

     total cpu time spent up to now is        4.5 secs

     total energy              =     -31.43311336 Ry
     Harris-Foulkes estimate   =     -31.57043833 Ry
     estimated scf accuracy    <       1.17957321 Ry

     iteration # 42     ecut=    30.00 Ry     beta=0.70
     Davidson diagonalization with overlap
     ethr =  2.54E-03,  avg # of iterations =  1.0

     negative rho (up, down):  1.984E-05 0.000E+00

     total cpu time spent up to now is        4.6 secs

     total energy              =     -31.43547835 Ry
     Harris-Foulkes estimate   =     -31.64234262 Ry
     estimated scf accuracy    <       1.00462605 Ry

     iteration # 43     ecut=    30.00 Ry     beta=0.70
     Davidson diagonalization with overlap
     ethr =  2.54E-03,  avg # of iterations =  1.0

     negative rho (up, down):  1.609E-06 0.000E+00

     total cpu time spent up to now is        4.6 secs

     total energy              =     -31.63819138 Ry
     Harris-Foulkes estimate   =     -31.66836929 Ry
     estimated scf accuracy    <       1.35505903 Ry

     iteration # 44     ecut=    30.00 Ry     beta=0.70
     Davidson diagonalization with overlap
     ethr =  2.54E-03,  avg # of iterations =  1.0

     total cpu time spent up to now is        4.7 secs

     total energy              =     -31.55985824 Ry
     Harris-Foulkes estimate   =     -31.63844552 Ry
     estimated scf accuracy    <       1.31612778 Ry

     iteration # 45     ecut=    30.00 Ry     beta=0.70
     Davidson diagonalization with overlap
     ethr =  2.54E-03,  avg # of iterations =  1.0

     total cpu time spent up to now is        4.7 secs

     total energy              =     -31.55067769 Ry
     Harris-Foulkes estimate   =     -31.55904021 Ry
     estimated scf accuracy    <       0.44216056 Ry

     iteration # 46     ecut=    30.00 Ry     beta=0.70
     Davidson diagonalization with overlap
     ethr =  2.54E-03,  avg # of iterations =  1.0

     total cpu time spent up to now is        4.7 secs

     total energy              =     -31.55085222 Ry
     Harris-Foulkes estimate   =     -31.55364336 Ry
     estimated scf accuracy    <       0.03068862 Ry

     iteration # 47     ecut=    30.00 Ry     beta=0.70
     Davidson diagonalization with overlap
     ethr =  3.84E-04,  avg # of iterations =  1.0

     total cpu time spent up to now is        4.8 secs

     total energy              =     -31.55590051 Ry
     Harris-Foulkes estimate   =     -31.55469168 Ry
     estimated scf accuracy    <       0.12851637 Ry

     iteration # 48     ecut=    30.00 Ry     beta=0.70
     Davidson diagonalization with overlap
     ethr =  3.84E-04,  avg # of iterations =  1.0

     total cpu time spent up to now is        4.8 secs

     total energy              =     -31.52376706 Ry
     Harris-Foulkes estimate   =     -31.55611060 Ry
     estimated scf accuracy    <       0.22133415 Ry

     iteration # 49     ecut=    30.00 Ry     beta=0.70
     Davidson diagonalization with overlap
     ethr =  3.84E-04,  avg # of iterations =  1.0

     total cpu time spent up to now is        4.9 secs

     total energy              =     -31.56465503 Ry
     Harris-Foulkes estimate   =     -31.60855690 Ry
     estimated scf accuracy    <       1.40487631 Ry

     iteration # 50     ecut=    30.00 Ry     beta=0.70
     Davidson diagonalization with overlap
     ethr =  3.84E-04,  avg # of iterations =  1.0

     total cpu time spent up to now is        4.9 secs

     total energy              =     -31.56223473 Ry
     Harris-Foulkes estimate   =     -31.56381677 Ry
     estimated scf accuracy    <       0.83639636 Ry

     iteration # 51     ecut=    30.00 Ry     beta=0.70
     Davidson diagonalization with overlap
     ethr =  3.84E-04,  avg # of iterations =  1.0

     total cpu time spent up to now is        5.0 secs

     total energy              =     -31.55032565 Ry
     Harris-Foulkes estimate   =     -31.56229505 Ry
     estimated scf accuracy    <       0.73072182 Ry

     iteration # 52     ecut=    30.00 Ry     beta=0.70
     Davidson diagonalization with overlap
     ethr =  3.84E-04,  avg # of iterations =  1.0

     total cpu time spent up to now is        5.0 secs

     total energy              =     -31.55295718 Ry
     Harris-Foulkes estimate   =     -31.55403950 Ry
     estimated scf accuracy    <       0.09109704 Ry

     iteration # 53     ecut=    30.00 Ry     beta=0.70
     Davidson diagonalization with overlap
     ethr =  3.84E-04,  avg # of iterations =  1.0

     total cpu time spent up to now is        5.1 secs

     total energy              =     -31.55269963 Ry
     Harris-Foulkes estimate   =     -31.55322262 Ry
     estimated scf accuracy    <       0.02355493 Ry

     iteration # 54     ecut=    30.00 Ry     beta=0.70
     Davidson diagonalization with overlap
     ethr =  2.94E-04,  avg # of iterations =  1.0

     total cpu time spent up to now is        5.1 secs

     total energy              =     -31.55308965 Ry
     Harris-Foulkes estimate   =     -31.55293869 Ry
     estimated scf accuracy    <       0.00019650 Ry

     iteration # 55     ecut=    30.00 Ry     beta=0.70
     Davidson diagonalization with overlap
     ethr =  2.46E-06,  avg # of iterations = 13.0

     total cpu time spent up to now is        5.2 secs

     total energy              =     -31.55772512 Ry
     Harris-Foulkes estimate   =     -31.55466228 Ry
     estimated scf accuracy    <       0.14373957 Ry

     iteration # 56     ecut=    30.00 Ry     beta=0.70
     Davidson diagonalization with overlap
     ethr =  2.46E-06,  avg # of iterations =  1.0

     total cpu time spent up to now is        5.2 secs

     total energy              =     -31.57061910 Ry
     Harris-Foulkes estimate   =     -31.55902826 Ry
     estimated scf accuracy    <       0.49318865 Ry

     iteration # 57     ecut=    30.00 Ry     beta=0.70
     Davidson diagonalization with overlap
     ethr =  2.46E-06,  avg # of iterations =  3.0

     total cpu time spent up to now is        5.3 secs

     total energy              =     -31.55897615 Ry
     Harris-Foulkes estimate   =     -31.57495162 Ry
     estimated scf accuracy    <       1.43695769 Ry

     iteration # 58     ecut=    30.00 Ry     beta=0.70
     Davidson diagonalization with overlap
     ethr =  2.46E-06,  avg # of iterations =  3.0

     total cpu time spent up to now is        5.4 secs

     total energy              =     -31.54469905 Ry
     Harris-Foulkes estimate   =     -31.56120510 Ry
     estimated scf accuracy    <       0.65705138 Ry

     iteration # 59     ecut=    30.00 Ry     beta=0.70
     Davidson diagonalization with overlap
     ethr =  2.46E-06,  avg # of iterations =  3.0

     total cpu time spent up to now is        5.4 secs

     total energy              =     -31.55290100 Ry
     Harris-Foulkes estimate   =     -31.55294480 Ry
     estimated scf accuracy    <       0.00035357 Ry

     iteration # 60     ecut=    30.00 Ry     beta=0.70
     Davidson diagonalization with overlap
     ethr =  2.46E-06,  avg # of iterations =  1.0

     total cpu time spent up to now is        5.5 secs

     total energy              =     -31.55328547 Ry
     Harris-Foulkes estimate   =     -31.55298581 Ry
     estimated scf accuracy    <       0.00376933 Ry

     iteration # 61     ecut=    30.00 Ry     beta=0.70
     Davidson diagonalization with overlap
     ethr =  2.46E-06,  avg # of iterations =  1.0

     total cpu time spent up to now is        5.5 secs

     total energy              =     -31.55178882 Ry
     Harris-Foulkes estimate   =     -31.55372205 Ry
     estimated scf accuracy    <       0.06461367 Ry

     iteration # 62     ecut=    30.00 Ry     beta=0.70
     Davidson diagonalization with overlap
     ethr =  2.46E-06,  avg # of iterations =  1.0

     total cpu time spent up to now is        5.6 secs

     total energy              =     -31.55278157 Ry
     Harris-Foulkes estimate   =     -31.55297872 Ry
     estimated scf accuracy    <       0.00337338 Ry

     iteration # 63     ecut=    30.00 Ry     beta=0.70
     Davidson diagonalization with overlap
     ethr =  2.46E-06,  avg # of iterations =  1.0

     total cpu time spent up to now is        5.6 secs

     total energy              =     -31.55295498 Ry
     Harris-Foulkes estimate   =     -31.55300838 Ry
     estimated scf accuracy    <       0.00602767 Ry

     iteration # 64     ecut=    30.00 Ry     beta=0.70
     Davidson diagonalization with overlap
     ethr =  2.46E-06,  avg # of iterations =  1.0

     total cpu time spent up to now is        5.7 secs

     total energy              =     -31.55289598 Ry
     Harris-Foulkes estimate   =     -31.55296446 Ry
     estimated scf accuracy    <       0.00247810 Ry

     iteration # 65     ecut=    30.00 Ry     beta=0.70
     Davidson diagonalization with overlap
     ethr =  2.46E-06,  avg # of iterations =  1.0

     total cpu time spent up to now is        5.7 secs

     total energy              =     -31.55293360 Ry
     Harris-Foulkes estimate   =     -31.55293449 Ry
     estimated scf accuracy    <       0.00003774 Ry

     iteration # 66     ecut=    30.00 Ry     beta=0.70
     Davidson diagonalization with overlap
     ethr =  4.72E-07,  avg # of iterations =  1.0

     total cpu time spent up to now is        5.8 secs

     total energy              =     -31.55293385 Ry
     Harris-Foulkes estimate   =     -31.55293398 Ry
     estimated scf accuracy    <       0.00000033 Ry

     iteration # 67     ecut=    30.00 Ry     beta=0.70
     Davidson diagonalization with overlap
     ethr =  4.13E-09,  avg # of iterations =  1.0

     total cpu time spent up to now is        5.8 secs

     total energy              =     -31.55293380 Ry
     Harris-Foulkes estimate   =     -31.55293385 Ry
     estimated scf accuracy    <       0.00000002 Ry

     iteration # 68     ecut=    30.00 Ry     beta=0.70
     Davidson diagonalization with overlap
     ethr =  3.06E-10,  avg # of iterations =  1.0

     total cpu time spent up to now is        5.8 secs

     End of self-consistent calculation

          k = 0.0000 0.0000 0.0000 ( 22119 PWs)   bands (ev):

   -23.6350  -7.6535  -6.9721  -6.9719  -6.8453  -6.4701  -0.1612   0.6473

     the Fermi energy is    -6.8124 ev

!    total energy              =     -31.55293377 Ry
     Harris-Foulkes estimate   =     -31.55293380 Ry
     estimated scf accuracy    <          1.0E-10 Ry

     convergence has been achieved in  68 iterations

     Forces acting on atoms (Ry/au):

     atom    1 type  2   force =    -0.02019216   -0.02644967    0.04719933
     atom    2 type  1   force =     0.01980056    0.02687600   -0.04669737
     atom    3 type  1   force =     0.00039160   -0.00042633   -0.00050196

     Total force =     0.081429     Total SCF correction =     0.000093

     Entering Dynamics:    iteration =     2
                           time      =   0.0097 pico-seconds


     Andersen thermostat:    3 collisions

ATOMIC_POSITIONS (bohr)
O        7.731774668   8.612337552   1.486126035
H        6.304562742   6.389360899   5.114024388
H       17.377310500   9.743072475  10.169017953


     kinetic energy (Ekin) =     0.01120786 Ry
     temperature           =   589.85953725 K 
     Ekin + Etot (const)   =   -31.54172591 Ry
     Message from routine dynamics:
     Total linear momentum <> 0

     Linear momentum :    0.0316409203    0.3676783473    0.1781879288

     Writing output data file pwscf.save

     first order wave-functions extrapolation
     Check: negative starting charge=   -0.343605
     first order charge density extrapolation
     Check: negative starting charge=   -0.343966

     negative rho (up, down):  4.964E-01 0.000E+00

     total cpu time spent up to now is        6.3 secs

     per-process dynamical memory:    20.4 Mb

     Self-consistent Calculation

     iteration #  1     ecut=    30.00 Ry     beta=0.70
     Davidson diagonalization with overlap
     ethr =  1.00E-06,  avg # of iterations = 15.0

     negative rho (up, down):  1.162E-01 0.000E+00

     total cpu time spent up to now is        6.5 secs

     total energy              =      61.87939524 Ry
     Harris-Foulkes estimate   =    -109.09729075 Ry
     estimated scf accuracy    <      28.70965151 Ry

     iteration #  2     ecut=    30.00 Ry     beta=0.70
     Davidson diagonalization with overlap
     ethr =  1.00E-02,  avg # of iterations =  6.0

     negative rho (up, down):  7.637E-02 0.000E+00

     total cpu time spent up to now is        6.6 secs

     total energy              =     -35.90306471 Ry
     Harris-Foulkes estimate   =     -51.47804022 Ry
     estimated scf accuracy    <      33.20055014 Ry

     iteration #  3     ecut=    30.00 Ry     beta=0.70
     Davidson diagonalization with overlap
     ethr =  1.00E-02,  avg # of iterations =  3.0

     negative rho (up, down):  4.509E-02 0.000E+00

     total cpu time spent up to now is        6.6 secs

     total energy              =     -31.68061695 Ry
     Harris-Foulkes estimate   =     -36.67047078 Ry
     estimated scf accuracy    <      10.81412435 Ry

     iteration #  4     ecut=    30.00 Ry     beta=0.70
     Davidson diagonalization with overlap
     ethr =  1.00E-02,  avg # of iterations =  5.0

     negative rho (up, down):  3.913E-02 0.000E+00

     total cpu time spent up to now is        6.7 secs

     total energy              =     -32.16099582 Ry
     Harris-Foulkes estimate   =     -32.65568325 Ry
     estimated scf accuracy    <       3.26034310 Ry

     iteration #  5     ecut=    30.00 Ry     beta=0.70
     Davidson diagonalization with overlap
     ethr =  1.00E-02,  avg # of iterations =  2.0

     negative rho (up, down):  1.878E-02 0.000E+00

     total cpu time spent up to now is        6.7 secs

     total energy              =     -31.49961561 Ry
     Harris-Foulkes estimate   =     -32.72737856 Ry
     estimated scf accuracy    <       4.29552213 Ry

     iteration #  6     ecut=    30.00 Ry     beta=0.70
     Davidson diagonalization with overlap
     ethr =  1.00E-02,  avg # of iterations =  2.0

     negative rho (up, down):  2.175E-02 0.000E+00

     total cpu time spent up to now is        6.8 secs

     total energy              =     -31.59607471 Ry
     Harris-Foulkes estimate   =     -31.77355173 Ry
     estimated scf accuracy    <       2.55085986 Ry

     iteration #  7     ecut=    30.00 Ry     beta=0.70
     Davidson diagonalization with overlap
     ethr =  1.00E-02,  avg # of iterations =  1.0

     negative rho (up, down):  2.221E-02 0.000E+00

     total cpu time spent up to now is        6.8 secs

     total energy              =     -31.89105353 Ry
     Harris-Foulkes estimate   =     -31.86696202 Ry
     estimated scf accuracy    <       1.99240027 Ry

     iteration #  8     ecut=    30.00 Ry     beta=0.70
     Davidson diagonalization with overlap
     ethr =  1.00E-02,  avg # of iterations =  1.0

     negative rho (up, down):  1.109E-02 0.000E+00

     total cpu time spent up to now is        6.9 secs

     total energy              =     -31.43833191 Ry
     Harris-Foulkes estimate   =     -31.89140949 Ry
     estimated scf accuracy    <       2.05931698 Ry

     iteration #  9     ecut=    30.00 Ry     beta=0.70
     Davidson diagonalization with overlap
     ethr =  1.00E-02,  avg # of iterations =  2.0

     negative rho (up, down):  7.178E-03 0.000E+00

     total cpu time spent up to now is        6.9 secs

     total energy              =     -31.90506033 Ry
     Harris-Foulkes estimate   =     -31.82062250 Ry
     estimated scf accuracy    <       1.53408133 Ry

     iteration # 10     ecut=    30.00 Ry     beta=0.70
     Davidson diagonalization with overlap
     ethr =  1.00E-02,  avg # of iterations =  1.0

     negative rho (up, down):  1.681E-03 0.000E+00

     total cpu time spent up to now is        7.0 secs

     total energy              =     -32.40275276 Ry
     Harris-Foulkes estimate   =     -31.94869361 Ry
     estimated scf accuracy    <       2.36042571 Ry

     iteration # 11     ecut=    30.00 Ry     beta=0.70
     Davidson diagonalization with overlap
     ethr =  1.00E-02,  avg # of iterations =  1.0

     negative rho (up, down):  4.562E-04 0.000E+00

     total cpu time spent up to now is        7.0 secs

     total energy              =     -32.64671813 Ry
     Harris-Foulkes estimate   =     -32.49010650 Ry
     estimated scf accuracy    <       4.92250563 Ry

     iteration # 12     ecut=    30.00 Ry     beta=0.70
     Davidson diagonalization with overlap
     ethr =  1.00E-02,  avg # of iterations =  1.0

     negative rho (up, down):  1.138E-03 0.000E+00

     total cpu time spent up to now is        7.1 secs

     total energy              =     -32.50935845 Ry
     Harris-Foulkes estimate   =     -32.65156503 Ry
     estimated scf accuracy    <       5.25344562 Ry

     iteration # 13     ecut=    30.00 Ry     beta=0.70
     Davidson diagonalization with overlap
     ethr =  1.00E-02,  avg # of iterations =  1.0

     negative rho (up, down):  1.511E-03 0.000E+00

     total cpu time spent up to now is        7.1 secs

     total energy              =     -32.41562418 Ry
     Harris-Foulkes estimate   =     -32.51170511 Ry
     estimated scf accuracy    <       5.07370345 Ry

     iteration # 14     ecut=    30.00 Ry     beta=0.70
     Davidson diagonalization with overlap
     ethr =  1.00E-02,  avg # of iterations =  1.0

     negative rho (up, down):  2.056E-01 0.000E+00

     total cpu time spent up to now is        7.2 secs

     total energy              =     -33.14472130 Ry
     Harris-Foulkes estimate   =     -32.41633297 Ry
     estimated scf accuracy    <       4.79974515 Ry

     iteration # 15     ecut=    30.00 Ry     beta=0.70
     Davidson diagonalization with overlap
     ethr =  1.00E-02,  avg # of iterations =  3.0

     negative rho (up, down):  1.815E-01 0.000E+00

     total cpu time spent up to now is        7.2 secs

     total energy              =     -31.50858258 Ry
     Harris-Foulkes estimate   =     -33.67547720 Ry
     estimated scf accuracy    <      13.88295039 Ry

     iteration # 16     ecut=    30.00 Ry     beta=0.70
     Davidson diagonalization with overlap
     ethr =  1.00E-02,  avg # of iterations =  3.0

     negative rho (up, down):  3.760E-01 0.000E+00

     total cpu time spent up to now is        7.3 secs

     total energy              =     -32.40796624 Ry
     Harris-Foulkes estimate   =     -32.22328691 Ry
     estimated scf accuracy    <       2.25478405 Ry

     iteration # 17     ecut=    30.00 Ry     beta=0.70
     Davidson diagonalization with overlap
     ethr =  1.00E-02,  avg # of iterations =  2.0

     negative rho (up, down):  1.451E+00 0.000E+00

     total cpu time spent up to now is        7.3 secs

     total energy              =     -31.09743208 Ry
     Harris-Foulkes estimate   =     -32.83705863 Ry
     estimated scf accuracy    <      10.89619862 Ry

     iteration # 18     ecut=    30.00 Ry     beta=0.70
     Davidson diagonalization with overlap
     ethr =  1.00E-02,  avg # of iterations =  2.0

     negative rho (up, down):  8.461E-01 0.000E+00

     total cpu time spent up to now is        7.4 secs

     total energy              =     -31.32237686 Ry
     Harris-Foulkes estimate   =     -32.04873149 Ry
     estimated scf accuracy    <       1.65016916 Ry

     iteration # 19     ecut=    30.00 Ry     beta=0.70
     Davidson diagonalization with overlap
     ethr =  1.00E-02,  avg # of iterations =  2.0

     negative rho (up, down):  8.255E-01 0.000E+00

     total cpu time spent up to now is        7.5 secs

     total energy              =     -32.47070905 Ry
     Harris-Foulkes estimate   =     -32.59372945 Ry
     estimated scf accuracy    <      11.51882682 Ry

     iteration # 20     ecut=    30.00 Ry     beta=0.70
     Davidson diagonalization with overlap
     ethr =  1.00E-02,  avg # of iterations =  1.0

     negative rho (up, down):  8.329E-01 0.000E+00

     total cpu time spent up to now is        7.5 secs

     total energy              =     -32.55033105 Ry
     Harris-Foulkes estimate   =     -32.47557361 Ry
     estimated scf accuracy    <      10.40375580 Ry

     iteration # 21     ecut=    30.00 Ry     beta=0.70
     Davidson diagonalization with overlap
     ethr =  1.00E-02,  avg # of iterations =  1.0

     negative rho (up, down):  5.335E-01 0.000E+00

     total cpu time spent up to now is        7.6 secs

     total energy              =     -31.31880009 Ry
     Harris-Foulkes estimate   =     -32.55381420 Ry
     estimated scf accuracy    <      11.33821224 Ry

     iteration # 22     ecut=    30.00 Ry     beta=0.70
     Davidson diagonalization with overlap
     ethr =  1.00E-02,  avg # of iterations =  2.0

     negative rho (up, down):  6.100E-01 0.000E+00

     total cpu time spent up to now is        7.6 secs

     total energy              =     -31.67563564 Ry
     Harris-Foulkes estimate   =     -31.79361210 Ry
     estimated scf accuracy    <       1.97780543 Ry

     iteration # 23     ecut=    30.00 Ry     beta=0.70
     Davidson diagonalization with overlap
     ethr =  1.00E-02,  avg # of iterations =  1.0

     negative rho (up, down):  6.440E-01 0.000E+00

     total cpu time spent up to now is        7.7 secs

     total energy              =     -31.69555486 Ry
     Harris-Foulkes estimate   =     -31.70883350 Ry
     estimated scf accuracy    <       1.18193709 Ry

     iteration # 24     ecut=    30.00 Ry     beta=0.70
     Davidson diagonalization with overlap
     ethr =  1.00E-02,  avg # of iterations =  1.0

     negative rho (up, down):  5.604E-01 0.000E+00

     total cpu time spent up to now is        7.7 secs

     total energy              =     -31.71253363 Ry
     Harris-Foulkes estimate   =     -31.69691512 Ry
     estimated scf accuracy    <       1.27226299 Ry

     iteration # 25     ecut=    30.00 Ry     beta=0.70
     Davidson diagonalization with overlap
     ethr =  1.00E-02,  avg # of iterations =  1.0

     negative rho (up, down):  6.204E-01 0.000E+00

     total cpu time spent up to now is        7.8 secs

     total energy              =     -31.60808826 Ry
     Harris-Foulkes estimate   =     -31.71468944 Ry
     estimated scf accuracy    <       1.22439185 Ry

     iteration # 26     ecut=    30.00 Ry     beta=0.70
     Davidson diagonalization with overlap
     ethr =  1.00E-02,  avg # of iterations =  1.0

     negative rho (up, down):  5.618E-01 0.000E+00

     total cpu time spent up to now is        7.8 secs

     total energy              =     -31.62833654 Ry
     Harris-Foulkes estimate   =     -31.65498781 Ry
     estimated scf accuracy    <       0.79488222 Ry

     iteration # 27     ecut=    30.00 Ry     beta=0.70
     Davidson diagonalization with overlap
     ethr =  9.94E-03,  avg # of iterations =  1.0

     negative rho (up, down):  3.601E-01 0.000E+00

     total cpu time spent up to now is        7.9 secs

     total energy              =     -31.59605287 Ry
     Harris-Foulkes estimate   =     -31.63182249 Ry
     estimated scf accuracy    <       0.23332629 Ry

     iteration # 28     ecut=    30.00 Ry     beta=0.70
     Davidson diagonalization with overlap
     ethr =  2.92E-03,  avg # of iterations =  1.0

     negative rho (up, down):  1.934E-01 0.000E+00

     total cpu time spent up to now is        7.9 secs

     total energy              =     -31.60593173 Ry
     Harris-Foulkes estimate   =     -31.60686327 Ry
     estimated scf accuracy    <       0.76237260 Ry

     iteration # 29     ecut=    30.00 Ry     beta=0.70
     Davidson diagonalization with overlap
     ethr =  2.92E-03,  avg # of iterations =  1.0

     negative rho (up, down):  1.193E-01 0.000E+00

     total cpu time spent up to now is        8.0 secs

     total energy              =     -31.58403736 Ry
     Harris-Foulkes estimate   =     -31.60765824 Ry
     estimated scf accuracy    <       0.87445555 Ry

     iteration # 30     ecut=    30.00 Ry     beta=0.70
     Davidson diagonalization with overlap
     ethr =  2.92E-03,  avg # of iterations =  1.0

     negative rho (up, down):  1.623E-02 0.000E+00

     total cpu time spent up to now is        8.0 secs

     total energy              =     -31.58673390 Ry
     Harris-Foulkes estimate   =     -31.59106563 Ry
     estimated scf accuracy    <       0.11614431 Ry

     iteration # 31     ecut=    30.00 Ry     beta=0.70
     Davidson diagonalization with overlap
     ethr =  1.45E-03,  avg # of iterations =  1.0

     negative rho (up, down):  1.348E-02 0.000E+00

     total cpu time spent up to now is        8.1 secs

     total energy              =     -31.59244199 Ry
     Harris-Foulkes estimate   =     -31.59116786 Ry
     estimated scf accuracy    <       0.06367193 Ry

     iteration # 32     ecut=    30.00 Ry     beta=0.70
     Davidson diagonalization with overlap
     ethr =  7.96E-04,  avg # of iterations =  1.0

     negative rho (up, down):  8.267E-03 0.000E+00

     total cpu time spent up to now is        8.1 secs

     total energy              =     -31.57807246 Ry
     Harris-Foulkes estimate   =     -31.59321686 Ry
     estimated scf accuracy    <       0.23791160 Ry

     iteration # 33     ecut=    30.00 Ry     beta=0.70
     Davidson diagonalization with overlap
     ethr =  7.96E-04,  avg # of iterations =  1.0

     negative rho (up, down):  1.079E-04 0.000E+00

     total cpu time spent up to now is        8.2 secs

     total energy              =     -31.58549931 Ry
     Harris-Foulkes estimate   =     -31.59728375 Ry
     estimated scf accuracy    <       0.42666214 Ry

     iteration # 34     ecut=    30.00 Ry     beta=0.70
     Davidson diagonalization with overlap
     ethr =  7.96E-04,  avg # of iterations =  1.0

     negative rho (up, down):  8.645E-05 0.000E+00

     total cpu time spent up to now is        8.2 secs

     total energy              =     -31.59005430 Ry
     Harris-Foulkes estimate   =     -31.59020963 Ry
     estimated scf accuracy    <       0.00517076 Ry

     iteration # 35     ecut=    30.00 Ry     beta=0.70
     Davidson diagonalization with overlap
     ethr =  6.46E-05,  avg # of iterations = 10.0

     negative rho (up, down):  3.651E-06 0.000E+00

     total cpu time spent up to now is        8.3 secs

     total energy              =     -31.59015282 Ry
     Harris-Foulkes estimate   =     -31.59015859 Ry
     estimated scf accuracy    <       0.00030226 Ry

     iteration # 36     ecut=    30.00 Ry     beta=0.70
     Davidson diagonalization with overlap
     ethr =  3.78E-06,  avg # of iterations =  8.0

     negative rho (up, down):  2.352E-08 0.000E+00

     total cpu time spent up to now is        8.4 secs

     total energy              =     -31.59015414 Ry
     Harris-Foulkes estimate   =     -31.59015544 Ry
     estimated scf accuracy    <       0.00002263 Ry

     iteration # 37     ecut=    30.00 Ry     beta=0.70
     Davidson diagonalization with overlap
     ethr =  2.83E-07,  avg # of iterations =  1.0

     negative rho (up, down):  9.646E-08 0.000E+00

     total cpu time spent up to now is        8.4 secs

     total energy              =     -31.59015412 Ry
     Harris-Foulkes estimate   =     -31.59015456 Ry
     estimated scf accuracy    <       0.00000053 Ry

     iteration # 38     ecut=    30.00 Ry     beta=0.70
     Davidson diagonalization with overlap
     ethr =  6.65E-09,  avg # of iterations =  1.0

     total cpu time spent up to now is        8.5 secs

     total energy              =     -31.59015410 Ry
     Harris-Foulkes estimate   =     -31.59015423 Ry
     estimated scf accuracy    <       0.00000417 Ry

     iteration # 39     ecut=    30.00 Ry     beta=0.70
     Davidson diagonalization with overlap
     ethr =  6.65E-09,  avg # of iterations =  1.0

     total cpu time spent up to now is        8.5 secs

     total energy              =     -31.59015412 Ry
     Harris-Foulkes estimate   =     -31.59015414 Ry
     estimated scf accuracy    <       0.00000008 Ry

     iteration # 40     ecut=    30.00 Ry     beta=0.70
     Davidson diagonalization with overlap
     ethr =  1.05E-09,  avg # of iterations =  1.0

     total cpu time spent up to now is        8.5 secs

     End of self-consistent calculation

          k = 0.0000 0.0000 0.0000 ( 22119 PWs)   bands (ev):

   -23.6105  -7.9185  -6.9297  -6.9294  -6.7952  -6.1459  -0.1491   0.6726

     the Fermi energy is    -6.7611 ev

!    total energy              =     -31.59015405 Ry
     Harris-Foulkes estimate   =     -31.59015412 Ry
     estimated scf accuracy    <          7.2E-09 Ry

     convergence has been achieved in  40 iterations

     Forces acting on atoms (Ry/au):

     atom    1 type  2   force =    -0.02918755   -0.04381446    0.07208231
     atom    2 type  1   force =     0.02873465    0.04386635   -0.07171443
     atom    3 type  1   force =     0.00045290   -0.00005189   -0.00036787

     Total force =     0.125939     Total SCF correction =     0.000047

     Entering Dynamics:    iteration =     3
                           time      =   0.0145 pico-seconds


     Andersen thermostat:    3 collisions

ATOMIC_POSITIONS (bohr)
O        7.696478334   8.588700324   1.533436309
H        6.744677737   6.952041446   4.624631673
H       17.496345351   9.554843073   9.908940970


     kinetic energy (Ekin) =     0.01893426 Ry
     temperature           =   996.49323231 K 
     Ekin + Etot (const)   =   -31.57121979 Ry
     Message from routine dynamics:
     Total linear momentum <> 0

     Linear momentum :    0.3679424336   -0.4059240373    0.0655390169

     Writing output data file pwscf.save

     second order wave-functions extrapolation
     Check: negative starting charge=   -0.343966
     second order charge density extrapolation
     Check: negative starting charge=   -0.344899

     negative rho (up, down):  9.520E-02 0.000E+00

     total cpu time spent up to now is        9.0 secs

     per-process dynamical memory:    20.4 Mb

     Self-consistent Calculation

     iteration #  1     ecut=    30.00 Ry     beta=0.70
     Davidson diagonalization with overlap
     c_bands:  1 eigenvalues not converged
     ethr =  1.00E-06,  avg # of iterations = 20.0

     negative rho (up, down):  2.314E-02 0.000E+00

     total cpu time spent up to now is        9.2 secs

     total energy              =     -24.69244289 Ry
     Harris-Foulkes estimate   =     -34.56575762 Ry
     estimated scf accuracy    <       3.43321147 Ry

     iteration #  2     ecut=    30.00 Ry     beta=0.70
     Davidson diagonalization with overlap
     ethr =  1.00E-02,  avg # of iterations =  3.0

     negative rho (up, down):  1.488E-02 0.000E+00

     total cpu time spent up to now is        9.2 secs

     total energy              =     -31.97926901 Ry
     Harris-Foulkes estimate   =     -33.94282389 Ry
     estimated scf accuracy    <       4.71554272 Ry

     iteration #  3     ecut=    30.00 Ry     beta=0.70
     Davidson diagonalization with overlap
     ethr =  1.00E-02,  avg # of iterations =  1.0

     negative rho (up, down):  1.344E-02 0.000E+00

     total cpu time spent up to now is        9.3 secs

     total energy              =     -31.86843381 Ry
     Harris-Foulkes estimate   =     -32.50629765 Ry
     estimated scf accuracy    <       3.44881281 Ry

     iteration #  4     ecut=    30.00 Ry     beta=0.70
     Davidson diagonalization with overlap
     ethr =  1.00E-02,  avg # of iterations =  2.0

     negative rho (up, down):  1.118E-02 0.000E+00

     total cpu time spent up to now is        9.3 secs

     total energy              =     -31.92002823 Ry
     Harris-Foulkes estimate   =     -32.15468650 Ry
     estimated scf accuracy    <       1.77465847 Ry

     iteration #  5     ecut=    30.00 Ry     beta=0.70
     Davidson diagonalization with overlap
     ethr =  1.00E-02,  avg # of iterations =  1.0

     negative rho (up, down):  4.141E-03 0.000E+00

     total cpu time spent up to now is        9.4 secs

     total energy              =     -31.47094804 Ry
     Harris-Foulkes estimate   =     -31.92016530 Ry
     estimated scf accuracy    <       1.27198962 Ry

     iteration #  6     ecut=    30.00 Ry     beta=0.70
     Davidson diagonalization with overlap
     ethr =  1.00E-02,  avg # of iterations =  2.0

     negative rho (up, down):  4.713E-03 0.000E+00

     total cpu time spent up to now is        9.4 secs

     total energy              =     -31.80220892 Ry
     Harris-Foulkes estimate   =     -31.90741590 Ry
     estimated scf accuracy    <       1.53632543 Ry

     iteration #  7     ecut=    30.00 Ry     beta=0.70
     Davidson diagonalization with overlap
     ethr =  1.00E-02,  avg # of iterations =  1.0

     negative rho (up, down):  4.906E-03 0.000E+00

     total cpu time spent up to now is        9.5 secs

     total energy              =     -31.86059878 Ry
     Harris-Foulkes estimate   =     -31.80346773 Ry
     estimated scf accuracy    <       1.44481390 Ry

     iteration #  8     ecut=    30.00 Ry     beta=0.70
     Davidson diagonalization with overlap
     ethr =  1.00E-02,  avg # of iterations =  1.0

     negative rho (up, down):  4.865E-03 0.000E+00

     total cpu time spent up to now is        9.5 secs

     total energy              =     -31.49903480 Ry
     Harris-Foulkes estimate   =     -31.86101853 Ry
     estimated scf accuracy    <       1.57668202 Ry

     iteration #  9     ecut=    30.00 Ry     beta=0.70
     Davidson diagonalization with overlap
     ethr =  1.00E-02,  avg # of iterations =  1.0

     negative rho (up, down):  2.639E-03 0.000E+00

     total cpu time spent up to now is        9.6 secs

     total energy              =     -31.99211212 Ry
     Harris-Foulkes estimate   =     -31.96921572 Ry
     estimated scf accuracy    <       1.49146442 Ry

     iteration # 10     ecut=    30.00 Ry     beta=0.70
     Davidson diagonalization with overlap
     ethr =  1.00E-02,  avg # of iterations =  1.0

     negative rho (up, down):  7.181E-04 0.000E+00

     total cpu time spent up to now is        9.6 secs

     total energy              =     -32.49185690 Ry
     Harris-Foulkes estimate   =     -32.01393541 Ry
     estimated scf accuracy    <       1.83141646 Ry

     iteration # 11     ecut=    30.00 Ry     beta=0.70
     Davidson diagonalization with overlap
     ethr =  1.00E-02,  avg # of iterations =  1.0

     negative rho (up, down):  1.205E-02 0.000E+00

     total cpu time spent up to now is        9.7 secs

     total energy              =     -32.90567065 Ry
     Harris-Foulkes estimate   =     -32.56817985 Ry
     estimated scf accuracy    <       3.76374567 Ry

     iteration # 12     ecut=    30.00 Ry     beta=0.70
     Davidson diagonalization with overlap
     ethr =  1.00E-02,  avg # of iterations =  1.0

     negative rho (up, down):  4.651E-04 0.000E+00

     total cpu time spent up to now is        9.7 secs

     total energy              =     -31.82120390 Ry
     Harris-Foulkes estimate   =     -32.91481352 Ry
     estimated scf accuracy    <       4.59526347 Ry

     iteration # 13     ecut=    30.00 Ry     beta=0.70
     Davidson diagonalization with overlap
     ethr =  1.00E-02,  avg # of iterations =  1.0

     total cpu time spent up to now is        9.8 secs

     total energy              =     -31.72103959 Ry
     Harris-Foulkes estimate   =     -31.94587564 Ry
     estimated scf accuracy    <       1.63247391 Ry

     iteration # 14     ecut=    30.00 Ry     beta=0.70
     Davidson diagonalization with overlap
     ethr =  1.00E-02,  avg # of iterations =  1.0

     total cpu time spent up to now is        9.8 secs

     total energy              =     -31.58828564 Ry
     Harris-Foulkes estimate   =     -31.72601564 Ry
     estimated scf accuracy    <       1.54979280 Ry

     iteration # 15     ecut=    30.00 Ry     beta=0.70
     Davidson diagonalization with overlap
     ethr =  1.00E-02,  avg # of iterations =  1.0

     total cpu time spent up to now is        9.9 secs

     total energy              =     -31.69502698 Ry
     Harris-Foulkes estimate   =     -31.73207666 Ry
     estimated scf accuracy    <       1.05331285 Ry

     iteration # 16     ecut=    30.00 Ry     beta=0.70
     Davidson diagonalization with overlap
     ethr =  1.00E-02,  avg # of iterations =  1.0

     total cpu time spent up to now is        9.9 secs

     total energy              =     -31.55873217 Ry
     Harris-Foulkes estimate   =     -31.69688199 Ry
     estimated scf accuracy    <       0.67358615 Ry

     iteration # 17     ecut=    30.00 Ry     beta=0.70
     Davidson diagonalization with overlap
     ethr =  8.42E-03,  avg # of iterations =  1.0

     total cpu time spent up to now is        9.9 secs

     total energy              =     -31.73328679 Ry
     Harris-Foulkes estimate   =     -31.85697269 Ry
     estimated scf accuracy    <       1.47975686 Ry

     iteration # 18     ecut=    30.00 Ry     beta=0.70
     Davidson diagonalization with overlap
     ethr =  8.42E-03,  avg # of iterations =  1.0

     negative rho (up, down):  6.832E-05 0.000E+00

     total cpu time spent up to now is       10.0 secs

     total energy              =     -31.80117844 Ry
     Harris-Foulkes estimate   =     -31.73438266 Ry
     estimated scf accuracy    <       1.42412517 Ry

     iteration # 19     ecut=    30.00 Ry     beta=0.70
     Davidson diagonalization with overlap
     ethr =  8.42E-03,  avg # of iterations =  1.0

     total cpu time spent up to now is       10.0 secs

     total energy              =     -31.72888006 Ry
     Harris-Foulkes estimate   =     -31.79793265 Ry
     estimated scf accuracy    <       1.37129603 Ry

     iteration # 20     ecut=    30.00 Ry     beta=0.70
     Davidson diagonalization with overlap
     ethr =  8.42E-03,  avg # of iterations =  1.0

     total cpu time spent up to now is       10.1 secs

     total energy              =     -31.75536179 Ry
     Harris-Foulkes estimate   =     -31.72808261 Ry
     estimated scf accuracy    <       1.53384226 Ry

     iteration # 21     ecut=    30.00 Ry     beta=0.70
     Davidson diagonalization with overlap
     ethr =  8.42E-03,  avg # of iterations =  1.0

     negative rho (up, down):  9.670E-07 0.000E+00

     total cpu time spent up to now is       10.1 secs

     total energy              =     -31.79026172 Ry
     Harris-Foulkes estimate   =     -31.75383958 Ry
     estimated scf accuracy    <       1.30316285 Ry

     iteration # 22     ecut=    30.00 Ry     beta=0.70
     Davidson diagonalization with overlap
     ethr =  8.42E-03,  avg # of iterations =  1.0

     negative rho (up, down):  7.557E-07 0.000E+00

     total cpu time spent up to now is       10.2 secs

     total energy              =     -31.79457975 Ry
     Harris-Foulkes estimate   =     -31.79014380 Ry
     estimated scf accuracy    <       1.35170471 Ry

     iteration # 23     ecut=    30.00 Ry     beta=0.70
     Davidson diagonalization with overlap
     ethr =  8.42E-03,  avg # of iterations =  1.0

     negative rho (up, down):  1.659E-06 0.000E+00

     total cpu time spent up to now is       10.2 secs

     total energy              =     -31.80449791 Ry
     Harris-Foulkes estimate   =     -31.79459487 Ry
     estimated scf accuracy    <       1.35597030 Ry

     iteration # 24     ecut=    30.00 Ry     beta=0.70
     Davidson diagonalization with overlap
     ethr =  8.42E-03,  avg # of iterations =  1.0

     negative rho (up, down):  2.518E-06 0.000E+00

     total cpu time spent up to now is       10.3 secs

     total energy              =     -31.81437634 Ry
     Harris-Foulkes estimate   =     -31.80450960 Ry
     estimated scf accuracy    <       1.37461461 Ry

     iteration # 25     ecut=    30.00 Ry     beta=0.70
     Davidson diagonalization with overlap
     ethr =  8.42E-03,  avg # of iterations =  1.0

     negative rho (up, down):  1.498E-04 0.000E+00

     total cpu time spent up to now is       10.3 secs

     total energy              =     -31.40047098 Ry
     Harris-Foulkes estimate   =     -31.81438872 Ry
     estimated scf accuracy    <       1.39438274 Ry

     iteration # 26     ecut=    30.00 Ry     beta=0.70
     Davidson diagonalization with overlap
     ethr =  8.42E-03,  avg # of iterations =  1.0

     negative rho (up, down):  2.114E-05 0.000E+00

     total cpu time spent up to now is       10.4 secs

     total energy              =     -31.80510186 Ry
     Harris-Foulkes estimate   =     -31.96013090 Ry
     estimated scf accuracy    <       1.39401499 Ry

     iteration # 27     ecut=    30.00 Ry     beta=0.70
     Davidson diagonalization with overlap
     ethr =  8.42E-03,  avg # of iterations =  1.0

     total cpu time spent up to now is       10.4 secs

     total energy              =     -31.66589269 Ry
     Harris-Foulkes estimate   =     -31.80662846 Ry
     estimated scf accuracy    <       1.13712791 Ry

     iteration # 28     ecut=    30.00 Ry     beta=0.70
     Davidson diagonalization with overlap
     ethr =  8.42E-03,  avg # of iterations =  1.0

     total cpu time spent up to now is       10.5 secs

     total energy              =     -31.68278293 Ry
     Harris-Foulkes estimate   =     -31.68447207 Ry
     estimated scf accuracy    <       0.00496914 Ry

     iteration # 29     ecut=    30.00 Ry     beta=0.70
     Davidson diagonalization with overlap
     ethr =  6.21E-05,  avg # of iterations =  1.0

     total cpu time spent up to now is       10.5 secs

     total energy              =     -31.64986579 Ry
     Harris-Foulkes estimate   =     -31.69671018 Ry
     estimated scf accuracy    <       0.63363697 Ry

     iteration # 30     ecut=    30.00 Ry     beta=0.70
     Davidson diagonalization with overlap
     ethr =  6.21E-05,  avg # of iterations =  5.0

     total cpu time spent up to now is       10.6 secs

     total energy              =     -31.63956737 Ry
     Harris-Foulkes estimate   =     -31.70579532 Ry
     estimated scf accuracy    <       1.37824408 Ry

     iteration # 31     ecut=    30.00 Ry     beta=0.70
     Davidson diagonalization with overlap
     ethr =  6.21E-05,  avg # of iterations =  2.0

     total cpu time spent up to now is       10.6 secs

     total energy              =     -31.68651128 Ry
     Harris-Foulkes estimate   =     -31.69438049 Ry
     estimated scf accuracy    <       0.55025501 Ry

     iteration # 32     ecut=    30.00 Ry     beta=0.70
     Davidson diagonalization with overlap
     ethr =  6.21E-05,  avg # of iterations =  1.0

     total cpu time spent up to now is       10.7 secs

     total energy              =     -31.68704897 Ry
     Harris-Foulkes estimate   =     -31.68779074 Ry
     estimated scf accuracy    <       0.22755486 Ry

     iteration # 33     ecut=    30.00 Ry     beta=0.70
     Davidson diagonalization with overlap
     ethr =  6.21E-05,  avg # of iterations =  1.0

     total cpu time spent up to now is       10.7 secs

     total energy              =     -31.68390193 Ry
     Harris-Foulkes estimate   =     -31.68708526 Ry
     estimated scf accuracy    <       0.18426010 Ry

     iteration # 34     ecut=    30.00 Ry     beta=0.70
     Davidson diagonalization with overlap
     ethr =  6.21E-05,  avg # of iterations =  1.0

     total cpu time spent up to now is       10.8 secs

     total energy              =     -31.68554596 Ry
     Harris-Foulkes estimate   =     -31.68481231 Ry
     estimated scf accuracy    <       0.02988093 Ry

     iteration # 35     ecut=    30.00 Ry     beta=0.70
     Davidson diagonalization with overlap
     ethr =  6.21E-05,  avg # of iterations =  1.0

     total cpu time spent up to now is       10.8 secs

     total energy              =     -31.68605890 Ry
     Harris-Foulkes estimate   =     -31.68585853 Ry
     estimated scf accuracy    <       0.10395608 Ry

     iteration # 36     ecut=    30.00 Ry     beta=0.70
     Davidson diagonalization with overlap
     ethr =  6.21E-05,  avg # of iterations =  1.0

     total cpu time spent up to now is       10.9 secs

     total energy              =     -31.68328095 Ry
     Harris-Foulkes estimate   =     -31.68606527 Ry
     estimated scf accuracy    <       0.11778480 Ry

     iteration # 37     ecut=    30.00 Ry     beta=0.70
     Davidson diagonalization with overlap
     ethr =  6.21E-05,  avg # of iterations =  1.0

     total cpu time spent up to now is       10.9 secs

     total energy              =     -31.68434920 Ry
     Harris-Foulkes estimate   =     -31.68444219 Ry
     estimated scf accuracy    <       0.00208375 Ry

     iteration # 38     ecut=    30.00 Ry     beta=0.70
     Davidson diagonalization with overlap
     ethr =  2.60E-05,  avg # of iterations =  1.0

     total cpu time spent up to now is       11.0 secs

     total energy              =     -31.68441789 Ry
     Harris-Foulkes estimate   =     -31.68442520 Ry
     estimated scf accuracy    <       0.00108033 Ry

     iteration # 39     ecut=    30.00 Ry     beta=0.70
     Davidson diagonalization with overlap
     ethr =  1.35E-05,  avg # of iterations =  1.0

     total cpu time spent up to now is       11.0 secs

     total energy              =     -31.68444431 Ry
     Harris-Foulkes estimate   =     -31.68441911 Ry
     estimated scf accuracy    <       0.00053952 Ry

     iteration # 40     ecut=    30.00 Ry     beta=0.70
     Davidson diagonalization with overlap
     ethr =  6.74E-06,  avg # of iterations =  1.0

     total cpu time spent up to now is       11.0 secs

     total energy              =     -31.68437168 Ry
     Harris-Foulkes estimate   =     -31.68446854 Ry
     estimated scf accuracy    <       0.00416044 Ry

     iteration # 41     ecut=    30.00 Ry     beta=0.70
     Davidson diagonalization with overlap
     ethr =  6.74E-06,  avg # of iterations =  1.0

     total cpu time spent up to now is       11.1 secs

     total energy              =     -31.68441686 Ry
     Harris-Foulkes estimate   =     -31.68441688 Ry
     estimated scf accuracy    <       0.00001709 Ry

     iteration # 42     ecut=    30.00 Ry     beta=0.70
     Davidson diagonalization with overlap
     ethr =  2.14E-07,  avg # of iterations =  1.0

     total cpu time spent up to now is       11.1 secs

     total energy              =     -31.68441550 Ry
     Harris-Foulkes estimate   =     -31.68441691 Ry
[...]
     Harris-Foulkes estimate   =     -61.68731817 Ry
     estimated scf accuracy    <      26.50260371 Ry

     iteration # 59     ecut=    30.00 Ry     beta=0.70
     Davidson diagonalization with overlap
     ethr =  1.00E-02,  avg # of iterations =  3.0

     negative rho (up, down):  3.984E-01 0.000E+00

     total cpu time spent up to now is       42.4 secs

     total energy              =       1.52276563 Ry
     Harris-Foulkes estimate   =    -336.55127955 Ry
     estimated scf accuracy    <      23.89841993 Ry

     iteration # 60     ecut=    30.00 Ry     beta=0.70
     Davidson diagonalization with overlap
     ethr =  1.00E-02,  avg # of iterations =  8.0

     negative rho (up, down):  2.433E-01 0.000E+00

     total cpu time spent up to now is       42.5 secs

     total energy              =      26.89368334 Ry
     Harris-Foulkes estimate   =    -102.74255750 Ry
     estimated scf accuracy    <      25.22630864 Ry

     iteration # 61     ecut=    30.00 Ry     beta=0.70
     Davidson diagonalization with overlap
     ethr =  1.00E-02,  avg # of iterations =  7.0

     negative rho (up, down):  1.355E-01 0.000E+00

     total cpu time spent up to now is       42.6 secs

     total energy              =      95.85011663 Ry
     Harris-Foulkes estimate   =    -467.86858993 Ry
     estimated scf accuracy    <      25.78953309 Ry

     iteration # 62     ecut=    30.00 Ry     beta=0.70
     Davidson diagonalization with overlap
     ethr =  1.00E-02,  avg # of iterations =  8.0

     negative rho (up, down):  2.647E-01 0.000E+00

     total cpu time spent up to now is       42.6 secs

     total energy              =      24.24751430 Ry
     Harris-Foulkes estimate   =   -1142.73758416 Ry
     estimated scf accuracy    <      21.98069203 Ry

     iteration # 63     ecut=    30.00 Ry     beta=0.70
     Davidson diagonalization with overlap
     ethr =  1.00E-02,  avg # of iterations =  5.0

     negative rho (up, down):  2.404E-01 0.000E+00

     total cpu time spent up to now is       42.7 secs

     total energy              =     376.96136689 Ry
     Harris-Foulkes estimate   =   -2081.36761779 Ry
     estimated scf accuracy    <      26.04532071 Ry

     iteration # 64     ecut=    30.00 Ry     beta=0.70
     Davidson diagonalization with overlap
     ethr =  1.00E-02,  avg # of iterations =  5.0

     negative rho (up, down):  9.448E-02 0.000E+00

     total cpu time spent up to now is       42.8 secs

     total energy              =      13.35119770 Ry
     Harris-Foulkes estimate   =    -210.04708960 Ry
     estimated scf accuracy    <      18.34194780 Ry

     iteration # 65     ecut=    30.00 Ry     beta=0.70
     Davidson diagonalization with overlap
     ethr =  1.00E-02,  avg # of iterations =  5.0

     negative rho (up, down):  4.243E-02 0.000E+00

     total cpu time spent up to now is       42.9 secs

     total energy              =     145.49104307 Ry
     Harris-Foulkes estimate   =   -4210.16057236 Ry
     estimated scf accuracy    <      53.84877699 Ry

     iteration # 66     ecut=    30.00 Ry     beta=0.70
     Davidson diagonalization with overlap
     ethr =  1.00E-02,  avg # of iterations =  6.0

     negative rho (up, down):  2.354E-01 0.000E+00

     total cpu time spent up to now is       42.9 secs

     total energy              =     -43.55328724 Ry
     Harris-Foulkes estimate   =     -45.46022968 Ry
     estimated scf accuracy    <      38.87243290 Ry

     iteration # 67     ecut=    30.00 Ry     beta=0.70
     Davidson diagonalization with overlap
     ethr =  1.00E-02,  avg # of iterations =  9.0

     negative rho (up, down):  2.269E-01 0.000E+00

     total cpu time spent up to now is       43.0 secs

     total energy              =     147.61405360 Ry
     Harris-Foulkes estimate   =   -1809.10087679 Ry
     estimated scf accuracy    <      28.98189803 Ry

     iteration # 68     ecut=    30.00 Ry     beta=0.70
     Davidson diagonalization with overlap
     ethr =  1.00E-02,  avg # of iterations =  9.0

     negative rho (up, down):  3.561E-01 0.000E+00

     total cpu time spent up to now is       43.1 secs

     total energy              =  -16775.69811684 Ry
     Harris-Foulkes estimate   =     -99.83661844 Ry
     estimated scf accuracy    <      20.91321699 Ry

     iteration # 69     ecut=    30.00 Ry     beta=0.70
     Davidson diagonalization with overlap
     ethr =  1.00E-02,  avg # of iterations =  7.0

     negative rho (up, down):  3.495E-01 0.000E+00

     total cpu time spent up to now is       43.2 secs

     total energy              =      48.20460348 Ry
     Harris-Foulkes estimate   =  -59557.29180153 Ry
     estimated scf accuracy    <      29.38024776 Ry

     iteration # 70     ecut=    30.00 Ry     beta=0.70
     Davidson diagonalization with overlap
     ethr =  1.00E-02,  avg # of iterations = 10.0

     negative rho (up, down):  3.431E-01 0.000E+00

     total cpu time spent up to now is       43.3 secs

     total energy              =      78.30780677 Ry
     Harris-Foulkes estimate   =   -2631.26388120 Ry
     estimated scf accuracy    <      31.72226510 Ry

     iteration # 71     ecut=    30.00 Ry     beta=0.70
     Davidson diagonalization with overlap
     ethr =  1.00E-02,  avg # of iterations =  6.0

     negative rho (up, down):  3.492E-02 0.000E+00

     total cpu time spent up to now is       43.4 secs

     total energy              =     102.08471173 Ry
     Harris-Foulkes estimate   =   -1193.20064552 Ry
     estimated scf accuracy    <      16.01638235 Ry

     iteration # 72     ecut=    30.00 Ry     beta=0.70
     Davidson diagonalization with overlap
     ethr =  1.00E-02,  avg # of iterations =  6.0

     negative rho (up, down):  1.753E-01 0.000E+00

     total cpu time spent up to now is       43.5 secs

     total energy              =    -400.16103397 Ry
     Harris-Foulkes estimate   =   -1119.98808492 Ry
     estimated scf accuracy    <      27.82640234 Ry

     iteration # 73     ecut=    30.00 Ry     beta=0.70
     Davidson diagonalization with overlap
     ethr =  1.00E-02,  avg # of iterations =  6.0

     negative rho (up, down):  2.421E-01 0.000E+00

     total cpu time spent up to now is       43.5 secs

     total energy              =    -508.89560487 Ry
     Harris-Foulkes estimate   =   -2314.18475002 Ry
     estimated scf accuracy    <      12.85501435 Ry

     iteration # 74     ecut=    30.00 Ry     beta=0.70
     Davidson diagonalization with overlap
     ethr =  1.00E-02,  avg # of iterations =  7.0

     negative rho (up, down):  7.821E-03 0.000E+00

     total cpu time spent up to now is       43.6 secs

     total energy              =     108.48426106 Ry
     Harris-Foulkes estimate   =   -2125.31947859 Ry
     estimated scf accuracy    <      21.28861720 Ry

     iteration # 75     ecut=    30.00 Ry     beta=0.70
     Davidson diagonalization with overlap
     ethr =  1.00E-02,  avg # of iterations =  9.0

     negative rho (up, down):  4.892E-02 0.000E+00

     total cpu time spent up to now is       43.7 secs

     total energy              =       8.38255651 Ry
     Harris-Foulkes estimate   =    -334.46377493 Ry
     estimated scf accuracy    <      17.03065440 Ry

     iteration # 76     ecut=    30.00 Ry     beta=0.70
     Davidson diagonalization with overlap
     ethr =  1.00E-02,  avg # of iterations =  5.0

     negative rho (up, down):  4.137E-02 0.000E+00

     total cpu time spent up to now is       43.7 secs

     total energy              =       5.91481463 Ry
     Harris-Foulkes estimate   =    -112.67376936 Ry
     estimated scf accuracy    <      20.30339036 Ry

     iteration # 77     ecut=    30.00 Ry     beta=0.70
     Davidson diagonalization with overlap
     ethr =  1.00E-02,  avg # of iterations =  8.0

     negative rho (up, down):  4.883E-04 0.000E+00

     total cpu time spent up to now is       43.8 secs

     total energy              =     -35.11561302 Ry
     Harris-Foulkes estimate   =     -37.41826747 Ry
     estimated scf accuracy    <      26.93044375 Ry

     iteration # 78     ecut=    30.00 Ry     beta=0.70
     Davidson diagonalization with overlap
     ethr =  1.00E-02,  avg # of iterations =  1.0

     negative rho (up, down):  2.736E-02 0.000E+00

     total cpu time spent up to now is       43.9 secs

     total energy              =     -34.01479126 Ry
     Harris-Foulkes estimate   =     -35.12134360 Ry
     estimated scf accuracy    <      24.27055149 Ry

     iteration # 79     ecut=    30.00 Ry     beta=0.70
     Davidson diagonalization with overlap
     ethr =  1.00E-02,  avg # of iterations =  4.0

     negative rho (up, down):  6.694E-03 0.000E+00

     total cpu time spent up to now is       43.9 secs

     total energy              =      53.17082032 Ry
     Harris-Foulkes estimate   =    -973.61310196 Ry
     estimated scf accuracy    <      11.79525465 Ry

     iteration # 80     ecut=    30.00 Ry     beta=0.70
     Davidson diagonalization with overlap
     ethr =  1.00E-02,  avg # of iterations =  6.0

     negative rho (up, down):  5.747E-01 0.000E+00

     total cpu time spent up to now is       44.0 secs

     total energy              =     -19.50487631 Ry
     Harris-Foulkes estimate   =     -52.94669923 Ry
     estimated scf accuracy    <      10.61551087 Ry

     iteration # 81     ecut=    30.00 Ry     beta=0.70
     Davidson diagonalization with overlap
     ethr =  1.00E-02,  avg # of iterations =  8.0

     negative rho (up, down):  9.285E-02 0.000E+00

     total cpu time spent up to now is       44.1 secs

     total energy              =  -13756.01692104 Ry
     Harris-Foulkes estimate   =  -17021.28437652 Ry
     estimated scf accuracy    <      49.50654073 Ry

     iteration # 82     ecut=    30.00 Ry     beta=0.70
     Davidson diagonalization with overlap
     ethr =  1.00E-02,  avg # of iterations = 12.0

     negative rho (up, down):  5.856E-03 0.000E+00

     total cpu time spent up to now is       44.2 secs

     total energy              =     163.31496733 Ry
     Harris-Foulkes estimate   =  -30260.59877477 Ry
     estimated scf accuracy    <      33.38079639 Ry

     iteration # 83     ecut=    30.00 Ry     beta=0.70
     Davidson diagonalization with overlap
     ethr =  1.00E-02,  avg # of iterations = 11.0

     negative rho (up, down):  8.924E-06 0.000E+00

     total cpu time spent up to now is       44.3 secs

     total energy              =       2.96059769 Ry
     Harris-Foulkes estimate   =     -60.95943816 Ry
     estimated scf accuracy    <      14.11433049 Ry

     iteration # 84     ecut=    30.00 Ry     beta=0.70
     Davidson diagonalization with overlap
     ethr =  1.00E-02,  avg # of iterations =  7.0

     negative rho (up, down):  2.046E-02 0.000E+00

     total cpu time spent up to now is       44.3 secs

     total energy              =     -33.26705327 Ry
     Harris-Foulkes estimate   =     -34.41263819 Ry
     estimated scf accuracy    <      23.30518740 Ry

     iteration # 85     ecut=    30.00 Ry     beta=0.70
     Davidson diagonalization with overlap
     ethr =  1.00E-02,  avg # of iterations =  1.0

     negative rho (up, down):  1.189E-01 0.000E+00

     total cpu time spent up to now is       44.4 secs

     total energy              =     -31.37811858 Ry
     Harris-Foulkes estimate   =     -33.27419301 Ry
     estimated scf accuracy    <      21.74977754 Ry

     iteration # 86     ecut=    30.00 Ry     beta=0.70
     Davidson diagonalization with overlap
     ethr =  1.00E-02,  avg # of iterations =  7.0

     negative rho (up, down):  1.851E-02 0.000E+00

     total cpu time spent up to now is       44.5 secs

     total energy              =      76.25985247 Ry
     Harris-Foulkes estimate   =    -464.46204489 Ry
     estimated scf accuracy    <      18.47011704 Ry

     iteration # 87     ecut=    30.00 Ry     beta=0.70
     Davidson diagonalization with overlap
     ethr =  1.00E-02,  avg # of iterations =  7.0

     negative rho (up, down):  4.688E-03 0.000E+00

     total cpu time spent up to now is       44.6 secs

     total energy              =       6.31335574 Ry
     Harris-Foulkes estimate   =     -83.90535531 Ry
     estimated scf accuracy    <      14.92491134 Ry

     iteration # 88     ecut=    30.00 Ry     beta=0.70
     Davidson diagonalization with overlap
     ethr =  1.00E-02,  avg # of iterations =  8.0

     negative rho (up, down):  3.336E-06 0.000E+00

     total cpu time spent up to now is       44.6 secs

     total energy              =     -33.63269693 Ry
     Harris-Foulkes estimate   =     -29.37598852 Ry
     estimated scf accuracy    <      16.76553129 Ry

     iteration # 89     ecut=    30.00 Ry     beta=0.70
     Davidson diagonalization with overlap
     ethr =  1.00E-02,  avg # of iterations =  1.0

     negative rho (up, down):  1.383E-03 0.000E+00

     total cpu time spent up to now is       44.7 secs

     total energy              =     -33.33441436 Ry
     Harris-Foulkes estimate   =     -33.66863723 Ry
     estimated scf accuracy    <      22.08742212 Ry

     iteration # 90     ecut=    30.00 Ry     beta=0.70
     Davidson diagonalization with overlap
     ethr =  1.00E-02,  avg # of iterations =  1.0

     negative rho (up, down):  7.584E-04 0.000E+00

     total cpu time spent up to now is       44.7 secs

     total energy              =     -32.46004310 Ry
     Harris-Foulkes estimate   =     -33.33798686 Ry
     estimated scf accuracy    <      21.71801674 Ry

     iteration # 91     ecut=    30.00 Ry     beta=0.70
     Davidson diagonalization with overlap
     ethr =  1.00E-02,  avg # of iterations =  5.0

     negative rho (up, down):  3.223E-01 0.000E+00

     total cpu time spent up to now is       44.8 secs

     total energy              =     -10.97925032 Ry
     Harris-Foulkes estimate   =     -36.05135314 Ry
     estimated scf accuracy    <      14.96579596 Ry

     iteration # 92     ecut=    30.00 Ry     beta=0.70
     Davidson diagonalization with overlap
     ethr =  1.00E-02,  avg # of iterations =  9.0

     negative rho (up, down):  1.111E-01 0.000E+00

     total cpu time spent up to now is       44.9 secs

     total energy              =     136.57919365 Ry
     Harris-Foulkes estimate   =   -8345.53543574 Ry
     estimated scf accuracy    <      44.19957230 Ry

     iteration # 93     ecut=    30.00 Ry     beta=0.70
     Davidson diagonalization with overlap
     ethr =  1.00E-02,  avg # of iterations =  9.0

     negative rho (up, down):  1.989E-01 0.000E+00

     total cpu time spent up to now is       45.0 secs

     total energy              =    -601.57870217 Ry
     Harris-Foulkes estimate   =    -535.59081160 Ry
     estimated scf accuracy    <      36.86747158 Ry

     iteration # 94     ecut=    30.00 Ry     beta=0.70
     Davidson diagonalization with overlap
     ethr =  1.00E-02,  avg # of iterations =  6.0

     negative rho (up, down):  3.763E-02 0.000E+00

     total cpu time spent up to now is       45.1 secs

     total energy              =      86.72681670 Ry
     Harris-Foulkes estimate   =   -1754.76488311 Ry
     estimated scf accuracy    <      31.40265416 Ry

     iteration # 95     ecut=    30.00 Ry     beta=0.70
     Davidson diagonalization with overlap
     ethr =  1.00E-02,  avg # of iterations =  7.0

     negative rho (up, down):  2.933E-01 0.000E+00

     total cpu time spent up to now is       45.1 secs

     total energy              =     -22.74178788 Ry
     Harris-Foulkes estimate   =    -253.54958566 Ry
     estimated scf accuracy    <      12.98358956 Ry

     iteration # 96     ecut=    30.00 Ry     beta=0.70
     Davidson diagonalization with overlap
     ethr =  1.00E-02,  avg # of iterations =  9.0

     negative rho (up, down):  3.767E-01 0.000E+00

     total cpu time spent up to now is       45.2 secs

     total energy              =      -8.85679165 Ry
     Harris-Foulkes estimate   =    -345.56921759 Ry
     estimated scf accuracy    <      33.33092805 Ry

     iteration # 97     ecut=    30.00 Ry     beta=0.70
     Davidson diagonalization with overlap
     ethr =  1.00E-02,  avg # of iterations =  6.0

     negative rho (up, down):  4.634E-01 0.000E+00

     total cpu time spent up to now is       45.3 secs

     total energy              =    -607.93645243 Ry
     Harris-Foulkes estimate   =    -577.18014004 Ry
     estimated scf accuracy    <      50.02708578 Ry

     iteration # 98     ecut=    30.00 Ry     beta=0.70
     Davidson diagonalization with overlap
     ethr =  1.00E-02,  avg # of iterations =  7.0

     negative rho (up, down):  4.747E-01 0.000E+00

     total cpu time spent up to now is       45.4 secs

     total energy              =    -131.87696183 Ry
     Harris-Foulkes estimate   =   -5157.85521369 Ry
     estimated scf accuracy    <      45.99728227 Ry

     iteration # 99     ecut=    30.00 Ry     beta=0.70
     Davidson diagonalization with overlap
     ethr =  1.00E-02,  avg # of iterations =  7.0

     negative rho (up, down):  7.505E-01 0.000E+00

     total cpu time spent up to now is       45.5 secs

     total energy              =      50.11534205 Ry
     Harris-Foulkes estimate   =    -878.82857480 Ry
     estimated scf accuracy    <      37.44629975 Ry

     iteration #100     ecut=    30.00 Ry     beta=0.70
     Davidson diagonalization with overlap
     ethr =  1.00E-02,  avg # of iterations =  9.0

     negative rho (up, down):  8.670E-01 0.000E+00

     total cpu time spent up to now is       45.6 secs

     total energy              =      -9.27516278 Ry
     Harris-Foulkes estimate   =   -1325.71182460 Ry
     estimated scf accuracy    <      31.32588680 Ry

     End of self-consistent calculation

     convergence NOT achieved after 100 iterations: stopping

     Writing output data file pwscf.save
 
     init_run     :      0.17s CPU      0.19s WALL (       1 calls)
     electrons    :     31.82s CPU     39.41s WALL (      15 calls)
     update_pot   :      3.08s CPU      4.12s WALL (      14 calls)
     forces       :      0.61s CPU      0.61s WALL (      14 calls)

     Called by init_run:
     wfcinit      :      0.01s CPU      0.02s WALL (       1 calls)
     potinit      :      0.05s CPU      0.05s WALL (       1 calls)

     Called by electrons:
     c_bands      :     14.79s CPU     15.89s WALL (     666 calls)
     sum_band     :      3.46s CPU      3.62s WALL (     666 calls)
     v_of_rho     :      7.66s CPU      8.10s WALL (     681 calls)
     mix_rho      :      4.74s CPU      9.35s WALL (     666 calls)

     Called by c_bands:
     init_us_2    :      0.10s CPU      0.13s WALL (    1333 calls)
     cegterg      :     14.61s CPU     15.49s WALL (     666 calls)

     Called by sum_band:

     Called by *egterg:
     h_psi        :     12.60s CPU     13.02s WALL (    2387 calls)
     g_psi        :      0.12s CPU      0.13s WALL (    1720 calls)
     cdiaghg      :      0.74s CPU      0.91s WALL (    2372 calls)

     Called by h_psi:
     h_psi:pot    :     12.53s CPU     12.94s WALL (    2387 calls)
     h_psi:calbec :      0.09s CPU      0.14s WALL (    2387 calls)
     vloc_psi     :     12.39s CPU     12.74s WALL (    2387 calls)
     add_vuspsi   :      0.03s CPU      0.03s WALL (    2387 calls)

     General routines
     calbec       :      0.15s CPU      0.22s WALL (    2456 calls)
     fft          :      4.81s CPU      5.02s WALL (    7519 calls)
     fftw         :     13.50s CPU     13.94s WALL (   33674 calls)
     davcio       :      0.82s CPU      4.21s WALL (   11998 calls)
 
     Parallel routines
     fft_scatter  :      5.59s CPU      5.95s WALL (   41193 calls)
 
     PWSCF        :    36.36s CPU        45.69s WALL

 
   This run was terminated on:  14:36:11  13Feb2018            

=------------------------------------------------------------------------------=
   JOB DONE.
=------------------------------------------------------------------------------=
