
     Program PWSCF v.6.0 (svn rev. 13079) starts on 13Feb2018 at 14:45:22 

     This program is part of the open-source Quantum ESPRESSO suite
     for quantum simulation of materials; please cite
         "P. Giannozzi et al., J. Phys.:Condens. Matter 21 395502 (2009);
          URL http://www.quantum-espresso.org", 
     in publications or presentations arising from this work. More details at
     http://www.quantum-espresso.org/quote

     Parallel version (MPI), running on    28 processors
     R & G space division:  proc/nbgrp/npool/nimage =      28
     Reading input from inputs/MD-H2O-round1/324.in

     Current dimensions of program PWSCF are:
     Max number of different atomic species (ntypx) = 10
     Max number of k-points (npk) =  40000
     Max angular momentum in pseudopotentials (lmaxx) =  3

     Subspace diagonalization in iterative solution of the eigenvalue problem:
     a serial algorithm will be used

 
     Parallelization info
     --------------------
     sticks:   dense  smooth     PW     G-vecs:    dense   smooth      PW
     Min         136     136     33                 6338     6338     787
     Max         137     137     34                 6341     6341     792
     Sum        3809    3809    949               177509   177509   22119
 


     bravais-lattice index     =            1
     lattice parameter (alat)  =      20.0000  a.u.
     unit-cell volume          =    8000.0000 (a.u.)^3
     number of atoms/cell      =            3
     number of atomic types    =            2
     number of electrons       =         8.00
     number of Kohn-Sham states=            8
     kinetic-energy cutoff     =      30.0000  Ry
     charge density cutoff     =     120.0000  Ry
     convergence threshold     =      1.0E-08
     mixing beta               =       0.7000
     number of iterations used =            8  plain     mixing
     Exchange-correlation      = BLYP ( 1  3  1  3 0 0)
     nstep                     =         5000


     celldm(1)=  20.000000  celldm(2)=   0.000000  celldm(3)=   0.000000
     celldm(4)=   0.000000  celldm(5)=   0.000000  celldm(6)=   0.000000

     crystal axes: (cart. coord. in units of alat)
               a(1) = (   1.000000   0.000000   0.000000 )  
               a(2) = (   0.000000   1.000000   0.000000 )  
               a(3) = (   0.000000   0.000000   1.000000 )  

     reciprocal axes: (cart. coord. in units 2 pi/alat)
               b(1) = (  1.000000  0.000000  0.000000 )  
               b(2) = (  0.000000  1.000000  0.000000 )  
               b(3) = (  0.000000  0.000000  1.000000 )  


     PseudoPot. # 1 for  H read from file:
     ./H.blyp-hgh.UPF
     MD5 check sum: c576e69559cde411e611be972c763230
     Pseudo is Norm-conserving, Zval =  1.0
     Generated in analytical, separable form
     Using radial grid of  929 points,  0 beta functions with: 

     PseudoPot. # 2 for  O read from file:
     ./O.blyp-hgh.UPF
     MD5 check sum: d0b7156309aa9befef28faac7bc56342
     Pseudo is Norm-conserving, Zval =  6.0
     Generated in analytical, separable form
     Using radial grid of 1095 points,  1 beta functions with: 
                l(1) =   0

     atomic species   valence    mass     pseudopotential
        H              1.00     1.01000      H( 1.00)
        O              6.00    16.00000      O( 1.00)

     No symmetry found



   Cartesian axes

     site n.     atom                  positions (alat units)
         1           O   tau(   1) = (   0.8247303   0.0016216   0.4581158  )
         2           H   tau(   2) = (   0.4722734   0.2854001   0.0326601  )
         3           H   tau(   3) = (   0.7661538   0.0261176   0.4077822  )

     number of k points=     1  Marzari-Vanderbilt smearing, width (Ry)=  0.0250
                       cart. coord. in units 2pi/alat
        k(    1) = (   0.0000000   0.0000000   0.0000000), wk =   2.0000000

     Dense  grid:   177509 G-vectors     FFT dimensions: (  72,  72,  72)

     Estimated max dynamical RAM per process >       6.09Mb

     Estimated total allocated dynamical RAM >     170.64Mb

     Initial potential from superposition of free atoms
     Check: negative starting charge=   -0.351855

     starting charge    7.99998, renormalised to    8.00000

     negative rho (up, down):  3.519E-01 0.000E+00
     Starting wfc are    6 randomized atomic wfcs +    2 random wfc

     total cpu time spent up to now is        0.3 secs

     per-process dynamical memory:    18.8 Mb

     Self-consistent Calculation

     iteration #  1     ecut=    30.00 Ry     beta=0.70
     Davidson diagonalization with overlap
     ethr =  1.00E-02,  avg # of iterations =  8.0

     negative rho (up, down):  9.458E-02 0.000E+00

     total cpu time spent up to now is        0.4 secs

     total energy              =     -31.62024222 Ry
     Harris-Foulkes estimate   =     -32.08520532 Ry
     estimated scf accuracy    <       0.47280002 Ry

     iteration #  2     ecut=    30.00 Ry     beta=0.70
     Davidson diagonalization with overlap
     ethr =  5.91E-03,  avg # of iterations =  3.0

     negative rho (up, down):  7.433E-02 0.000E+00

     total cpu time spent up to now is        0.5 secs

     total energy              =     -31.67364806 Ry
     Harris-Foulkes estimate   =     -32.25818482 Ry
     estimated scf accuracy    <       2.04204849 Ry

     iteration #  3     ecut=    30.00 Ry     beta=0.70
     Davidson diagonalization with overlap
     ethr =  5.91E-03,  avg # of iterations =  2.0

     negative rho (up, down):  2.797E-02 0.000E+00

     total cpu time spent up to now is        0.5 secs

     total energy              =     -31.68269271 Ry
     Harris-Foulkes estimate   =     -31.85393062 Ry
     estimated scf accuracy    <       1.09470655 Ry

     iteration #  4     ecut=    30.00 Ry     beta=0.70
     Davidson diagonalization with overlap
     ethr =  5.91E-03,  avg # of iterations =  1.0

     negative rho (up, down):  1.092E-02 0.000E+00

     total cpu time spent up to now is        0.6 secs

     total energy              =     -31.73651779 Ry
     Harris-Foulkes estimate   =     -31.95467711 Ry
     estimated scf accuracy    <       1.39785022 Ry

     iteration #  5     ecut=    30.00 Ry     beta=0.70
     Davidson diagonalization with overlap
     ethr =  5.91E-03,  avg # of iterations =  1.0

     negative rho (up, down):  1.075E-03 0.000E+00

     total cpu time spent up to now is        0.6 secs

     total energy              =     -31.84638576 Ry
     Harris-Foulkes estimate   =     -31.90860556 Ry
     estimated scf accuracy    <       0.95992069 Ry

     iteration #  6     ecut=    30.00 Ry     beta=0.70
     Davidson diagonalization with overlap
     ethr =  5.91E-03,  avg # of iterations =  1.0

     negative rho (up, down):  4.498E-04 0.000E+00

     total cpu time spent up to now is        0.7 secs

     total energy              =     -31.82956743 Ry
     Harris-Foulkes estimate   =     -31.85300395 Ry
     estimated scf accuracy    <       0.18017440 Ry

     iteration #  7     ecut=    30.00 Ry     beta=0.70
     Davidson diagonalization with overlap
     ethr =  2.25E-03,  avg # of iterations =  1.0

     negative rho (up, down):  2.042E-04 0.000E+00

     total cpu time spent up to now is        0.7 secs

     total energy              =     -31.86700854 Ry
     Harris-Foulkes estimate   =     -31.88771733 Ry
     estimated scf accuracy    <       1.65455383 Ry

     iteration #  8     ecut=    30.00 Ry     beta=0.70
     Davidson diagonalization with overlap
     ethr =  2.25E-03,  avg # of iterations =  1.0

     negative rho (up, down):  1.049E-06 0.000E+00

     total cpu time spent up to now is        0.7 secs

     total energy              =     -31.78369154 Ry
     Harris-Foulkes estimate   =     -31.86778328 Ry
     estimated scf accuracy    <       1.21977131 Ry

     iteration #  9     ecut=    30.00 Ry     beta=0.70
     Davidson diagonalization with overlap
     ethr =  2.25E-03,  avg # of iterations =  1.0

     total cpu time spent up to now is        0.8 secs

     total energy              =     -31.85940514 Ry
     Harris-Foulkes estimate   =     -31.88143088 Ry
     estimated scf accuracy    <       0.90960550 Ry

     iteration # 10     ecut=    30.00 Ry     beta=0.70
     Davidson diagonalization with overlap
     ethr =  2.25E-03,  avg # of iterations =  1.0

     negative rho (up, down):  5.837E-08 0.000E+00

     total cpu time spent up to now is        0.8 secs

     total energy              =     -31.85423870 Ry
     Harris-Foulkes estimate   =     -31.86095689 Ry
     estimated scf accuracy    <       0.55780579 Ry

     iteration # 11     ecut=    30.00 Ry     beta=0.70
     Davidson diagonalization with overlap
     ethr =  2.25E-03,  avg # of iterations =  1.0

     negative rho (up, down):  5.684E-08 0.000E+00

     total cpu time spent up to now is        0.9 secs

     total energy              =     -31.85376233 Ry
     Harris-Foulkes estimate   =     -31.85508849 Ry
     estimated scf accuracy    <       0.29256970 Ry

     iteration # 12     ecut=    30.00 Ry     beta=0.70
     Davidson diagonalization with overlap
     ethr =  2.25E-03,  avg # of iterations =  1.0

     total cpu time spent up to now is        0.9 secs

     total energy              =     -31.85362931 Ry
     Harris-Foulkes estimate   =     -31.85384558 Ry
     estimated scf accuracy    <       0.22216720 Ry

     iteration # 13     ecut=    30.00 Ry     beta=0.70
     Davidson diagonalization with overlap
     ethr =  2.25E-03,  avg # of iterations =  1.0

     negative rho (up, down):  3.314E-06 0.000E+00

     total cpu time spent up to now is        1.0 secs

     total energy              =     -31.84847132 Ry
     Harris-Foulkes estimate   =     -31.85363272 Ry
     estimated scf accuracy    <       0.20931272 Ry

     iteration # 14     ecut=    30.00 Ry     beta=0.70
     Davidson diagonalization with overlap
     ethr =  2.25E-03,  avg # of iterations =  1.0

     negative rho (up, down):  3.207E-07 0.000E+00

     total cpu time spent up to now is        1.0 secs

     total energy              =     -31.84990750 Ry
     Harris-Foulkes estimate   =     -31.85056795 Ry
     estimated scf accuracy    <       0.00427738 Ry

     iteration # 15     ecut=    30.00 Ry     beta=0.70
     Davidson diagonalization with overlap
     ethr =  5.35E-05,  avg # of iterations =  6.0

     total cpu time spent up to now is        1.1 secs

     total energy              =     -31.85081259 Ry
     Harris-Foulkes estimate   =     -31.85223079 Ry
     estimated scf accuracy    <       0.13960303 Ry

     iteration # 16     ecut=    30.00 Ry     beta=0.70
     Davidson diagonalization with overlap
     ethr =  5.35E-05,  avg # of iterations =  1.0

     total cpu time spent up to now is        1.1 secs

     total energy              =     -31.85019508 Ry
     Harris-Foulkes estimate   =     -31.85110298 Ry
     estimated scf accuracy    <       0.04779305 Ry

     iteration # 17     ecut=    30.00 Ry     beta=0.70
     Davidson diagonalization with overlap
     ethr =  5.35E-05,  avg # of iterations =  1.0

     total cpu time spent up to now is        1.2 secs

     total energy              =     -31.85052465 Ry
     Harris-Foulkes estimate   =     -31.85054362 Ry
     estimated scf accuracy    <       0.00249946 Ry

     iteration # 18     ecut=    30.00 Ry     beta=0.70
     Davidson diagonalization with overlap
     ethr =  3.12E-05,  avg # of iterations =  1.0

     total cpu time spent up to now is        1.2 secs

     total energy              =     -31.85049988 Ry
     Harris-Foulkes estimate   =     -31.85052762 Ry
     estimated scf accuracy    <       0.00120926 Ry

     iteration # 19     ecut=    30.00 Ry     beta=0.70
     Davidson diagonalization with overlap
     ethr =  1.51E-05,  avg # of iterations =  1.0

     total cpu time spent up to now is        1.3 secs

     total energy              =     -31.85051233 Ry
     Harris-Foulkes estimate   =     -31.85051278 Ry
     estimated scf accuracy    <       0.00000722 Ry

     iteration # 20     ecut=    30.00 Ry     beta=0.70
     Davidson diagonalization with overlap
     ethr =  9.03E-08,  avg # of iterations =  6.0

     total cpu time spent up to now is        1.3 secs

     total energy              =     -31.85051250 Ry
     Harris-Foulkes estimate   =     -31.85051272 Ry
     estimated scf accuracy    <       0.00000756 Ry

     iteration # 21     ecut=    30.00 Ry     beta=0.70
     Davidson diagonalization with overlap
     ethr =  9.03E-08,  avg # of iterations =  1.0

     total cpu time spent up to now is        1.4 secs

     total energy              =     -31.85051270 Ry
     Harris-Foulkes estimate   =     -31.85051269 Ry
     estimated scf accuracy    <       0.00000137 Ry

     iteration # 22     ecut=    30.00 Ry     beta=0.70
     Davidson diagonalization with overlap
     ethr =  1.71E-08,  avg # of iterations =  1.0

     total cpu time spent up to now is        1.4 secs

     total energy              =     -31.85051274 Ry
     Harris-Foulkes estimate   =     -31.85051271 Ry
     estimated scf accuracy    <       0.00000005 Ry

     iteration # 23     ecut=    30.00 Ry     beta=0.70
     Davidson diagonalization with overlap
     ethr =  6.27E-10,  avg # of iterations =  1.0

     total cpu time spent up to now is        1.4 secs

     End of self-consistent calculation

          k = 0.0000 0.0000 0.0000 ( 22119 PWs)   bands (ev):

   -26.1146 -11.0812  -7.1777  -7.1771  -7.0347  -0.4731   0.4608   0.8145

     the Fermi energy is    -7.0059 ev

!    total energy              =     -31.85051274 Ry
     Harris-Foulkes estimate   =     -31.85051274 Ry
     estimated scf accuracy    <          2.6E-09 Ry

     convergence has been achieved in  23 iterations

     Forces acting on atoms (Ry/au):

     atom    1 type  2   force =     0.41918058   -0.17345137    0.35830104
     atom    2 type  1   force =    -0.00075104   -0.00037084    0.00013334
     atom    3 type  1   force =    -0.41842953    0.17382221   -0.35843438

     Total force =     0.817283     Total SCF correction =     0.000014

     Molecular Dynamics Calculation

     Starting temperature  =  1000.00 K

     temperature is controlled by Andersen thermostat
     Collision frequency = 1.0000/timestep
     mass H                =     1.01
     mass O                =    16.00
     Time step             =   100.00 a.u.,  4.8378 femto-seconds

     Entering Dynamics:    iteration =     1
                           time      =   0.0048 pico-seconds


     Andersen thermostat:    3 collisions

ATOMIC_POSITIONS (bohr)
O       16.651605395  -0.021075565   9.280048620
H        9.303829818   5.829737809   0.709919335
H       12.977595058   1.248275630   6.233870291


     kinetic energy (Ekin) =     0.00435770 Ry
     temperature           =   229.34178681 K 
     Ekin + Etot (const)   =   -31.84615504 Ry

     Linear momentum :    0.0000000000    0.0000000000   -0.0000000000

     Writing output data file pwscf.save
     Check: negative starting charge=   -0.351855
     NEW-OLD atomic charge density approx. for the potential
     Check: negative starting charge=   -0.345104

     negative rho (up, down):  4.039E-01 0.000E+00

     total cpu time spent up to now is        1.9 secs

     per-process dynamical memory:    20.4 Mb

     Self-consistent Calculation

     iteration #  1     ecut=    30.00 Ry     beta=0.70
     Davidson diagonalization with overlap
     c_bands:  1 eigenvalues not converged
     ethr =  1.00E-06,  avg # of iterations = 20.0

     negative rho (up, down):  9.799E-02 0.000E+00

     total cpu time spent up to now is        2.1 secs

     total energy              =     -26.71717715 Ry
     Harris-Foulkes estimate   =     -32.76153316 Ry
     estimated scf accuracy    <       4.08286498 Ry

     iteration #  2     ecut=    30.00 Ry     beta=0.70
     Davidson diagonalization with overlap
     ethr =  1.00E-02,  avg # of iterations =  4.0

     negative rho (up, down):  7.220E-02 0.000E+00

     total cpu time spent up to now is        2.1 secs

     total energy              =     -32.19335195 Ry
     Harris-Foulkes estimate   =     -36.87530723 Ry
     estimated scf accuracy    <      11.86314798 Ry

     iteration #  3     ecut=    30.00 Ry     beta=0.70
     Davidson diagonalization with overlap
     ethr =  1.00E-02,  avg # of iterations =  2.0

     negative rho (up, down):  5.956E-02 0.000E+00

     total cpu time spent up to now is        2.2 secs

     total energy              =     -31.68230894 Ry
     Harris-Foulkes estimate   =     -32.53625960 Ry
     estimated scf accuracy    <       4.34157413 Ry

     iteration #  4     ecut=    30.00 Ry     beta=0.70
     Davidson diagonalization with overlap
     ethr =  1.00E-02,  avg # of iterations =  4.0

     negative rho (up, down):  4.987E-02 0.000E+00

     total cpu time spent up to now is        2.2 secs

     total energy              =     -31.59753447 Ry
     Harris-Foulkes estimate   =     -31.72400023 Ry
     estimated scf accuracy    <       2.07864248 Ry

     iteration #  5     ecut=    30.00 Ry     beta=0.70
     Davidson diagonalization with overlap
     ethr =  1.00E-02,  avg # of iterations =  1.0

     negative rho (up, down):  3.693E-02 0.000E+00

     total cpu time spent up to now is        2.3 secs

     total energy              =     -31.39123472 Ry
     Harris-Foulkes estimate   =     -31.60247641 Ry
     estimated scf accuracy    <       1.63266294 Ry

     iteration #  6     ecut=    30.00 Ry     beta=0.70
     Davidson diagonalization with overlap
     ethr =  1.00E-02,  avg # of iterations =  1.0

     negative rho (up, down):  3.582E-02 0.000E+00

     total cpu time spent up to now is        2.3 secs

     total energy              =     -31.31714076 Ry
     Harris-Foulkes estimate   =     -31.66860090 Ry
     estimated scf accuracy    <       2.17767933 Ry

     iteration #  7     ecut=    30.00 Ry     beta=0.70
     Davidson diagonalization with overlap
     ethr =  1.00E-02,  avg # of iterations =  1.0

     negative rho (up, down):  1.690E-02 0.000E+00

     total cpu time spent up to now is        2.4 secs

     total energy              =     -31.54270157 Ry
     Harris-Foulkes estimate   =     -31.69471360 Ry
     estimated scf accuracy    <       2.24752641 Ry

     iteration #  8     ecut=    30.00 Ry     beta=0.70
     Davidson diagonalization with overlap
     ethr =  1.00E-02,  avg # of iterations =  1.0

     negative rho (up, down):  1.817E-03 0.000E+00

     total cpu time spent up to now is        2.4 secs

     total energy              =     -31.28561334 Ry
     Harris-Foulkes estimate   =     -31.55988678 Ry
     estimated scf accuracy    <       1.09129142 Ry

     iteration #  9     ecut=    30.00 Ry     beta=0.70
     Davidson diagonalization with overlap
     ethr =  1.00E-02,  avg # of iterations =  1.0

     negative rho (up, down):  1.924E-03 0.000E+00

     total cpu time spent up to now is        2.5 secs

     total energy              =     -31.97768428 Ry
     Harris-Foulkes estimate   =     -31.97031986 Ry
     estimated scf accuracy    <       3.73746070 Ry

     iteration # 10     ecut=    30.00 Ry     beta=0.70
     Davidson diagonalization with overlap
     ethr =  1.00E-02,  avg # of iterations =  1.0

     negative rho (up, down):  2.465E-04 0.000E+00

     total cpu time spent up to now is        2.5 secs

     total energy              =     -32.07131952 Ry
     Harris-Foulkes estimate   =     -31.97806040 Ry
     estimated scf accuracy    <       3.75761118 Ry

     iteration # 11     ecut=    30.00 Ry     beta=0.70
     Davidson diagonalization with overlap
     ethr =  1.00E-02,  avg # of iterations =  1.0

     negative rho (up, down):  3.365E-04 0.000E+00

     total cpu time spent up to now is        2.6 secs

     total energy              =     -32.22385798 Ry
     Harris-Foulkes estimate   =     -32.07232079 Ry
     estimated scf accuracy    <       4.03285713 Ry

     iteration # 12     ecut=    30.00 Ry     beta=0.70
     Davidson diagonalization with overlap
     ethr =  1.00E-02,  avg # of iterations =  1.0

     negative rho (up, down):  1.189E-03 0.000E+00

     total cpu time spent up to now is        2.6 secs

     total energy              =     -31.16526007 Ry
     Harris-Foulkes estimate   =     -32.22535958 Ry
     estimated scf accuracy    <       4.37155679 Ry

     iteration # 13     ecut=    30.00 Ry     beta=0.70
     Davidson diagonalization with overlap
     ethr =  1.00E-02,  avg # of iterations =  1.0

     negative rho (up, down):  1.837E-01 0.000E+00

     total cpu time spent up to now is        2.7 secs

     total energy              =     -34.06894335 Ry
     Harris-Foulkes estimate   =     -31.77808370 Ry
     estimated scf accuracy    <       2.33993730 Ry

     iteration # 14     ecut=    30.00 Ry     beta=0.70
     Davidson diagonalization with overlap
     ethr =  1.00E-02,  avg # of iterations =  3.0

     negative rho (up, down):  2.548E-01 0.000E+00

     total cpu time spent up to now is        2.7 secs

     total energy              =     -30.27510058 Ry
     Harris-Foulkes estimate   =     -34.21822089 Ry
     estimated scf accuracy    <       6.41711274 Ry

     iteration # 15     ecut=    30.00 Ry     beta=0.70
     Davidson diagonalization with overlap
     ethr =  1.00E-02,  avg # of iterations = 10.0

     negative rho (up, down):  1.643E-03 0.000E+00

     total cpu time spent up to now is        2.8 secs

     total energy              =     -18.82291534 Ry
     Harris-Foulkes estimate   =     -39.44256407 Ry
     estimated scf accuracy    <      32.25125685 Ry

     iteration # 16     ecut=    30.00 Ry     beta=0.70
     Davidson diagonalization with overlap
     ethr =  1.00E-02,  avg # of iterations =  5.0

     negative rho (up, down):  2.286E-03 0.000E+00

     total cpu time spent up to now is        2.9 secs

     total energy              =     -31.94786964 Ry
     Harris-Foulkes estimate   =     -31.32897908 Ry
     estimated scf accuracy    <       3.33459197 Ry

     iteration # 17     ecut=    30.00 Ry     beta=0.70
     Davidson diagonalization with overlap
     ethr =  1.00E-02,  avg # of iterations =  1.0

     negative rho (up, down):  3.542E-03 0.000E+00

     total cpu time spent up to now is        2.9 secs

     total energy              =     -31.17077171 Ry
     Harris-Foulkes estimate   =     -32.00166281 Ry
     estimated scf accuracy    <       4.37987210 Ry

     iteration # 18     ecut=    30.00 Ry     beta=0.70
     Davidson diagonalization with overlap
     ethr =  1.00E-02,  avg # of iterations =  5.0

     negative rho (up, down):  3.175E-03 0.000E+00

     total cpu time spent up to now is        3.0 secs

     total energy              =     -31.49895299 Ry
     Harris-Foulkes estimate   =     -31.54034460 Ry
     estimated scf accuracy    <       1.27965151 Ry

     iteration # 19     ecut=    30.00 Ry     beta=0.70
     Davidson diagonalization with overlap
     ethr =  1.00E-02,  avg # of iterations =  1.0

     negative rho (up, down):  8.504E-03 0.000E+00

     total cpu time spent up to now is        3.0 secs

     total energy              =     -31.57121868 Ry
     Harris-Foulkes estimate   =     -31.50058026 Ry
     estimated scf accuracy    <       1.07103225 Ry

     iteration # 20     ecut=    30.00 Ry     beta=0.70
     Davidson diagonalization with overlap
     ethr =  1.00E-02,  avg # of iterations =  1.0

     negative rho (up, down):  4.873E-03 0.000E+00

     total cpu time spent up to now is        3.1 secs

     total energy              =     -31.32998014 Ry
     Harris-Foulkes estimate   =     -31.58144460 Ry
     estimated scf accuracy    <       1.23536406 Ry

     iteration # 21     ecut=    30.00 Ry     beta=0.70
     Davidson diagonalization with overlap
     ethr =  1.00E-02,  avg # of iterations =  1.0

     negative rho (up, down):  1.079E-03 0.000E+00

     total cpu time spent up to now is        3.1 secs

     total energy              =     -31.34259456 Ry
     Harris-Foulkes estimate   =     -31.49559565 Ry
     estimated scf accuracy    <       0.54303706 Ry

     iteration # 22     ecut=    30.00 Ry     beta=0.70
     Davidson diagonalization with overlap
     ethr =  6.79E-03,  avg # of iterations =  5.0

     negative rho (up, down):  2.486E-03 0.000E+00

     total cpu time spent up to now is        3.2 secs

     total energy              =     -31.37167071 Ry
     Harris-Foulkes estimate   =     -31.90104678 Ry
     estimated scf accuracy    <       2.44465533 Ry

     iteration # 23     ecut=    30.00 Ry     beta=0.70
     Davidson diagonalization with overlap
     ethr =  6.79E-03,  avg # of iterations =  2.0

     negative rho (up, down):  7.028E-05 0.000E+00

     total cpu time spent up to now is        3.2 secs

     total energy              =     -31.60612993 Ry
     Harris-Foulkes estimate   =     -31.75756856 Ry
     estimated scf accuracy    <       2.01141027 Ry

     iteration # 24     ecut=    30.00 Ry     beta=0.70
     Davidson diagonalization with overlap
     ethr =  6.79E-03,  avg # of iterations =  1.0

     negative rho (up, down):  5.905E-05 0.000E+00

     total cpu time spent up to now is        3.3 secs

     total energy              =     -31.57980394 Ry
     Harris-Foulkes estimate   =     -31.61465853 Ry
     estimated scf accuracy    <       1.46212415 Ry

     iteration # 25     ecut=    30.00 Ry     beta=0.70
     Davidson diagonalization with overlap
     ethr =  6.79E-03,  avg # of iterations =  1.0

     negative rho (up, down):  6.958E-05 0.000E+00

     total cpu time spent up to now is        3.3 secs

     total energy              =     -31.46377057 Ry
     Harris-Foulkes estimate   =     -31.58006256 Ry
     estimated scf accuracy    <       1.07213591 Ry

     iteration # 26     ecut=    30.00 Ry     beta=0.70
     Davidson diagonalization with overlap
     ethr =  6.79E-03,  avg # of iterations =  1.0

     negative rho (up, down):  5.481E-05 0.000E+00

     total cpu time spent up to now is        3.4 secs

     total energy              =     -31.54365871 Ry
     Harris-Foulkes estimate   =     -31.63356423 Ry
     estimated scf accuracy    <       1.54243923 Ry

     iteration # 27     ecut=    30.00 Ry     beta=0.70
     Davidson diagonalization with overlap
     ethr =  6.79E-03,  avg # of iterations =  1.0

     negative rho (up, down):  2.146E-05 0.000E+00

     total cpu time spent up to now is        3.4 secs

     total energy              =     -31.56083713 Ry
     Harris-Foulkes estimate   =     -31.56198731 Ry
     estimated scf accuracy    <       0.04794230 Ry

     iteration # 28     ecut=    30.00 Ry     beta=0.70
     Davidson diagonalization with overlap
     ethr =  5.99E-04,  avg # of iterations =  1.0

     negative rho (up, down):  2.549E-06 0.000E+00

     total cpu time spent up to now is        3.5 secs

     total energy              =     -31.53451739 Ry
     Harris-Foulkes estimate   =     -31.58546480 Ry
     estimated scf accuracy    <       1.40315752 Ry

     iteration # 29     ecut=    30.00 Ry     beta=0.70
     Davidson diagonalization with overlap
     ethr =  5.99E-04,  avg # of iterations =  1.0

     negative rho (up, down):  4.122E-07 0.000E+00

     total cpu time spent up to now is        3.5 secs

     total energy              =     -31.52222767 Ry
     Harris-Foulkes estimate   =     -31.56322894 Ry
     estimated scf accuracy    <       0.17409901 Ry

     iteration # 30     ecut=    30.00 Ry     beta=0.70
     Davidson diagonalization with overlap
     ethr =  5.99E-04,  avg # of iterations =  1.0

     negative rho (up, down):  4.627E-07 0.000E+00

     total cpu time spent up to now is        3.6 secs

     total energy              =     -31.65655419 Ry
     Harris-Foulkes estimate   =     -31.68789596 Ry
     estimated scf accuracy    <       1.64704933 Ry

     iteration # 31     ecut=    30.00 Ry     beta=0.70
     Davidson diagonalization with overlap
     ethr =  5.99E-04,  avg # of iterations =  1.0

     negative rho (up, down):  6.739E-07 0.000E+00

     total cpu time spent up to now is        3.6 secs

     total energy              =     -31.61431042 Ry
     Harris-Foulkes estimate   =     -31.65693510 Ry
     estimated scf accuracy    <       1.50000348 Ry

     iteration # 32     ecut=    30.00 Ry     beta=0.70
     Davidson diagonalization with overlap
     ethr =  5.99E-04,  avg # of iterations =  1.0

     negative rho (up, down):  4.606E-07 0.000E+00

     total cpu time spent up to now is        3.7 secs

     total energy              =     -31.58083972 Ry
     Harris-Foulkes estimate   =     -31.61513604 Ry
     estimated scf accuracy    <       1.42834520 Ry

     iteration # 33     ecut=    30.00 Ry     beta=0.70
     Davidson diagonalization with overlap
     ethr =  5.99E-04,  avg # of iterations =  1.0

     negative rho (up, down):  6.986E-07 0.000E+00

     total cpu time spent up to now is        3.7 secs

     total energy              =     -31.56653679 Ry
     Harris-Foulkes estimate   =     -31.57896431 Ry
     estimated scf accuracy    <       1.44845938 Ry

     iteration # 34     ecut=    30.00 Ry     beta=0.70
     Davidson diagonalization with overlap
     ethr =  5.99E-04,  avg # of iterations =  1.0

     negative rho (up, down):  2.327E-07 0.000E+00

     total cpu time spent up to now is        3.8 secs

     total energy              =     -31.56064335 Ry
     Harris-Foulkes estimate   =     -31.56768748 Ry
     estimated scf accuracy    <       0.89127290 Ry

     iteration # 35     ecut=    30.00 Ry     beta=0.70
     Davidson diagonalization with overlap
     ethr =  5.99E-04,  avg # of iterations =  1.0

     negative rho (up, down):  8.055E-08 0.000E+00

     total cpu time spent up to now is        3.8 secs

     total energy              =     -31.55278780 Ry
     Harris-Foulkes estimate   =     -31.56156574 Ry
     estimated scf accuracy    <       0.47996975 Ry

     iteration # 36     ecut=    30.00 Ry     beta=0.70
     Davidson diagonalization with overlap
     ethr =  5.99E-04,  avg # of iterations =  1.0

     negative rho (up, down):  5.413E-08 0.000E+00

     total cpu time spent up to now is        3.9 secs

     total energy              =     -31.55522018 Ry
     Harris-Foulkes estimate   =     -31.55626145 Ry
     estimated scf accuracy    <       0.02136338 Ry

     iteration # 37     ecut=    30.00 Ry     beta=0.70
     Davidson diagonalization with overlap
     ethr =  2.67E-04,  avg # of iterations =  1.0

     total cpu time spent up to now is        3.9 secs

     total energy              =     -31.55606997 Ry
     Harris-Foulkes estimate   =     -31.55600051 Ry
     estimated scf accuracy    <       0.00847849 Ry

     iteration # 38     ecut=    30.00 Ry     beta=0.70
     Davidson diagonalization with overlap
     ethr =  1.06E-04,  avg # of iterations =  1.0

     total cpu time spent up to now is        4.0 secs

     total energy              =     -31.55593041 Ry
     Harris-Foulkes estimate   =     -31.55608258 Ry
     estimated scf accuracy    <       0.01423259 Ry

     iteration # 39     ecut=    30.00 Ry     beta=0.70
     Davidson diagonalization with overlap
     ethr =  1.06E-04,  avg # of iterations =  1.0

     total cpu time spent up to now is        4.0 secs

     total energy              =     -31.55589570 Ry
     Harris-Foulkes estimate   =     -31.55596264 Ry
     estimated scf accuracy    <       0.00599581 Ry

     iteration # 40     ecut=    30.00 Ry     beta=0.70
     Davidson diagonalization with overlap
     ethr =  7.49E-05,  avg # of iterations =  1.0

     total cpu time spent up to now is        4.1 secs

     total energy              =     -31.55591382 Ry
     Harris-Foulkes estimate   =     -31.55591058 Ry
     estimated scf accuracy    <       0.00194859 Ry

     iteration # 41     ecut=    30.00 Ry     beta=0.70
     Davidson diagonalization with overlap
     ethr =  2.44E-05,  avg # of iterations =  1.0

     total cpu time spent up to now is        4.1 secs

     total energy              =     -31.55586386 Ry
     Harris-Foulkes estimate   =     -31.55591622 Ry
     estimated scf accuracy    <       0.00224270 Ry

     iteration # 42     ecut=    30.00 Ry     beta=0.70
     Davidson diagonalization with overlap
     ethr =  2.44E-05,  avg # of iterations =  1.0

     total cpu time spent up to now is        4.2 secs

     total energy              =     -31.55588683 Ry
     Harris-Foulkes estimate   =     -31.55588796 Ry
     estimated scf accuracy    <       0.00001205 Ry

     iteration # 43     ecut=    30.00 Ry     beta=0.70
     Davidson diagonalization with overlap
     ethr =  1.51E-07,  avg # of iterations = 18.0

     total cpu time spent up to now is        4.2 secs

     total energy              =     -31.55588740 Ry
     Harris-Foulkes estimate   =     -31.55588732 Ry
     estimated scf accuracy    <       0.00000038 Ry

     iteration # 44     ecut=    30.00 Ry     beta=0.70
     Davidson diagonalization with overlap
     ethr =  4.80E-09,  avg # of iterations =  1.0

     total cpu time spent up to now is        4.3 secs

     total energy              =     -31.55588742 Ry
     Harris-Foulkes estimate   =     -31.55588741 Ry
     estimated scf accuracy    <       0.00000002 Ry

     iteration # 45     ecut=    30.00 Ry     beta=0.70
     Davidson diagonalization with overlap
     ethr =  3.09E-10,  avg # of iterations =  1.0

     total cpu time spent up to now is        4.3 secs

     End of self-consistent calculation

          k = 0.0000 0.0000 0.0000 ( 22119 PWs)   bands (ev):

   -23.6821  -7.7215  -7.0146  -7.0136  -6.8914  -6.4851  -0.1529   0.7478

     the Fermi energy is    -6.8543 ev

!    total energy              =     -31.55588744 Ry
     Harris-Foulkes estimate   =     -31.55588742 Ry
     estimated scf accuracy    <          9.5E-10 Ry

     convergence has been achieved in  45 iterations

     Forces acting on atoms (Ry/au):

     atom    1 type  2   force =    -0.04464192    0.01503582   -0.03637786
     atom    2 type  1   force =     0.00038315   -0.00000466   -0.00014529
     atom    3 type  1   force =     0.04425877   -0.01503116    0.03652315

     Total force =     0.084031     Total SCF correction =     0.000018

     Entering Dynamics:    iteration =     2
                           time      =   0.0097 pico-seconds


     Andersen thermostat:    3 collisions

ATOMIC_POSITIONS (bohr)
O       16.641355415   0.036200782   9.289683415
H        8.928570647   5.437558975   0.556182968
H       13.515230144   0.733106384   6.234976254


     kinetic energy (Ekin) =     0.03254827 Ry
     temperature           =  1712.98649553 K 
     Ekin + Etot (const)   =   -31.52333917 Ry
     Message from routine dynamics:
     Total linear momentum <> 0

     Linear momentum :    0.2501776358    0.1251194036   -0.0426108883

     Writing output data file pwscf.save

     first order wave-functions extrapolation
     Check: negative starting charge=   -0.345104
     first order charge density extrapolation
     Check: negative starting charge=   -0.345136

     negative rho (up, down):  4.694E-01 0.000E+00

     total cpu time spent up to now is        4.8 secs

     per-process dynamical memory:    20.4 Mb

     Self-consistent Calculation

     iteration #  1     ecut=    30.00 Ry     beta=0.70
     Davidson diagonalization with overlap
     ethr =  1.00E-06,  avg # of iterations = 16.0

     negative rho (up, down):  1.194E-01 0.000E+00

     total cpu time spent up to now is        5.0 secs

     total energy              =       7.48358128 Ry
     Harris-Foulkes estimate   =     -53.08640426 Ry
     estimated scf accuracy    <      12.79528929 Ry

     iteration #  2     ecut=    30.00 Ry     beta=0.70
     Davidson diagonalization with overlap
     ethr =  1.00E-02,  avg # of iterations =  5.0

     negative rho (up, down):  7.526E-02 0.000E+00

     total cpu time spent up to now is        5.1 secs

     total energy              =     -33.06147274 Ry
     Harris-Foulkes estimate   =     -38.94599393 Ry
     estimated scf accuracy    <      12.35172872 Ry

     iteration #  3     ecut=    30.00 Ry     beta=0.70
     Davidson diagonalization with overlap
     ethr =  1.00E-02,  avg # of iterations =  2.0

     negative rho (up, down):  6.876E-02 0.000E+00

     total cpu time spent up to now is        5.1 secs

     total energy              =     -32.71884128 Ry
     Harris-Foulkes estimate   =     -33.72453570 Ry
     estimated scf accuracy    <       6.51314311 Ry

     iteration #  4     ecut=    30.00 Ry     beta=0.70
     Davidson diagonalization with overlap
     ethr =  1.00E-02,  avg # of iterations =  1.0

     negative rho (up, down):  4.241E-02 0.000E+00

     total cpu time spent up to now is        5.2 secs

     total energy              =     -31.76241293 Ry
     Harris-Foulkes estimate   =     -33.13274467 Ry
     estimated scf accuracy    <       3.99900321 Ry

     iteration #  5     ecut=    30.00 Ry     beta=0.70
     Davidson diagonalization with overlap
     ethr =  1.00E-02,  avg # of iterations =  3.0

     negative rho (up, down):  2.791E-02 0.000E+00

     total cpu time spent up to now is        5.2 secs

     total energy              =     -31.55464869 Ry
     Harris-Foulkes estimate   =     -31.87988689 Ry
     estimated scf accuracy    <       2.11015235 Ry

     iteration #  6     ecut=    30.00 Ry     beta=0.70
     Davidson diagonalization with overlap
     ethr =  1.00E-02,  avg # of iterations =  1.0

     negative rho (up, down):  2.675E-02 0.000E+00

     total cpu time spent up to now is        5.3 secs

     total energy              =     -31.59514881 Ry
     Harris-Foulkes estimate   =     -31.67357777 Ry
     estimated scf accuracy    <       1.92922693 Ry

     iteration #  7     ecut=    30.00 Ry     beta=0.70
     Davidson diagonalization with overlap
     ethr =  1.00E-02,  avg # of iterations =  1.0

     negative rho (up, down):  2.071E-02 0.000E+00

     total cpu time spent up to now is        5.3 secs

     total energy              =     -31.59789528 Ry
     Harris-Foulkes estimate   =     -31.68781276 Ry
     estimated scf accuracy    <       1.30893055 Ry

     iteration #  8     ecut=    30.00 Ry     beta=0.70
     Davidson diagonalization with overlap
     ethr =  1.00E-02,  avg # of iterations =  1.0

     negative rho (up, down):  1.765E-02 0.000E+00

     total cpu time spent up to now is        5.4 secs

     total energy              =     -31.58951018 Ry
     Harris-Foulkes estimate   =     -31.61216591 Ry
     estimated scf accuracy    <       0.44116298 Ry

     iteration #  9     ecut=    30.00 Ry     beta=0.70
     Davidson diagonalization with overlap
     ethr =  5.51E-03,  avg # of iterations =  1.0

     negative rho (up, down):  9.809E-03 0.000E+00

     total cpu time spent up to now is        5.4 secs

     total energy              =     -31.58210756 Ry
     Harris-Foulkes estimate   =     -31.59906565 Ry
     estimated scf accuracy    <       0.37046212 Ry

     iteration # 10     ecut=    30.00 Ry     beta=0.70
     Davidson diagonalization with overlap
     ethr =  4.63E-03,  avg # of iterations =  1.0

     negative rho (up, down):  1.030E-04 0.000E+00

     total cpu time spent up to now is        5.5 secs

     total energy              =     -31.80144973 Ry
     Harris-Foulkes estimate   =     -31.62534352 Ry
     estimated scf accuracy    <       2.22684855 Ry

     iteration # 11     ecut=    30.00 Ry     beta=0.70
     Davidson diagonalization with overlap
     ethr =  4.63E-03,  avg # of iterations =  1.0

     negative rho (up, down):  7.708E-05 0.000E+00

     total cpu time spent up to now is        5.5 secs

     total energy              =     -31.93299743 Ry
     Harris-Foulkes estimate   =     -31.85299902 Ry
     estimated scf accuracy    <       3.52920318 Ry

     iteration # 12     ecut=    30.00 Ry     beta=0.70
     Davidson diagonalization with overlap
     ethr =  4.63E-03,  avg # of iterations =  1.0

     negative rho (up, down):  2.329E-04 0.000E+00

     total cpu time spent up to now is        5.6 secs

     total energy              =     -31.26604306 Ry
     Harris-Foulkes estimate   =     -31.93427307 Ry
     estimated scf accuracy    <       3.79238009 Ry

     iteration # 13     ecut=    30.00 Ry     beta=0.70
     Davidson diagonalization with overlap
     ethr =  4.63E-03,  avg # of iterations =  1.0

     negative rho (up, down):  6.040E-05 0.000E+00

     total cpu time spent up to now is        5.6 secs

     total energy              =     -31.75757979 Ry
     Harris-Foulkes estimate   =     -31.73854448 Ry
     estimated scf accuracy    <       1.70093069 Ry

     iteration # 14     ecut=    30.00 Ry     beta=0.70
     Davidson diagonalization with overlap
     ethr =  4.63E-03,  avg # of iterations =  1.0

     negative rho (up, down):  1.546E-05 0.000E+00

     total cpu time spent up to now is        5.7 secs

     total energy              =     -31.74113466 Ry
     Harris-Foulkes estimate   =     -31.75843184 Ry
     estimated scf accuracy    <       1.66986583 Ry

     iteration # 15     ecut=    30.00 Ry     beta=0.70
     Davidson diagonalization with overlap
     ethr =  4.63E-03,  avg # of iterations =  1.0

     negative rho (up, down):  1.043E-05 0.000E+00

     total cpu time spent up to now is        5.7 secs

     total energy              =     -31.71985786 Ry
     Harris-Foulkes estimate   =     -31.74333644 Ry
     estimated scf accuracy    <       1.41840237 Ry

     iteration # 16     ecut=    30.00 Ry     beta=0.70
     Davidson diagonalization with overlap
     ethr =  4.63E-03,  avg # of iterations =  1.0

     negative rho (up, down):  2.023E-06 0.000E+00

     total cpu time spent up to now is        5.8 secs

     total energy              =     -31.62427622 Ry
     Harris-Foulkes estimate   =     -31.71996740 Ry
     estimated scf accuracy    <       1.34694903 Ry

     iteration # 17     ecut=    30.00 Ry     beta=0.70
     Davidson diagonalization with overlap
     ethr =  4.63E-03,  avg # of iterations =  1.0

     negative rho (up, down):  9.699E-05 0.000E+00

     total cpu time spent up to now is        5.8 secs

     total energy              =     -31.87789751 Ry
     Harris-Foulkes estimate   =     -31.62777928 Ry
     estimated scf accuracy    <       0.97115528 Ry

     iteration # 18     ecut=    30.00 Ry     beta=0.70
     Davidson diagonalization with overlap
     ethr =  4.63E-03,  avg # of iterations =  1.0

     negative rho (up, down):  1.913E-04 0.000E+00

     total cpu time spent up to now is        5.9 secs

     total energy              =     -31.87447558 Ry
     Harris-Foulkes estimate   =     -31.88565237 Ry
     estimated scf accuracy    <       1.55956810 Ry

     iteration # 19     ecut=    30.00 Ry     beta=0.70
     Davidson diagonalization with overlap
     ethr =  4.63E-03,  avg # of iterations =  1.0

     negative rho (up, down):  1.557E-04 0.000E+00

     total cpu time spent up to now is        5.9 secs

     total energy              =     -31.83765749 Ry
     Harris-Foulkes estimate   =     -31.88618555 Ry
     estimated scf accuracy    <       2.07508062 Ry

     iteration # 20     ecut=    30.00 Ry     beta=0.70
     Davidson diagonalization with overlap
     ethr =  4.63E-03,  avg # of iterations =  1.0

     negative rho (up, down):  6.788E-07 0.000E+00

     total cpu time spent up to now is        6.0 secs

     total energy              =     -31.28697316 Ry
     Harris-Foulkes estimate   =     -31.83797158 Ry
     estimated scf accuracy    <       2.01751927 Ry

     iteration # 21     ecut=    30.00 Ry     beta=0.70
     Davidson diagonalization with overlap
     ethr =  4.63E-03,  avg # of iterations =  2.0

     negative rho (up, down):  4.305E-07 0.000E+00

     total cpu time spent up to now is        6.0 secs

     total energy              =     -31.65781124 Ry
     Harris-Foulkes estimate   =     -31.97234566 Ry
     estimated scf accuracy    <       1.84235115 Ry

     iteration # 22     ecut=    30.00 Ry     beta=0.70
     Davidson diagonalization with overlap
     ethr =  4.63E-03,  avg # of iterations =  1.0

     total cpu time spent up to now is        6.1 secs

     total energy              =     -31.64341592 Ry
     Harris-Foulkes estimate   =     -31.66701986 Ry
     estimated scf accuracy    <       1.41725974 Ry

     iteration # 23     ecut=    30.00 Ry     beta=0.70
     Davidson diagonalization with overlap
     ethr =  4.63E-03,  avg # of iterations =  1.0

     negative rho (up, down):  1.546E-08 0.000E+00

     total cpu time spent up to now is        6.1 secs

     total energy              =     -31.64199703 Ry
     Harris-Foulkes estimate   =     -31.64376543 Ry
     estimated scf accuracy    <       1.47943148 Ry

     iteration # 24     ecut=    30.00 Ry     beta=0.70
     Davidson diagonalization with overlap
     ethr =  4.63E-03,  avg # of iterations =  1.0

     negative rho (up, down):  4.305E-07 0.000E+00

     total cpu time spent up to now is        6.2 secs

     total energy              =     -31.62167735 Ry
     Harris-Foulkes estimate   =     -31.64201182 Ry
     estimated scf accuracy    <       1.50312086 Ry

     iteration # 25     ecut=    30.00 Ry     beta=0.70
     Davidson diagonalization with overlap
     ethr =  4.63E-03,  avg # of iterations =  1.0

     negative rho (up, down):  5.772E-07 0.000E+00

     total cpu time spent up to now is        6.2 secs

     total energy              =     -31.65726720 Ry
     Harris-Foulkes estimate   =     -31.62105144 Ry
     estimated scf accuracy    <       1.54089913 Ry

     iteration # 26     ecut=    30.00 Ry     beta=0.70
     Davidson diagonalization with overlap
     ethr =  4.63E-03,  avg # of iterations =  1.0

     negative rho (up, down):  4.114E-06 0.000E+00

     total cpu time spent up to now is        6.2 secs

     total energy              =     -31.65195403 Ry
     Harris-Foulkes estimate   =     -31.65678532 Ry
     estimated scf accuracy    <       1.33016733 Ry

     iteration # 27     ecut=    30.00 Ry     beta=0.70
     Davidson diagonalization with overlap
     ethr =  4.63E-03,  avg # of iterations =  1.0

     negative rho (up, down):  5.431E-07 0.000E+00

     total cpu time spent up to now is        6.3 secs

     total energy              =     -31.64528301 Ry
     Harris-Foulkes estimate   =     -31.65195638 Ry
     estimated scf accuracy    <       1.35314732 Ry

     iteration # 28     ecut=    30.00 Ry     beta=0.70
     Davidson diagonalization with overlap
     ethr =  4.63E-03,  avg # of iterations =  1.0

     negative rho (up, down):  3.032E-07 0.000E+00

     total cpu time spent up to now is        6.3 secs

     total energy              =     -31.59993424 Ry
     Harris-Foulkes estimate   =     -31.64528062 Ry
     estimated scf accuracy    <       1.40276174 Ry

     iteration # 29     ecut=    30.00 Ry     beta=0.70
     Davidson diagonalization with overlap
     ethr =  4.63E-03,  avg # of iterations =  1.0

     total cpu time spent up to now is        6.4 secs

     total energy              =     -31.62185713 Ry
     Harris-Foulkes estimate   =     -31.60207489 Ry
     estimated scf accuracy    <       0.48769700 Ry

     iteration # 30     ecut=    30.00 Ry     beta=0.70
     Davidson diagonalization with overlap
     ethr =  4.63E-03,  avg # of iterations =  1.0

     total cpu time spent up to now is        6.4 secs

     total energy              =     -31.53605136 Ry
     Harris-Foulkes estimate   =     -31.63261286 Ry
     estimated scf accuracy    <       1.61304099 Ry

     iteration # 31     ecut=    30.00 Ry     beta=0.70
     Davidson diagonalization with overlap
     ethr =  4.63E-03,  avg # of iterations =  1.0

     total cpu time spent up to now is        6.5 secs

     total energy              =     -31.57071352 Ry
     Harris-Foulkes estimate   =     -31.61208800 Ry
     estimated scf accuracy    <       0.78117051 Ry

     iteration # 32     ecut=    30.00 Ry     beta=0.70
     Davidson diagonalization with overlap
     ethr =  4.63E-03,  avg # of iterations =  1.0

     total cpu time spent up to now is        6.5 secs

     total energy              =     -31.59852499 Ry
     Harris-Foulkes estimate   =     -31.60037752 Ry
     estimated scf accuracy    <       0.41057494 Ry

     iteration # 33     ecut=    30.00 Ry     beta=0.70
     Davidson diagonalization with overlap
     ethr =  4.63E-03,  avg # of iterations =  1.0

     total cpu time spent up to now is        6.6 secs

     total energy              =     -31.59061065 Ry
     Harris-Foulkes estimate   =     -31.59869718 Ry
     estimated scf accuracy    <       0.27593530 Ry

     iteration # 34     ecut=    30.00 Ry     beta=0.70
     Davidson diagonalization with overlap
     ethr =  3.45E-03,  avg # of iterations =  1.0

     total cpu time spent up to now is        6.6 secs

     total energy              =     -31.59527446 Ry
     Harris-Foulkes estimate   =     -31.59553205 Ry
     estimated scf accuracy    <       0.01263125 Ry

     iteration # 35     ecut=    30.00 Ry     beta=0.70
     Davidson diagonalization with overlap
     ethr =  1.58E-04,  avg # of iterations =  1.0

     total cpu time spent up to now is        6.7 secs

     total energy              =     -31.59536313 Ry
     Harris-Foulkes estimate   =     -31.59537617 Ry
     estimated scf accuracy    <       0.00050160 Ry

     iteration # 36     ecut=    30.00 Ry     beta=0.70
     Davidson diagonalization with overlap
     ethr =  6.27E-06,  avg # of iterations =  8.0

     total cpu time spent up to now is        6.7 secs

     total energy              =     -31.59536961 Ry
     Harris-Foulkes estimate   =     -31.59536966 Ry
     estimated scf accuracy    <       0.00000034 Ry

     iteration # 37     ecut=    30.00 Ry     beta=0.70
     Davidson diagonalization with overlap
     ethr =  4.23E-09,  avg # of iterations =  8.0

     total cpu time spent up to now is        6.8 secs

     total energy              =     -31.59536921 Ry
     Harris-Foulkes estimate   =     -31.59536989 Ry
     estimated scf accuracy    <       0.00002756 Ry

     iteration # 38     ecut=    30.00 Ry     beta=0.70
     Davidson diagonalization with overlap
     ethr =  4.23E-09,  avg # of iterations =  1.0

     total cpu time spent up to now is        6.8 secs

     total energy              =     -31.59536955 Ry
     Harris-Foulkes estimate   =     -31.59536957 Ry
     estimated scf accuracy    <       0.00000005 Ry

     iteration # 39     ecut=    30.00 Ry     beta=0.70
     Davidson diagonalization with overlap
     ethr =  5.95E-10,  avg # of iterations =  1.0

     total cpu time spent up to now is        6.9 secs

     total energy              =     -31.59536952 Ry
     Harris-Foulkes estimate   =     -31.59536955 Ry
     estimated scf accuracy    <       0.00000006 Ry

     iteration # 40     ecut=    30.00 Ry     beta=0.70
     Davidson diagonalization with overlap
     ethr =  5.95E-10,  avg # of iterations =  1.0

     total cpu time spent up to now is        6.9 secs

     total energy              =     -31.59536952 Ry
     Harris-Foulkes estimate   =     -31.59536952 Ry
     estimated scf accuracy    <       0.00000002 Ry

     iteration # 41     ecut=    30.00 Ry     beta=0.70
     Davidson diagonalization with overlap
     ethr =  2.11E-10,  avg # of iterations =  1.0

     total cpu time spent up to now is        7.0 secs

     End of self-consistent calculation

          k = 0.0000 0.0000 0.0000 ( 22119 PWs)   bands (ev):

   -23.6493  -7.9847  -6.9671  -6.9662  -6.8347  -6.1210  -0.1415   0.7991

     the Fermi energy is    -6.7989 ev

!    total energy              =     -31.59536952 Ry
     Harris-Foulkes estimate   =     -31.59536952 Ry
     estimated scf accuracy    <          5.2E-11 Ry

     convergence has been achieved in  41 iterations

     Forces acting on atoms (Ry/au):

     atom    1 type  2   force =    -0.06432517    0.01503606   -0.06218812
     atom    2 type  1   force =     0.00017204   -0.00038467   -0.00018524
     atom    3 type  1   force =     0.06415313   -0.01465139    0.06237336

     Total force =     0.128266     Total SCF correction =     0.000001

     Entering Dynamics:    iteration =     3
                           time      =   0.0145 pico-seconds


     Andersen thermostat:    3 collisions

ATOMIC_POSITIONS (bohr)
O       16.530823108   0.045755154   9.235452457
H        9.434626646   5.564420213   0.622034857
H       14.760180996   0.454888760   7.028228649


     kinetic energy (Ekin) =     0.06763122 Ry
     temperature           =  3559.37070669 K 
     Ekin + Etot (const)   =   -31.52773831 Ry
     Message from routine dynamics:
     Total linear momentum <> 0

     Linear momentum :   -0.0809086028    0.0144332266   -0.0213688057

     Writing output data file pwscf.save

     second order wave-functions extrapolation
     Check: negative starting charge=   -0.345136
     second order charge density extrapolation
     Check: negative starting charge=   -0.347567

     negative rho (up, down):  3.209E-01 0.000E+00

     total cpu time spent up to now is        7.5 secs

     per-process dynamical memory:    20.4 Mb

     Self-consistent Calculation

     iteration #  1     ecut=    30.00 Ry     beta=0.70
     Davidson diagonalization with overlap
     c_bands:  1 eigenvalues not converged
     ethr =  1.00E-06,  avg # of iterations = 20.0

     negative rho (up, down):  7.664E-02 0.000E+00

     total cpu time spent up to now is        7.7 secs

     total energy              =      -8.62152064 Ry
     Harris-Foulkes estimate   =     -44.36153247 Ry
     estimated scf accuracy    <      10.05902775 Ry

     iteration #  2     ecut=    30.00 Ry     beta=0.70
     Davidson diagonalization with overlap
     ethr =  1.00E-02,  avg # of iterations =  3.0

     negative rho (up, down):  5.214E-02 0.000E+00

     total cpu time spent up to now is        7.7 secs

     total energy              =     -33.18639358 Ry
     Harris-Foulkes estimate   =     -40.22866705 Ry
     estimated scf accuracy    <      15.14192699 Ry

     iteration #  3     ecut=    30.00 Ry     beta=0.70
     Davidson diagonalization with overlap
     ethr =  1.00E-02,  avg # of iterations =  2.0

     negative rho (up, down):  3.502E-02 0.000E+00

     total cpu time spent up to now is        7.8 secs

     total energy              =     -32.09076008 Ry
     Harris-Foulkes estimate   =     -33.74337410 Ry
     estimated scf accuracy    <       4.55679404 Ry

     iteration #  4     ecut=    30.00 Ry     beta=0.70
     Davidson diagonalization with overlap
     ethr =  1.00E-02,  avg # of iterations =  2.0

     negative rho (up, down):  1.896E-02 0.000E+00

     total cpu time spent up to now is        7.8 secs

     total energy              =     -31.52491922 Ry
     Harris-Foulkes estimate   =     -32.15377127 Ry
     estimated scf accuracy    <       1.86772775 Ry

     iteration #  5     ecut=    30.00 Ry     beta=0.70
     Davidson diagonalization with overlap
     ethr =  1.00E-02,  avg # of iterations =  1.0

     negative rho (up, down):  1.971E-03 0.000E+00

     total cpu time spent up to now is        7.9 secs

     total energy              =     -31.17342622 Ry
     Harris-Foulkes estimate   =     -31.54578039 Ry
     estimated scf accuracy    <       0.75442113 Ry

     iteration #  6     ecut=    30.00 Ry     beta=0.70
     Davidson diagonalization with overlap
     ethr =  9.43E-03,  avg # of iterations =  5.0

     negative rho (up, down):  3.135E-03 0.000E+00

     total cpu time spent up to now is        7.9 secs

     total energy              =     -31.95771332 Ry
     Harris-Foulkes estimate   =     -33.40172857 Ry
     estimated scf accuracy    <      11.02376510 Ry

     iteration #  7     ecut=    30.00 Ry     beta=0.70
     Davidson diagonalization with overlap
     ethr =  9.43E-03,  avg # of iterations =  2.0

     negative rho (up, down):  1.478E-02 0.000E+00

     total cpu time spent up to now is        8.0 secs

     total energy              =     -32.31611849 Ry
     Harris-Foulkes estimate   =     -32.48870817 Ry
     estimated scf accuracy    <       2.32883960 Ry

     iteration #  8     ecut=    30.00 Ry     beta=0.70
     Davidson diagonalization with overlap
     ethr =  9.43E-03,  avg # of iterations =  1.0

     negative rho (up, down):  6.722E-03 0.000E+00

     total cpu time spent up to now is        8.0 secs

     total energy              =     -32.41374690 Ry
     Harris-Foulkes estimate   =     -32.32028622 Ry
     estimated scf accuracy    <       2.03396825 Ry

     iteration #  9     ecut=    30.00 Ry     beta=0.70
     Davidson diagonalization with overlap
     ethr =  9.43E-03,  avg # of iterations =  1.0

     negative rho (up, down):  3.084E-02 0.000E+00

     total cpu time spent up to now is        8.1 secs

     total energy              =     -32.31622498 Ry
     Harris-Foulkes estimate   =     -32.41466996 Ry
     estimated scf accuracy    <       2.19189875 Ry

     iteration # 10     ecut=    30.00 Ry     beta=0.70
     Davidson diagonalization with overlap
     ethr =  9.43E-03,  avg # of iterations =  1.0

     negative rho (up, down):  2.338E-01 0.000E+00

     total cpu time spent up to now is        8.2 secs

     total energy              =     -32.71254402 Ry
     Harris-Foulkes estimate   =     -32.31705276 Ry
     estimated scf accuracy    <       2.01337428 Ry

     iteration # 11     ecut=    30.00 Ry     beta=0.70
     Davidson diagonalization with overlap
     ethr =  9.43E-03,  avg # of iterations =  1.0

     negative rho (up, down):  1.161E+00 0.000E+00

     total cpu time spent up to now is        8.2 secs

     total energy              =     -37.11592770 Ry
     Harris-Foulkes estimate   =     -32.75446945 Ry
     estimated scf accuracy    <       3.02106004 Ry

     iteration # 12     ecut=    30.00 Ry     beta=0.70
     Davidson diagonalization with overlap
     ethr =  9.43E-03,  avg # of iterations =  6.0

     negative rho (up, down):  1.087E+00 0.000E+00

     total cpu time spent up to now is        8.3 secs

     total energy              =     -40.44536154 Ry
     Harris-Foulkes estimate   =     -41.20413052 Ry
     estimated scf accuracy    <      39.04220059 Ry

     iteration # 13     ecut=    30.00 Ry     beta=0.70
     Davidson diagonalization with overlap
     ethr =  9.43E-03,  avg # of iterations =  1.0

     negative rho (up, down):  9.975E-01 0.000E+00

     total cpu time spent up to now is        8.3 secs

     total energy              =     -39.89915186 Ry
     Harris-Foulkes estimate   =     -40.49296481 Ry
     estimated scf accuracy    <      33.62431584 Ry

     iteration # 14     ecut=    30.00 Ry     beta=0.70
     Davidson diagonalization with overlap
     ethr =  9.43E-03,  avg # of iterations =  1.0

     negative rho (up, down):  7.286E-01 0.000E+00

     total cpu time spent up to now is        8.4 secs

     total energy              =     -28.77731204 Ry
     Harris-Foulkes estimate   =     -39.93525093 Ry
     estimated scf accuracy    <      32.49728368 Ry

     iteration # 15     ecut=    30.00 Ry     beta=0.70
     Davidson diagonalization with overlap
     ethr =  9.43E-03,  avg # of iterations =  6.0

     negative rho (up, down):  5.056E-01 0.000E+00

     total cpu time spent up to now is        8.5 secs

     total energy              =     -31.70836386 Ry
     Harris-Foulkes estimate   =     -31.81893167 Ry
     estimated scf accuracy    <       7.70980751 Ry

     iteration # 16     ecut=    30.00 Ry     beta=0.70
     Davidson diagonalization with overlap
     ethr =  9.43E-03,  avg # of iterations =  1.0

     negative rho (up, down):  4.181E-01 0.000E+00

     total cpu time spent up to now is        8.5 secs

     total energy              =     -30.50480262 Ry
     Harris-Foulkes estimate   =     -31.72669564 Ry
     estimated scf accuracy    <       7.18619474 Ry

     iteration # 17     ecut=    30.00 Ry     beta=0.70
     Davidson diagonalization with overlap
     ethr =  9.43E-03,  avg # of iterations =  3.0

     negative rho (up, down):  2.641E-01 0.000E+00

     total cpu time spent up to now is        8.6 secs

     total energy              =     -30.77037326 Ry
     Harris-Foulkes estimate   =     -30.81285206 Ry
     estimated scf accuracy    <       2.55436872 Ry

     iteration # 18     ecut=    30.00 Ry     beta=0.70
     Davidson diagonalization with overlap
     ethr =  9.43E-03,  avg # of iterations =  1.0

     negative rho (up, down):  3.324E-01 0.000E+00

     total cpu time spent up to now is        8.8 secs

     total energy              =     -31.09472706 Ry
     Harris-Foulkes estimate   =     -30.77932583 Ry
     estimated scf accuracy    <       2.48758653 Ry

     iteration # 19     ecut=    30.00 Ry     beta=0.70
     Davidson diagonalization with overlap
     ethr =  9.43E-03,  avg # of iterations =  2.0

     negative rho (up, down):  3.695E-01 0.000E+00

     total cpu time spent up to now is        8.9 secs

     total energy              =     -30.93516232 Ry
     Harris-Foulkes estimate   =     -31.26566560 Ry
     estimated scf accuracy    <       4.03547560 Ry

     iteration # 20     ecut=    30.00 Ry     beta=0.70
     Davidson diagonalization with overlap
     ethr =  9.43E-03,  avg # of iterations =  3.0

     negative rho (up, down):  3.106E-01 0.000E+00

     total cpu time spent up to now is        8.9 secs

     total energy              =     -30.39399334 Ry
     Harris-Foulkes estimate   =     -31.18695664 Ry
     estimated scf accuracy    <       3.30195360 Ry

     iteration # 21     ecut=    30.00 Ry     beta=0.70
     Davidson diagonalization with overlap
     ethr =  9.43E-03,  avg # of iterations =  2.0

     negative rho (up, down):  6.242E-01 0.000E+00

     total cpu time spent up to now is        9.0 secs

     total energy              =     -29.32312590 Ry
     Harris-Foulkes estimate   =     -30.65281557 Ry
     estimated scf accuracy    <       2.53767615 Ry

     iteration # 22     ecut=    30.00 Ry     beta=0.70
     Davidson diagonalization with overlap
     ethr =  9.43E-03,  avg # of iterations =  5.0

     negative rho (up, down):  4.559E-01 0.000E+00

     total cpu time spent up to now is        9.0 secs

     total energy              =     -31.41171509 Ry
     Harris-Foulkes estimate   =     -32.02884544 Ry
     estimated scf accuracy    <       1.81415620 Ry

     iteration # 23     ecut=    30.00 Ry     beta=0.70
     Davidson diagonalization with overlap
     ethr =  9.43E-03,  avg # of iterations =  5.0

     negative rho (up, down):  3.470E-01 0.000E+00

     total cpu time spent up to now is        9.1 secs

     total energy              =     -32.89480777 Ry
     Harris-Foulkes estimate   =     -33.61313945 Ry
     estimated scf accuracy    <       5.11136615 Ry

     iteration # 24     ecut=    30.00 Ry     beta=0.70
     Davidson diagonalization with overlap
     ethr =  9.43E-03,  avg # of iterations =  1.0

     negative rho (up, down):  3.008E-01 0.000E+00

     total cpu time spent up to now is        9.1 secs

     total energy              =     -32.50800493 Ry
     Harris-Foulkes estimate   =     -32.91902146 Ry
     estimated scf accuracy    <       3.65336413 Ry

     iteration # 25     ecut=    30.00 Ry     beta=0.70
     Davidson diagonalization with overlap
     ethr =  9.43E-03,  avg # of iterations =  1.0

     negative rho (up, down):  1.580E-01 0.000E+00

     total cpu time spent up to now is        9.2 secs

     total energy              =     -31.82743015 Ry
     Harris-Foulkes estimate   =     -32.51651920 Ry
     estimated scf accuracy    <       2.81669161 Ry

     iteration # 26     ecut=    30.00 Ry     beta=0.70
     Davidson diagonalization with overlap
     ethr =  9.43E-03,  avg # of iterations =  1.0

     negative rho (up, down):  1.323E-01 0.000E+00

     total cpu time spent up to now is        9.2 secs

     total energy              =     -31.82142045 Ry
     Harris-Foulkes estimate   =     -31.87256280 Ry
     estimated scf accuracy    <       0.23209441 Ry

     iteration # 27     ecut=    30.00 Ry     beta=0.70
     Davidson diagonalization with overlap
     ethr =  2.90E-03,  avg # of iterations =  1.0

     negative rho (up, down):  1.465E-02 0.000E+00

     total cpu time spent up to now is        9.3 secs

     total energy              =     -31.62132253 Ry
     Harris-Foulkes estimate   =     -31.84675036 Ry
     estimated scf accuracy    <       0.73237297 Ry

     iteration # 28     ecut=    30.00 Ry     beta=0.70
     Davidson diagonalization with overlap
     ethr =  2.90E-03,  avg # of iterations =  1.0

     negative rho (up, down):  7.165E-03 0.000E+00

     total cpu time spent up to now is        9.3 secs

     total energy              =     -32.08994651 Ry
     Harris-Foulkes estimate   =     -32.09821815 Ry
     estimated scf accuracy    <       1.70423533 Ry

     iteration # 29     ecut=    30.00 Ry     beta=0.70
     Davidson diagonalization with overlap
     ethr =  2.90E-03,  avg # of iterations =  1.0

     negative rho (up, down):  1.455E-02 0.000E+00

     total cpu time spent up to now is        9.4 secs

     total energy              =     -31.81259341 Ry
     Harris-Foulkes estimate   =     -32.09062163 Ry
     estimated scf accuracy    <       1.71196690 Ry

     iteration # 30     ecut=    30.00 Ry     beta=0.70
     Davidson diagonalization with overlap
     ethr =  2.90E-03,  avg # of iterations =  1.0

     negative rho (up, down):  1.551E-02 0.000E+00

     total cpu time spent up to now is        9.4 secs

     total energy              =     -31.80272245 Ry
     Harris-Foulkes estimate   =     -31.81939999 Ry
     estimated scf accuracy    <       0.58297023 Ry

     iteration # 31     ecut=    30.00 Ry     beta=0.70
     Davidson diagonalization with overlap
     ethr =  2.90E-03,  avg # of iterations =  1.0

     negative rho (up, down):  1.336E-02 0.000E+00

     total cpu time spent up to now is        9.5 secs

     total energy              =     -31.81924015 Ry
     Harris-Foulkes estimate   =     -31.81249897 Ry
     estimated scf accuracy    <       0.01402409 Ry

     iteration # 32     ecut=    30.00 Ry     beta=0.70
     Davidson diagonalization with overlap
     ethr =  1.75E-04,  avg # of iterations =  1.0

     negative rho (up, down):  4.342E-03 0.000E+00

     total cpu time spent up to now is        9.5 secs

     total energy              =     -31.79153361 Ry
     Harris-Foulkes estimate   =     -31.85228645 Ry
     estimated scf accuracy    <       0.97322396 Ry

     iteration # 33     ecut=    30.00 Ry     beta=0.70
     Davidson diagonalization with overlap
     ethr =  1.75E-04,  avg # of iterations =  1.0

     negative rho (up, down):  4.538E-05 0.000E+00

     total cpu time spent up to now is        9.6 secs

     total energy              =     -31.81638648 Ry
     Harris-Foulkes estimate   =     -31.81254846 Ry
     estimated scf accuracy    <       0.04636037 Ry

     iteration # 34     ecut=    30.00 Ry     beta=0.70
     Davidson diagonalization with overlap
     ethr =  1.75E-04,  avg # of iterations =  8.0

     negative rho (up, down):  1.593E-03 0.000E+00

     total cpu time spent up to now is        9.6 secs

     total energy              =     -31.78910186 Ry
     Harris-Foulkes estimate   =     -31.82292349 Ry
     estimated scf accuracy    <       0.84281913 Ry

     iteration # 35     ecut=    30.00 Ry     beta=0.70
     Davidson diagonalization with overlap
     ethr =  1.75E-04,  avg # of iterations =  1.0

     negative rho (up, down):  6.419E-04 0.000E+00

     total cpu time spent up to now is        9.7 secs

     total energy              =     -31.81324034 Ry
     Harris-Foulkes estimate   =     -31.81540271 Ry
     estimated scf accuracy    <       0.23785223 Ry

     iteration # 36     ecut=    30.00 Ry     beta=0.70
     Davidson diagonalization with overlap
     ethr =  1.75E-04,  avg # of iterations =  1.0

     negative rho (up, down):  1.403E-05 0.000E+00

     total cpu time spent up to now is        9.7 secs

     total energy              =     -31.81087027 Ry
     Harris-Foulkes estimate   =     -31.81354375 Ry
     estimated scf accuracy    <       0.12125037 Ry

     iteration # 37     ecut=    30.00 Ry     beta=0.70
     Davidson diagonalization with overlap
     ethr =  1.75E-04,  avg # of iterations =  1.0

     total cpu time spent up to now is        9.8 secs

     total energy              =     -31.81174759 Ry
     Harris-Foulkes estimate   =     -31.81191198 Ry
     estimated scf accuracy    <       0.00450219 Ry

     iteration # 38     ecut=    30.00 Ry     beta=0.70
     Davidson diagonalization with overlap
     ethr =  5.63E-05,  avg # of iterations =  1.0

     total cpu time spent up to now is        9.8 secs

     total energy              =     -31.81184598 Ry
     Harris-Foulkes estimate   =     -31.81186625 Ry
     estimated scf accuracy    <       0.00092442 Ry

     iteration # 39     ecut=    30.00 Ry     beta=0.70
     Davidson diagonalization with overlap
     ethr =  1.16E-05,  avg # of iterations =  8.0

     total cpu time spent up to now is        9.9 secs

     total energy              =     -31.81185515 Ry
     Harris-Foulkes estimate   =     -31.81185509 Ry
     estimated scf accuracy    <       0.00001171 Ry

     iteration # 40     ecut=    30.00 Ry     beta=0.70
     Davidson diagonalization with overlap
     ethr =  1.46E-07,  avg # of iterations =  2.0

     total cpu time spent up to now is        9.9 secs

     total energy              =     -31.81185486 Ry
     Harris-Foulkes estimate   =     -31.81185516 Ry
     estimated scf accuracy    <       0.00001058 Ry

     iteration # 41     ecut=    30.00 Ry     beta=0.70
     Davidson diagonalization with overlap
     ethr =  1.32E-07,  avg # of iterations =  1.0

     total cpu time spent up to now is       10.0 secs

     total energy              =     -31.81185504 Ry
     Harris-Foulkes estimate   =     -31.81185506 Ry
     estimated scf accuracy    <       0.00000056 Ry

     iteration # 42     ecut=    30.00 Ry     beta=0.70
     Davidson diagonalization with overlap
     ethr =  7.03E-09,  avg # of iterations =  1.0

     total cpu time spent up to now is       10.0 secs

     End of self-consistent calculation

          k = 0.0000 0.0000 0.0000 ( 22119 PWs)   bands (ev):

   -23.7554  -9.3290  -6.9568  -6.9563  -6.8232  -3.1009  -0.0518   0.8365

     the Fermi energy is    -6.7882 ev

!    total energy              =     -31.81185503 Ry
     Harris-Foulkes estimate   =     -31.81185505 Ry
     estimated scf accuracy    <          4.0E-09 Ry

     convergence has been achieved in  42 iterations

     Forces acting on atoms (Ry/au):

     atom    1 type  2   force =    -0.10804744    0.02617259   -0.13417670
     atom    2 type  1   force =    -0.00020872   -0.00036462   -0.00026019
     atom    3 type  1   force =     0.10825615   -0.02580796    0.13443689

     Total force =     0.246620     Total SCF correction =     0.000020

     Entering Dynamics:    iteration =     4
                           time      =   0.0194 pico-seconds


     Andersen thermostat:    3 collisions

ATOMIC_POSITIONS (bohr)
O       16.449405782   0.085450488   9.149814855
H        9.440780785   5.418305705   0.289733700
H       16.043806277  -0.027833697   8.717165084


     kinetic energy (Ekin) =     0.08457776 Ry
     temperature           =  4451.25223660 K 
     Ekin + Etot (const)   =   -31.72727727 Ry
     Message from routine dynamics:
     Total linear momentum <> 0

     Linear momentum :   -0.6041054589    0.2614098900   -0.0652693314

     Writing output data file pwscf.save

     second order wave-functions extrapolation
     Check: negative starting charge=   -0.347567
     second order charge density extrapolation
     Check: negative starting charge=   -0.353552

     negative rho (up, down):  4.946E-01 0.000E+00

     total cpu time spent up to now is       10.5 secs

     per-process dynamical memory:    20.4 Mb

     Self-consistent Calculation

     iteration #  1     ecut=    30.00 Ry     beta=0.70
     Davidson diagonalization with overlap
     ethr =  1.00E-06,  avg # of iterations = 12.0

     negative rho (up, down):  7.694E-02 0.000E+00

     total cpu time spent up to now is       10.6 secs

     total energy              =       9.20666350 Ry
     Harris-Foulkes estimate   =     -62.50657030 Ry
     estimated scf accuracy    <       9.24349709 Ry

     iteration #  2     ecut=    30.00 Ry     beta=0.70
     Davidson diagonalization with overlap
     ethr =  1.00E-02,  avg # of iterations =  5.0

     negative rho (up, down):  4.735E-02 0.000E+00

     total cpu time spent up to now is       10.7 secs

     total energy              =     -24.82946745 Ry
     Harris-Foulkes estimate   =     -28.70675102 Ry
     estimated scf accuracy    <       7.47856843 Ry

     iteration #  3     ecut=    30.00 Ry     beta=0.70
     Davidson diagonalization with overlap
     ethr =  1.00E-02,  avg # of iterations =  2.0

     negative rho (up, down):  3.782E-02 0.000E+00

     total cpu time spent up to now is       10.7 secs

     total energy              =     -25.04734289 Ry
     Harris-Foulkes estimate   =     -26.38986353 Ry
     estimated scf accuracy    <       4.52091424 Ry

     iteration #  4     ecut=    30.00 Ry     beta=0.70
     Davidson diagonalization with overlap
     ethr =  1.00E-02,  avg # of iterations =  2.0

     negative rho (up, down):  2.019E-02 0.000E+00

     total cpu time spent up to now is       10.8 secs

     total energy              =     -24.50314625 Ry
     Harris-Foulkes estimate   =     -25.30777024 Ry
     estimated scf accuracy    <       2.46805583 Ry

     iteration #  5     ecut=    30.00 Ry     beta=0.70
     Davidson diagonalization with overlap
     ethr =  1.00E-02,  avg # of iterations =  1.0

     negative rho (up, down):  1.465E-02 0.000E+00

     total cpu time spent up to now is       10.8 secs

     total energy              =     -24.48537609 Ry
     Harris-Foulkes estimate   =     -24.73320433 Ry
     estimated scf accuracy    <       1.91937275 Ry

     iteration #  6     ecut=    30.00 Ry     beta=0.70
     Davidson diagonalization with overlap
     ethr =  1.00E-02,  avg # of iterations =  1.0

     negative rho (up, down):  2.530E-03 0.000E+00

     total cpu time spent up to now is       10.9 secs

     total energy              =     -24.43367676 Ry
     Harris-Foulkes estimate   =     -24.52524369 Ry
     estimated scf accuracy    <       0.60066896 Ry

     iteration #  7     ecut=    30.00 Ry     beta=0.70
     Davidson diagonalization with overlap
     ethr =  7.51E-03,  avg # of iterations =  1.0

     negative rho (up, down):  6.872E-04 0.000E+00

     total cpu time spent up to now is       10.9 secs

     total energy              =     -24.35717651 Ry
     Harris-Foulkes estimate   =     -24.44861652 Ry
     estimated scf accuracy    <       0.84378364 Ry

     iteration #  8     ecut=    30.00 Ry     beta=0.70
     Davidson diagonalization with overlap
     ethr =  7.51E-03,  avg # of iterations =  1.0

     negative rho (up, down):  5.375E-04 0.000E+00

     total cpu time spent up to now is       11.0 secs

     total energy              =     -24.46890581 Ry
     Harris-Foulkes estimate   =     -24.50091343 Ry
     estimated scf accuracy    <       1.54297498 Ry

     iteration #  9     ecut=    30.00 Ry     beta=0.70
     Davidson diagonalization with overlap
     ethr =  7.51E-03,  avg # of iterations =  1.0

     negative rho (up, down):  1.258E-04 0.000E+00

     total cpu time spent up to now is       11.0 secs

     total energy              =     -24.38572287 Ry
     Harris-Foulkes estimate   =     -24.46700088 Ry
     estimated scf accuracy    <       1.89334186 Ry

     iteration # 10     ecut=    30.00 Ry     beta=0.70
     Davidson diagonalization with overlap
     ethr =  7.51E-03,  avg # of iterations =  1.0

     total cpu time spent up to now is       11.1 secs

     total energy              =     -24.44197398 Ry
     Harris-Foulkes estimate   =     -24.43873153 Ry
     estimated scf accuracy    <       0.35506399 Ry

     iteration # 11     ecut=    30.00 Ry     beta=0.70
     Davidson diagonalization with overlap
     ethr =  4.44E-03,  avg # of iterations =  1.0

     total cpu time spent up to now is       11.1 secs

     total energy              =     -24.43451249 Ry
     Harris-Foulkes estimate   =     -24.44213509 Ry
     estimated scf accuracy    <       0.44658961 Ry

     iteration # 12     ecut=    30.00 Ry     beta=0.70
     Davidson diagonalization with overlap
     ethr =  4.44E-03,  avg # of iterations =  1.0

     total cpu time spent up to now is       11.2 secs

     total energy              =     -24.43035191 Ry
     Harris-Foulkes estimate   =     -24.43611415 Ry
     estimated scf accuracy    <       0.12925930 Ry

     iteration # 13     ecut=    30.00 Ry     beta=0.70
     Davidson diagonalization with overlap
     ethr =  1.62E-03,  avg # of iterations =  1.0

     total cpu time spent up to now is       11.2 secs

     total energy              =     -24.43109890 Ry
     Harris-Foulkes estimate   =     -24.43517936 Ry
     estimated scf accuracy    <       0.07375025 Ry

     iteration # 14     ecut=    30.00 Ry     beta=0.70
     Davidson diagonalization with overlap
     ethr =  9.22E-04,  avg # of iterations =  1.0

     total cpu time spent up to now is       11.2 secs

     total energy              =     -24.43315927 Ry
     Harris-Foulkes estimate   =     -24.43577569 Ry
     estimated scf accuracy    <       0.10628319 Ry

     iteration # 15     ecut=    30.00 Ry     beta=0.70
     Davidson diagonalization with overlap
     ethr =  9.22E-04,  avg # of iterations =  1.0

     total cpu time spent up to now is       11.3 secs

     total energy              =     -24.43428812 Ry
     Harris-Foulkes estimate   =     -24.43431485 Ry
     estimated scf accuracy    <       0.00074056 Ry

     iteration # 16     ecut=    30.00 Ry     beta=0.70
     Davidson diagonalization with overlap
     ethr =  9.26E-06,  avg # of iterations =  9.0

     total cpu time spent up to now is       11.4 secs

     total energy              =     -24.43430493 Ry
     Harris-Foulkes estimate   =     -24.43430781 Ry
     estimated scf accuracy    <       0.00016302 Ry

     iteration # 17     ecut=    30.00 Ry     beta=0.70
     Davidson diagonalization with overlap
     ethr =  2.04E-06,  avg # of iterations =  1.0

     total cpu time spent up to now is       11.4 secs

     total energy              =     -24.43430533 Ry
     Harris-Foulkes estimate   =     -24.43430581 Ry
     estimated scf accuracy    <       0.00001902 Ry

     iteration # 18     ecut=    30.00 Ry     beta=0.70
     Davidson diagonalization with overlap
     ethr =  2.38E-07,  avg # of iterations =  1.0

     total cpu time spent up to now is       11.5 secs

     total energy              =     -24.43430554 Ry
     Harris-Foulkes estimate   =     -24.43430554 Ry
     estimated scf accuracy    <       0.00000005 Ry

     iteration # 19     ecut=    30.00 Ry     beta=0.70
     Davidson diagonalization with overlap
     ethr =  6.19E-10,  avg # of iterations =  1.0

     total cpu time spent up to now is       11.5 secs

     total energy              =     -24.43430554 Ry
     Harris-Foulkes estimate   =     -24.43430555 Ry
[...]
     Harris-Foulkes estimate   =   -2023.22111737 Ry
     estimated scf accuracy    <      52.93677098 Ry

     iteration # 59     ecut=    30.00 Ry     beta=0.70
     Davidson diagonalization with overlap
     ethr =  1.00E-02,  avg # of iterations =  7.0

     negative rho (up, down):  6.674E-02 0.000E+00

     total cpu time spent up to now is       16.9 secs

     total energy              =    -159.76888755 Ry
     Harris-Foulkes estimate   =   -4879.68878794 Ry
     estimated scf accuracy    <      26.76099696 Ry

     iteration # 60     ecut=    30.00 Ry     beta=0.70
     Davidson diagonalization with overlap
     ethr =  1.00E-02,  avg # of iterations =  8.0

     negative rho (up, down):  2.486E-02 0.000E+00

     total cpu time spent up to now is       17.0 secs

     total energy              =      90.11513973 Ry
     Harris-Foulkes estimate   =    -862.04662402 Ry
     estimated scf accuracy    <      15.36151765 Ry

     iteration # 61     ecut=    30.00 Ry     beta=0.70
     Davidson diagonalization with overlap
     ethr =  1.00E-02,  avg # of iterations =  6.0

     negative rho (up, down):  1.065E-01 0.000E+00

     total cpu time spent up to now is       17.0 secs

     total energy              =      34.83899655 Ry
     Harris-Foulkes estimate   =   -1524.75860930 Ry
     estimated scf accuracy    <      30.64505192 Ry

     iteration # 62     ecut=    30.00 Ry     beta=0.70
     Davidson diagonalization with overlap
     ethr =  1.00E-02,  avg # of iterations =  6.0

     negative rho (up, down):  1.904E-01 0.000E+00

     total cpu time spent up to now is       17.1 secs

     total energy              =     -31.43665962 Ry
     Harris-Foulkes estimate   =    -106.09027818 Ry
     estimated scf accuracy    <      36.32767941 Ry

     iteration # 63     ecut=    30.00 Ry     beta=0.70
     Davidson diagonalization with overlap
     ethr =  1.00E-02,  avg # of iterations =  9.0

     negative rho (up, down):  4.790E-01 0.000E+00

     total cpu time spent up to now is       17.2 secs

     total energy              =    -210.46549011 Ry
     Harris-Foulkes estimate   =   -3736.19020329 Ry
     estimated scf accuracy    <      36.52028209 Ry

     iteration # 64     ecut=    30.00 Ry     beta=0.70
     Davidson diagonalization with overlap
     ethr =  1.00E-02,  avg # of iterations =  6.0

     negative rho (up, down):  4.455E-01 0.000E+00

     total cpu time spent up to now is       17.3 secs

     total energy              =     -10.54913159 Ry
     Harris-Foulkes estimate   =   -1684.16936778 Ry
     estimated scf accuracy    <      21.47849569 Ry

     iteration # 65     ecut=    30.00 Ry     beta=0.70
     Davidson diagonalization with overlap
     ethr =  1.00E-02,  avg # of iterations =  5.0

     negative rho (up, down):  3.579E-01 0.000E+00

     total cpu time spent up to now is       17.3 secs

     total energy              =     105.04779825 Ry
     Harris-Foulkes estimate   =    -604.48220618 Ry
     estimated scf accuracy    <      22.56619916 Ry

     iteration # 66     ecut=    30.00 Ry     beta=0.70
     Davidson diagonalization with overlap
     ethr =  1.00E-02,  avg # of iterations = 14.0

     negative rho (up, down):  8.062E-06 0.000E+00

     total cpu time spent up to now is       17.5 secs

     total energy              =     119.83376962 Ry
     Harris-Foulkes estimate   =    -405.88477082 Ry
     estimated scf accuracy    <      27.29149370 Ry

     iteration # 67     ecut=    30.00 Ry     beta=0.70
     Davidson diagonalization with overlap
     ethr =  1.00E-02,  avg # of iterations =  5.0

     negative rho (up, down):  8.528E-02 0.000E+00

     total cpu time spent up to now is       17.5 secs

     total energy              =     -62.94667052 Ry
     Harris-Foulkes estimate   =     -68.90740276 Ry
     estimated scf accuracy    <      49.31240595 Ry

     iteration # 68     ecut=    30.00 Ry     beta=0.70
     Davidson diagonalization with overlap
     ethr =  1.00E-02,  avg # of iterations =  6.0

     negative rho (up, down):  1.101E-01 0.000E+00

     total cpu time spent up to now is       17.6 secs

     total energy              =      35.42205719 Ry
     Harris-Foulkes estimate   =    -336.22267356 Ry
     estimated scf accuracy    <      24.45406562 Ry

     iteration # 69     ecut=    30.00 Ry     beta=0.70
     Davidson diagonalization with overlap
     ethr =  1.00E-02,  avg # of iterations =  6.0

     negative rho (up, down):  9.446E-02 0.000E+00

     total cpu time spent up to now is       17.7 secs

     total energy              =    -103.02217018 Ry
     Harris-Foulkes estimate   =   -1606.13539263 Ry
     estimated scf accuracy    <      20.04359037 Ry

     iteration # 70     ecut=    30.00 Ry     beta=0.70
     Davidson diagonalization with overlap
     ethr =  1.00E-02,  avg # of iterations =  5.0

     negative rho (up, down):  2.991E-04 0.000E+00

     total cpu time spent up to now is       17.8 secs

     total energy              =      64.46013149 Ry
     Harris-Foulkes estimate   =   -1453.27434006 Ry
     estimated scf accuracy    <      31.83182246 Ry

     iteration # 71     ecut=    30.00 Ry     beta=0.70
     Davidson diagonalization with overlap
     ethr =  1.00E-02,  avg # of iterations =  7.0

     negative rho (up, down):  4.015E-03 0.000E+00

     total cpu time spent up to now is       17.8 secs

     total energy              =      -9.32760735 Ry
     Harris-Foulkes estimate   =    -584.71822944 Ry
     estimated scf accuracy    <      21.17458795 Ry

     iteration # 72     ecut=    30.00 Ry     beta=0.70
     Davidson diagonalization with overlap
     ethr =  1.00E-02,  avg # of iterations =  9.0

     negative rho (up, down):  8.381E-02 0.000E+00

     total cpu time spent up to now is       17.9 secs

     total energy              =     -21.49811869 Ry
     Harris-Foulkes estimate   =     -69.61846652 Ry
     estimated scf accuracy    <      23.37800945 Ry

     iteration # 73     ecut=    30.00 Ry     beta=0.70
     Davidson diagonalization with overlap
     ethr =  1.00E-02,  avg # of iterations =  5.0

     negative rho (up, down):  2.334E-01 0.000E+00

     total cpu time spent up to now is       18.0 secs

     total energy              =      -0.45753356 Ry
     Harris-Foulkes estimate   =    -614.05093288 Ry
     estimated scf accuracy    <      16.80152741 Ry

     iteration # 74     ecut=    30.00 Ry     beta=0.70
     Davidson diagonalization with overlap
     ethr =  1.00E-02,  avg # of iterations = 11.0

     negative rho (up, down):  4.017E-01 0.000E+00

     total cpu time spent up to now is       18.1 secs

     total energy              =     103.80906534 Ry
     Harris-Foulkes estimate   =   -9601.93516950 Ry
     estimated scf accuracy    <      35.45106309 Ry

     iteration # 75     ecut=    30.00 Ry     beta=0.70
     Davidson diagonalization with overlap
     ethr =  1.00E-02,  avg # of iterations =  8.0

     negative rho (up, down):  2.925E-01 0.000E+00

     total cpu time spent up to now is       18.1 secs

     total energy              =       7.89590145 Ry
     Harris-Foulkes estimate   =    -192.30768262 Ry
     estimated scf accuracy    <      15.12040087 Ry

     iteration # 76     ecut=    30.00 Ry     beta=0.70
     Davidson diagonalization with overlap
     ethr =  1.00E-02,  avg # of iterations =  5.0

     negative rho (up, down):  1.929E-01 0.000E+00

     total cpu time spent up to now is       18.2 secs

     total energy              =     134.11048168 Ry
     Harris-Foulkes estimate   =    -693.87063042 Ry
     estimated scf accuracy    <      20.00637118 Ry

     iteration # 77     ecut=    30.00 Ry     beta=0.70
     Davidson diagonalization with overlap
     ethr =  1.00E-02,  avg # of iterations =  7.0

     negative rho (up, down):  1.096E-02 0.000E+00

     total cpu time spent up to now is       18.3 secs

     total energy              =      -9.35836030 Ry
     Harris-Foulkes estimate   =    -125.87183328 Ry
     estimated scf accuracy    <      18.03146750 Ry

     iteration # 78     ecut=    30.00 Ry     beta=0.70
     Davidson diagonalization with overlap
     ethr =  1.00E-02,  avg # of iterations =  5.0

     negative rho (up, down):  1.279E-01 0.000E+00

     total cpu time spent up to now is       18.3 secs

     total energy              =     -88.99353544 Ry
     Harris-Foulkes estimate   =     -66.38056368 Ry
     estimated scf accuracy    <      19.50448612 Ry

     iteration # 79     ecut=    30.00 Ry     beta=0.70
     Davidson diagonalization with overlap
     ethr =  1.00E-02,  avg # of iterations =  6.0

     negative rho (up, down):  1.769E-01 0.000E+00

     total cpu time spent up to now is       18.4 secs

     total energy              =    -144.32496698 Ry
     Harris-Foulkes estimate   =    -924.25562110 Ry
     estimated scf accuracy    <      27.99005410 Ry

     iteration # 80     ecut=    30.00 Ry     beta=0.70
     Davidson diagonalization with overlap
     ethr =  1.00E-02,  avg # of iterations =  4.0

     negative rho (up, down):  1.179E-01 0.000E+00

     total cpu time spent up to now is       18.5 secs

     total energy              =     -23.13504335 Ry
     Harris-Foulkes estimate   =    -321.00514067 Ry
     estimated scf accuracy    <      14.15440786 Ry

     iteration # 81     ecut=    30.00 Ry     beta=0.70
     Davidson diagonalization with overlap
     ethr =  1.00E-02,  avg # of iterations =  8.0

     negative rho (up, down):  1.160E-01 0.000E+00

     total cpu time spent up to now is       18.6 secs

     total energy              =     123.62249818 Ry
     Harris-Foulkes estimate   =   -1022.98443271 Ry
     estimated scf accuracy    <      31.19227662 Ry

     iteration # 82     ecut=    30.00 Ry     beta=0.70
     Davidson diagonalization with overlap
     ethr =  1.00E-02,  avg # of iterations = 10.0

     negative rho (up, down):  1.666E-01 0.000E+00

     total cpu time spent up to now is       18.7 secs

     total energy              =    -485.97705712 Ry
     Harris-Foulkes estimate   =    -397.67034682 Ry
     estimated scf accuracy    <      35.79618366 Ry

     iteration # 83     ecut=    30.00 Ry     beta=0.70
     Davidson diagonalization with overlap
     ethr =  1.00E-02,  avg # of iterations =  5.0

     negative rho (up, down):  1.299E-01 0.000E+00

     total cpu time spent up to now is       18.7 secs

     total energy              =      -2.31615236 Ry
     Harris-Foulkes estimate   =   -3421.56081809 Ry
     estimated scf accuracy    <      34.68257435 Ry

     iteration # 84     ecut=    30.00 Ry     beta=0.70
     Davidson diagonalization with overlap
     ethr =  1.00E-02,  avg # of iterations =  4.0

     negative rho (up, down):  1.464E-01 0.000E+00

     total cpu time spent up to now is       18.8 secs

     total energy              =     140.62036733 Ry
     Harris-Foulkes estimate   =   -2502.43338450 Ry
     estimated scf accuracy    <      49.80991176 Ry

     iteration # 85     ecut=    30.00 Ry     beta=0.70
     Davidson diagonalization with overlap
     ethr =  1.00E-02,  avg # of iterations =  7.0

     negative rho (up, down):  1.479E-01 0.000E+00

     total cpu time spent up to now is       18.9 secs

     total energy              =     -19.49654526 Ry
     Harris-Foulkes estimate   =     -82.87879181 Ry
     estimated scf accuracy    <      17.35261076 Ry

     iteration # 86     ecut=    30.00 Ry     beta=0.70
     Davidson diagonalization with overlap
     ethr =  1.00E-02,  avg # of iterations =  4.0

     negative rho (up, down):  3.183E-01 0.000E+00

     total cpu time spent up to now is       18.9 secs

     total energy              =     -19.64001171 Ry
     Harris-Foulkes estimate   =    -335.94648314 Ry
     estimated scf accuracy    <      13.38096474 Ry

     iteration # 87     ecut=    30.00 Ry     beta=0.70
     Davidson diagonalization with overlap
     ethr =  1.00E-02,  avg # of iterations =  4.0

     negative rho (up, down):  2.052E-01 0.000E+00

     total cpu time spent up to now is       19.0 secs

     total energy              =    -460.95835256 Ry
     Harris-Foulkes estimate   =   -2192.92128436 Ry
     estimated scf accuracy    <      15.18651764 Ry

     iteration # 88     ecut=    30.00 Ry     beta=0.70
     Davidson diagonalization with overlap
     ethr =  1.00E-02,  avg # of iterations =  5.0

     negative rho (up, down):  3.584E-02 0.000E+00

     total cpu time spent up to now is       19.1 secs

     total energy              =     101.95513221 Ry
     Harris-Foulkes estimate   =   -1666.93291381 Ry
     estimated scf accuracy    <      35.78457525 Ry

     iteration # 89     ecut=    30.00 Ry     beta=0.70
     Davidson diagonalization with overlap
     ethr =  1.00E-02,  avg # of iterations =  5.0

     negative rho (up, down):  5.184E-02 0.000E+00

     total cpu time spent up to now is       19.1 secs

     total energy              =      -8.04698386 Ry
     Harris-Foulkes estimate   =    -117.60451239 Ry
     estimated scf accuracy    <      16.03074198 Ry

     iteration # 90     ecut=    30.00 Ry     beta=0.70
     Davidson diagonalization with overlap
     ethr =  1.00E-02,  avg # of iterations =  4.0

     negative rho (up, down):  4.332E-02 0.000E+00

     total cpu time spent up to now is       19.2 secs

     total energy              =     -63.50252618 Ry
     Harris-Foulkes estimate   =    -140.73428238 Ry
     estimated scf accuracy    <      15.26708902 Ry

     iteration # 91     ecut=    30.00 Ry     beta=0.70
     Davidson diagonalization with overlap
     ethr =  1.00E-02,  avg # of iterations =  5.0

     negative rho (up, down):  2.942E-02 0.000E+00

     total cpu time spent up to now is       19.3 secs

     total energy              =      84.98984863 Ry
     Harris-Foulkes estimate   =   -1349.25515630 Ry
     estimated scf accuracy    <      19.35161551 Ry

     iteration # 92     ecut=    30.00 Ry     beta=0.70
     Davidson diagonalization with overlap
     ethr =  1.00E-02,  avg # of iterations =  6.0

     negative rho (up, down):  4.259E-04 0.000E+00

     total cpu time spent up to now is       19.4 secs

     total energy              =      38.71059605 Ry
     Harris-Foulkes estimate   =    -211.92856626 Ry
     estimated scf accuracy    <      15.11241374 Ry

     iteration # 93     ecut=    30.00 Ry     beta=0.70
     Davidson diagonalization with overlap
     ethr =  1.00E-02,  avg # of iterations =  5.0

     negative rho (up, down):  5.504E-02 0.000E+00

     total cpu time spent up to now is       19.4 secs

     total energy              =     -48.38297515 Ry
     Harris-Foulkes estimate   =     -49.01982325 Ry
     estimated scf accuracy    <      24.81340679 Ry

     iteration # 94     ecut=    30.00 Ry     beta=0.70
     Davidson diagonalization with overlap
     ethr =  1.00E-02,  avg # of iterations =  1.0

     negative rho (up, down):  3.261E-01 0.000E+00

     total cpu time spent up to now is       19.5 secs

     total energy              =     -48.41336654 Ry
     Harris-Foulkes estimate   =     -48.38958131 Ry
     estimated scf accuracy    <      23.17168744 Ry

     iteration # 95     ecut=    30.00 Ry     beta=0.70
     Davidson diagonalization with overlap
     ethr =  1.00E-02,  avg # of iterations =  6.0

     negative rho (up, down):  2.717E-01 0.000E+00

     total cpu time spent up to now is       19.5 secs

     total energy              =   -2347.23121856 Ry
     Harris-Foulkes estimate   =   -3014.89714093 Ry
     estimated scf accuracy    <      41.90051080 Ry

     iteration # 96     ecut=    30.00 Ry     beta=0.70
     Davidson diagonalization with overlap
     ethr =  1.00E-02,  avg # of iterations =  7.0

     negative rho (up, down):  1.847E-01 0.000E+00

     total cpu time spent up to now is       19.6 secs

     total energy              =      39.69479453 Ry
     Harris-Foulkes estimate   =   -6532.84050684 Ry
     estimated scf accuracy    <      45.80321129 Ry

     iteration # 97     ecut=    30.00 Ry     beta=0.70
     Davidson diagonalization with overlap
     ethr =  1.00E-02,  avg # of iterations = 10.0

     negative rho (up, down):  1.137E-01 0.000E+00

     total cpu time spent up to now is       19.7 secs

     total energy              =      66.16792459 Ry
     Harris-Foulkes estimate   =    -318.02437833 Ry
     estimated scf accuracy    <      24.03557200 Ry

     iteration # 98     ecut=    30.00 Ry     beta=0.70
     Davidson diagonalization with overlap
     ethr =  1.00E-02,  avg # of iterations =  5.0

     negative rho (up, down):  9.725E-03 0.000E+00

     total cpu time spent up to now is       19.8 secs

     total energy              =     -47.20063066 Ry
     Harris-Foulkes estimate   =     -47.61907898 Ry
     estimated scf accuracy    <      22.53566456 Ry

     iteration # 99     ecut=    30.00 Ry     beta=0.70
     Davidson diagonalization with overlap
     ethr =  1.00E-02,  avg # of iterations =  3.0

     negative rho (up, down):  5.674E-02 0.000E+00

     total cpu time spent up to now is       19.8 secs

     total energy              =    -156.69483777 Ry
     Harris-Foulkes estimate   =   -1163.29029541 Ry
     estimated scf accuracy    <      10.64210971 Ry

     iteration #100     ecut=    30.00 Ry     beta=0.70
     Davidson diagonalization with overlap
     ethr =  1.00E-02,  avg # of iterations =  3.0

     negative rho (up, down):  8.314E-02 0.000E+00

     total cpu time spent up to now is       19.9 secs

     total energy              =      -7.54165792 Ry
     Harris-Foulkes estimate   =    -406.61500624 Ry
     estimated scf accuracy    <      10.70534172 Ry

     End of self-consistent calculation

     convergence NOT achieved after 100 iterations: stopping

     Writing output data file pwscf.save
 
     init_run     :      0.17s CPU      0.19s WALL (       1 calls)
     electrons    :     14.99s CPU     17.60s WALL (       6 calls)
     update_pot   :      1.04s CPU      1.33s WALL (       5 calls)
     forces       :      0.21s CPU      0.21s WALL (       5 calls)

     Called by init_run:
     wfcinit      :      0.01s CPU      0.02s WALL (       1 calls)
     potinit      :      0.05s CPU      0.05s WALL (       1 calls)

     Called by electrons:
     c_bands      :      7.70s CPU      7.97s WALL (     272 calls)
     sum_band     :      1.37s CPU      1.47s WALL (     272 calls)
     v_of_rho     :      3.27s CPU      3.39s WALL (     278 calls)
     mix_rho      :      2.19s CPU      3.88s WALL (     272 calls)

     Called by c_bands:
     init_us_2    :      0.04s CPU      0.05s WALL (     545 calls)
     cegterg      :      7.63s CPU      7.81s WALL (     273 calls)

     Called by sum_band:

     Called by *egterg:
     h_psi        :      6.47s CPU      6.62s WALL (    1325 calls)
     g_psi        :      0.07s CPU      0.07s WALL (    1051 calls)
     cdiaghg      :      0.45s CPU      0.46s WALL (    1318 calls)

     Called by h_psi:
     h_psi:pot    :      6.43s CPU      6.58s WALL (    1325 calls)
     h_psi:calbec :      0.07s CPU      0.08s WALL (    1325 calls)
     vloc_psi     :      6.33s CPU      6.47s WALL (    1325 calls)
     add_vuspsi   :      0.02s CPU      0.02s WALL (    1325 calls)

     General routines
     calbec       :      0.09s CPU      0.10s WALL (    1349 calls)
     fft          :      1.98s CPU      2.07s WALL (    3068 calls)
     fftw         :      6.64s CPU      6.85s WALL (   16766 calls)
     davcio       :      0.33s CPU      1.44s WALL (    4919 calls)
 
     Parallel routines
     fft_scatter  :      2.76s CPU      2.94s WALL (   19834 calls)
 
     PWSCF        :    16.75s CPU        20.00s WALL

 
   This run was terminated on:  14:45:42  13Feb2018            

=------------------------------------------------------------------------------=
   JOB DONE.
=------------------------------------------------------------------------------=
