
     Program PWSCF v.6.0 (svn rev. 13079) starts on 13Feb2018 at 14:46:38 

     This program is part of the open-source Quantum ESPRESSO suite
     for quantum simulation of materials; please cite
         "P. Giannozzi et al., J. Phys.:Condens. Matter 21 395502 (2009);
          URL http://www.quantum-espresso.org", 
     in publications or presentations arising from this work. More details at
     http://www.quantum-espresso.org/quote

     Parallel version (MPI), running on    28 processors
     R & G space division:  proc/nbgrp/npool/nimage =      28
     Reading input from inputs/MD-H2O-round1/329.in

     Current dimensions of program PWSCF are:
     Max number of different atomic species (ntypx) = 10
     Max number of k-points (npk) =  40000
     Max angular momentum in pseudopotentials (lmaxx) =  3

     Subspace diagonalization in iterative solution of the eigenvalue problem:
     a serial algorithm will be used

 
     Parallelization info
     --------------------
     sticks:   dense  smooth     PW     G-vecs:    dense   smooth      PW
     Min         136     136     33                 6338     6338     787
     Max         137     137     34                 6341     6341     792
     Sum        3809    3809    949               177509   177509   22119
 


     bravais-lattice index     =            1
     lattice parameter (alat)  =      20.0000  a.u.
     unit-cell volume          =    8000.0000 (a.u.)^3
     number of atoms/cell      =            3
     number of atomic types    =            2
     number of electrons       =         8.00
     number of Kohn-Sham states=            8
     kinetic-energy cutoff     =      30.0000  Ry
     charge density cutoff     =     120.0000  Ry
     convergence threshold     =      1.0E-08
     mixing beta               =       0.7000
     number of iterations used =            8  plain     mixing
     Exchange-correlation      = BLYP ( 1  3  1  3 0 0)
     nstep                     =         5000


     celldm(1)=  20.000000  celldm(2)=   0.000000  celldm(3)=   0.000000
     celldm(4)=   0.000000  celldm(5)=   0.000000  celldm(6)=   0.000000

     crystal axes: (cart. coord. in units of alat)
               a(1) = (   1.000000   0.000000   0.000000 )  
               a(2) = (   0.000000   1.000000   0.000000 )  
               a(3) = (   0.000000   0.000000   1.000000 )  

     reciprocal axes: (cart. coord. in units 2 pi/alat)
               b(1) = (  1.000000  0.000000  0.000000 )  
               b(2) = (  0.000000  1.000000  0.000000 )  
               b(3) = (  0.000000  0.000000  1.000000 )  


     PseudoPot. # 1 for  H read from file:
     ./H.blyp-hgh.UPF
     MD5 check sum: c576e69559cde411e611be972c763230
     Pseudo is Norm-conserving, Zval =  1.0
     Generated in analytical, separable form
     Using radial grid of  929 points,  0 beta functions with: 

     PseudoPot. # 2 for  O read from file:
     ./O.blyp-hgh.UPF
     MD5 check sum: d0b7156309aa9befef28faac7bc56342
     Pseudo is Norm-conserving, Zval =  6.0
     Generated in analytical, separable form
     Using radial grid of 1095 points,  1 beta functions with: 
                l(1) =   0

     atomic species   valence    mass     pseudopotential
        H              1.00     1.01000      H( 1.00)
        O              6.00    16.00000      O( 1.00)

     No symmetry found



   Cartesian axes

     site n.     atom                  positions (alat units)
         1           O   tau(   1) = (   0.2524809   0.2320263   0.7712328  )
         2           H   tau(   2) = (   0.0917079   0.7303951   0.2103057  )
         3           H   tau(   3) = (   0.1332303   0.7303190   0.1830835  )

     number of k points=     1  Marzari-Vanderbilt smearing, width (Ry)=  0.0250
                       cart. coord. in units 2pi/alat
        k(    1) = (   0.0000000   0.0000000   0.0000000), wk =   2.0000000

     Dense  grid:   177509 G-vectors     FFT dimensions: (  72,  72,  72)

     Estimated max dynamical RAM per process >       6.09Mb

     Estimated total allocated dynamical RAM >     170.64Mb

     Initial potential from superposition of free atoms
     Check: negative starting charge=   -0.367687

     starting charge    7.99998, renormalised to    8.00000

     negative rho (up, down):  3.677E-01 0.000E+00
     Starting wfc are    6 randomized atomic wfcs +    2 random wfc

     total cpu time spent up to now is        0.4 secs

     per-process dynamical memory:    18.8 Mb

     Self-consistent Calculation

     iteration #  1     ecut=    30.00 Ry     beta=0.70
     Davidson diagonalization with overlap
     ethr =  1.00E-02,  avg # of iterations =  7.0

     negative rho (up, down):  9.597E-02 0.000E+00

     total cpu time spent up to now is        0.4 secs

     total energy              =     -31.49869601 Ry
     Harris-Foulkes estimate   =     -32.32055921 Ry
     estimated scf accuracy    <       0.86496166 Ry

     iteration #  2     ecut=    30.00 Ry     beta=0.70
     Davidson diagonalization with overlap
     ethr =  1.00E-02,  avg # of iterations =  2.0

     negative rho (up, down):  4.198E-02 0.000E+00

     total cpu time spent up to now is        0.5 secs

     total energy              =     -31.76193390 Ry
     Harris-Foulkes estimate   =     -31.79364481 Ry
     estimated scf accuracy    <       0.12622199 Ry

     iteration #  3     ecut=    30.00 Ry     beta=0.70
     Davidson diagonalization with overlap
     ethr =  1.58E-03,  avg # of iterations =  3.0

     negative rho (up, down):  2.240E-02 0.000E+00

     total cpu time spent up to now is        0.6 secs

     total energy              =     -31.79169709 Ry
     Harris-Foulkes estimate   =     -31.78141170 Ry
     estimated scf accuracy    <       0.03166295 Ry

     iteration #  4     ecut=    30.00 Ry     beta=0.70
     Davidson diagonalization with overlap
     ethr =  3.96E-04,  avg # of iterations =  2.0

     negative rho (up, down):  7.854E-03 0.000E+00

     total cpu time spent up to now is        0.6 secs

     total energy              =     -31.80892529 Ry
     Harris-Foulkes estimate   =     -31.79757790 Ry
     estimated scf accuracy    <       0.01803317 Ry

     iteration #  5     ecut=    30.00 Ry     beta=0.70
     Davidson diagonalization with overlap
     ethr =  2.25E-04,  avg # of iterations =  2.0

     negative rho (up, down):  2.477E-05 0.000E+00

     total cpu time spent up to now is        0.7 secs

     total energy              =     -31.81657741 Ry
     Harris-Foulkes estimate   =     -31.81036357 Ry
     estimated scf accuracy    <       0.00024621 Ry

     iteration #  6     ecut=    30.00 Ry     beta=0.70
     Davidson diagonalization with overlap
     c_bands:  1 eigenvalues not converged
     ethr =  3.08E-06,  avg # of iterations = 20.0

     negative rho (up, down):  1.279E-05 0.000E+00

     total cpu time spent up to now is        0.7 secs

     total energy              =     -31.81660770 Ry
     Harris-Foulkes estimate   =     -31.81661024 Ry
     estimated scf accuracy    <       0.00002077 Ry

     iteration #  7     ecut=    30.00 Ry     beta=0.70
     Davidson diagonalization with overlap
     ethr =  2.60E-07,  avg # of iterations =  7.0

     negative rho (up, down):  4.073E-07 0.000E+00

     total cpu time spent up to now is        0.8 secs

     total energy              =     -31.81661027 Ry
     Harris-Foulkes estimate   =     -31.81660906 Ry
     estimated scf accuracy    <       0.00000373 Ry

     iteration #  8     ecut=    30.00 Ry     beta=0.70
     Davidson diagonalization with overlap
     ethr =  4.67E-08,  avg # of iterations =  2.0

     total cpu time spent up to now is        0.9 secs

     total energy              =     -31.81661407 Ry
     Harris-Foulkes estimate   =     -31.81661195 Ry
     estimated scf accuracy    <       0.00000101 Ry

     iteration #  9     ecut=    30.00 Ry     beta=0.70
     Davidson diagonalization with overlap
     ethr =  1.26E-08,  avg # of iterations =  2.0

     total cpu time spent up to now is        0.9 secs

     total energy              =     -31.81661404 Ry
     Harris-Foulkes estimate   =     -31.81661416 Ry
     estimated scf accuracy    <       0.00000013 Ry

     iteration # 10     ecut=    30.00 Ry     beta=0.70
     Davidson diagonalization with overlap
     ethr =  1.65E-09,  avg # of iterations =  2.0

     total cpu time spent up to now is        0.9 secs

     End of self-consistent calculation

          k = 0.0000 0.0000 0.0000 ( 22119 PWs)   bands (ev):

   -25.1051 -11.3666  -8.4088  -8.4084  -8.4081  -0.3650   0.7312   0.9319

     the Fermi energy is    -8.2854 ev

!    total energy              =     -31.81661402 Ry
     Harris-Foulkes estimate   =     -31.81661406 Ry
     estimated scf accuracy    <          7.2E-09 Ry

     convergence has been achieved in  10 iterations

     Forces acting on atoms (Ry/au):

     atom    1 type  2   force =     0.00052578   -0.00060415   -0.00016620
     atom    2 type  1   force =    -0.58350113    0.00136829    0.38244727
     atom    3 type  1   force =     0.58297536   -0.00076414   -0.38228107

     Total force =     0.986277     Total SCF correction =     0.000073

     Molecular Dynamics Calculation

     Starting temperature  =  1000.00 K

     temperature is controlled by Andersen thermostat
     Collision frequency = 1.0000/timestep
     mass H                =     1.01
     mass O                =    16.00
     Time step             =   100.00 a.u.,  4.8378 femto-seconds

     Entering Dynamics:    iteration =     1
                           time      =   0.0048 pico-seconds


     Andersen thermostat:    3 collisions

ATOMIC_POSITIONS (bohr)
O        5.031298413   4.636231990  15.442710235
H       -1.111974490  14.521631058   6.128108519
H        5.900949763  14.760689710   1.453683643


     kinetic energy (Ekin) =     0.00648479 Ry
     temperature           =   341.28881937 K 
     Ekin + Etot (const)   =   -31.81012923 Ry

     Linear momentum :    0.0000000000   -0.0000000000    0.0000000000

     Writing output data file pwscf.save
     Check: negative starting charge=   -0.367687
     NEW-OLD atomic charge density approx. for the potential
     Check: negative starting charge=   -0.353232

     negative rho (up, down):  2.749E-01 0.000E+00

     total cpu time spent up to now is        1.3 secs

     per-process dynamical memory:    20.4 Mb

     Self-consistent Calculation

     iteration #  1     ecut=    30.00 Ry     beta=0.70
     Davidson diagonalization with overlap
     c_bands:  1 eigenvalues not converged
     ethr =  1.00E-06,  avg # of iterations = 20.0

     negative rho (up, down):  8.010E-02 0.000E+00

     total cpu time spent up to now is        1.4 secs

     total energy              =     -29.16797498 Ry
     Harris-Foulkes estimate   =     -31.79766086 Ry
     estimated scf accuracy    <       3.30110303 Ry

     iteration #  2     ecut=    30.00 Ry     beta=0.70
     Davidson diagonalization with overlap
     ethr =  1.00E-02,  avg # of iterations =  4.0

     negative rho (up, down):  1.287E-02 0.000E+00

     total cpu time spent up to now is        1.5 secs

     total energy              =     -31.70184085 Ry
     Harris-Foulkes estimate   =     -38.58073040 Ry
     estimated scf accuracy    <      21.78061968 Ry

     iteration #  3     ecut=    30.00 Ry     beta=0.70
     Davidson diagonalization with overlap
     ethr =  1.00E-02,  avg # of iterations =  2.0

     negative rho (up, down):  1.809E-02 0.000E+00

     total cpu time spent up to now is        1.5 secs

     total energy              =     -30.36860765 Ry
     Harris-Foulkes estimate   =     -31.88087069 Ry
     estimated scf accuracy    <      12.48909342 Ry

     iteration #  4     ecut=    30.00 Ry     beta=0.70
     Davidson diagonalization with overlap
     ethr =  1.00E-02,  avg # of iterations =  1.0

     negative rho (up, down):  8.851E-02 0.000E+00

     total cpu time spent up to now is        1.6 secs

     total energy              =     -28.29150717 Ry
     Harris-Foulkes estimate   =     -30.38381286 Ry
     estimated scf accuracy    <      10.45987187 Ry

     iteration #  5     ecut=    30.00 Ry     beta=0.70
     Davidson diagonalization with overlap
     ethr =  1.00E-02,  avg # of iterations =  6.0

     negative rho (up, down):  1.159E-01 0.000E+00

     total cpu time spent up to now is        1.6 secs

     total energy              =     -29.96784936 Ry
     Harris-Foulkes estimate   =     -30.39904036 Ry
     estimated scf accuracy    <       2.47523856 Ry

     iteration #  6     ecut=    30.00 Ry     beta=0.70
     Davidson diagonalization with overlap
     ethr =  1.00E-02,  avg # of iterations =  5.0

     negative rho (up, down):  1.187E-01 0.000E+00

     total cpu time spent up to now is        1.7 secs

     total energy              =     -31.77362868 Ry
     Harris-Foulkes estimate   =     -31.73605788 Ry
     estimated scf accuracy    <       0.87042324 Ry

     iteration #  7     ecut=    30.00 Ry     beta=0.70
     Davidson diagonalization with overlap
     ethr =  1.00E-02,  avg # of iterations =  1.0

     negative rho (up, down):  9.900E-02 0.000E+00

     total cpu time spent up to now is        1.8 secs

     total energy              =     -31.72991387 Ry
     Harris-Foulkes estimate   =     -31.82373601 Ry
     estimated scf accuracy    <       1.49644224 Ry

     iteration #  8     ecut=    30.00 Ry     beta=0.70
     Davidson diagonalization with overlap
     ethr =  1.00E-02,  avg # of iterations =  1.0

     negative rho (up, down):  9.328E-04 0.000E+00

     total cpu time spent up to now is        1.8 secs

     total energy              =     -31.61754773 Ry
     Harris-Foulkes estimate   =     -31.74802170 Ry
     estimated scf accuracy    <       0.69236907 Ry

     iteration #  9     ecut=    30.00 Ry     beta=0.70
     Davidson diagonalization with overlap
     ethr =  8.65E-03,  avg # of iterations =  1.0

     total cpu time spent up to now is        1.9 secs

     total energy              =     -31.62105295 Ry
     Harris-Foulkes estimate   =     -31.63242633 Ry
     estimated scf accuracy    <       0.42746546 Ry

     iteration # 10     ecut=    30.00 Ry     beta=0.70
     Davidson diagonalization with overlap
     ethr =  5.34E-03,  avg # of iterations =  5.0

     total cpu time spent up to now is        1.9 secs

     total energy              =     -33.05462634 Ry
     Harris-Foulkes estimate   =     -33.16554022 Ry
     estimated scf accuracy    <       5.62093049 Ry

     iteration # 11     ecut=    30.00 Ry     beta=0.70
     Davidson diagonalization with overlap
     ethr =  5.34E-03,  avg # of iterations =  1.0

     total cpu time spent up to now is        2.0 secs

     total energy              =     -33.39401171 Ry
     Harris-Foulkes estimate   =     -33.05482704 Ry
     estimated scf accuracy    <       5.43086475 Ry

     iteration # 12     ecut=    30.00 Ry     beta=0.70
     Davidson diagonalization with overlap
     ethr =  5.34E-03,  avg # of iterations =  1.0

     total cpu time spent up to now is        2.0 secs

     total energy              =     -32.53715191 Ry
     Harris-Foulkes estimate   =     -33.39557663 Ry
     estimated scf accuracy    <       5.99312146 Ry

     iteration # 13     ecut=    30.00 Ry     beta=0.70
     Davidson diagonalization with overlap
     ethr =  5.34E-03,  avg # of iterations =  1.0

     negative rho (up, down):  1.016E+00 0.000E+00

     total cpu time spent up to now is        2.1 secs

     total energy              =    -296.86080905 Ry
     Harris-Foulkes estimate   =     -32.54577436 Ry
     estimated scf accuracy    <       4.60394571 Ry

     iteration # 14     ecut=    30.00 Ry     beta=0.70
     Davidson diagonalization with overlap
     ethr =  5.34E-03,  avg # of iterations =  6.0

     negative rho (up, down):  1.712E-03 0.000E+00

     total cpu time spent up to now is        2.2 secs

     total energy              =      68.62783812 Ry
     Harris-Foulkes estimate   =   -1685.08689942 Ry
     estimated scf accuracy    <      20.19745175 Ry

     iteration # 15     ecut=    30.00 Ry     beta=0.70
     Davidson diagonalization with overlap
     ethr =  5.34E-03,  avg # of iterations =  7.0

     negative rho (up, down):  4.210E-03 0.000E+00

     total cpu time spent up to now is        2.2 secs

     total energy              =     -31.51311009 Ry
     Harris-Foulkes estimate   =     -31.57947977 Ry
     estimated scf accuracy    <       1.14873517 Ry

     iteration # 16     ecut=    30.00 Ry     beta=0.70
     Davidson diagonalization with overlap
     ethr =  5.34E-03,  avg # of iterations =  1.0

     negative rho (up, down):  4.128E-03 0.000E+00

     total cpu time spent up to now is        2.3 secs

     total energy              =     -31.60669637 Ry
     Harris-Foulkes estimate   =     -31.56743001 Ry
     estimated scf accuracy    <       2.03974701 Ry

     iteration # 17     ecut=    30.00 Ry     beta=0.70
     Davidson diagonalization with overlap
     ethr =  5.34E-03,  avg # of iterations =  1.0

     negative rho (up, down):  3.031E-03 0.000E+00

     total cpu time spent up to now is        2.3 secs

     total energy              =     -32.40478227 Ry
     Harris-Foulkes estimate   =     -31.62573755 Ry
     estimated scf accuracy    <       5.07308310 Ry

     iteration # 18     ecut=    30.00 Ry     beta=0.70
     Davidson diagonalization with overlap
     ethr =  5.34E-03,  avg # of iterations =  2.0

     negative rho (up, down):  1.487E-03 0.000E+00

     total cpu time spent up to now is        2.4 secs

     total energy              =     -31.51198617 Ry
     Harris-Foulkes estimate   =     -32.39603149 Ry
     estimated scf accuracy    <       5.19124198 Ry

     iteration # 19     ecut=    30.00 Ry     beta=0.70
     Davidson diagonalization with overlap
     ethr =  5.34E-03,  avg # of iterations =  1.0

     negative rho (up, down):  3.185E-08 0.000E+00

     total cpu time spent up to now is        2.4 secs

     total energy              =     -31.79197082 Ry
     Harris-Foulkes estimate   =     -31.52740631 Ry
     estimated scf accuracy    <       3.32542614 Ry

     iteration # 20     ecut=    30.00 Ry     beta=0.70
     Davidson diagonalization with overlap
     ethr =  5.34E-03,  avg # of iterations =  1.0

     total cpu time spent up to now is        2.5 secs

     total energy              =     -31.49054147 Ry
     Harris-Foulkes estimate   =     -31.82162386 Ry
     estimated scf accuracy    <       4.16951047 Ry

     iteration # 21     ecut=    30.00 Ry     beta=0.70
     Davidson diagonalization with overlap
     ethr =  5.34E-03,  avg # of iterations =  1.0

     total cpu time spent up to now is        2.5 secs

     total energy              =     -31.43205966 Ry
     Harris-Foulkes estimate   =     -31.52791514 Ry
     estimated scf accuracy    <       1.21761449 Ry

     iteration # 22     ecut=    30.00 Ry     beta=0.70
     Davidson diagonalization with overlap
     ethr =  5.34E-03,  avg # of iterations =  1.0

     negative rho (up, down):  3.282E-05 0.000E+00

     total cpu time spent up to now is        2.6 secs

     total energy              =     -31.49154923 Ry
     Harris-Foulkes estimate   =     -31.68907564 Ry
     estimated scf accuracy    <       3.11263670 Ry

     iteration # 23     ecut=    30.00 Ry     beta=0.70
     Davidson diagonalization with overlap
     ethr =  5.34E-03,  avg # of iterations =  1.0

     negative rho (up, down):  2.499E-06 0.000E+00

     total cpu time spent up to now is        2.6 secs

     total energy              =     -31.47303241 Ry
     Harris-Foulkes estimate   =     -31.50461332 Ry
     estimated scf accuracy    <       0.92052607 Ry

     iteration # 24     ecut=    30.00 Ry     beta=0.70
     Davidson diagonalization with overlap
     ethr =  5.34E-03,  avg # of iterations =  1.0

     total cpu time spent up to now is        2.7 secs

     total energy              =     -31.47041486 Ry
     Harris-Foulkes estimate   =     -31.49622287 Ry
     estimated scf accuracy    <       0.51555724 Ry

     iteration # 25     ecut=    30.00 Ry     beta=0.70
     Davidson diagonalization with overlap
     ethr =  5.34E-03,  avg # of iterations =  1.0

     negative rho (up, down):  7.383E-06 0.000E+00

     total cpu time spent up to now is        2.7 secs

     total energy              =     -31.48195194 Ry
     Harris-Foulkes estimate   =     -31.51156018 Ry
     estimated scf accuracy    <       1.51927074 Ry

     iteration # 26     ecut=    30.00 Ry     beta=0.70
     Davidson diagonalization with overlap
     ethr =  5.34E-03,  avg # of iterations =  1.0

     negative rho (up, down):  2.578E-06 0.000E+00

     total cpu time spent up to now is        2.8 secs

     total energy              =     -31.49194763 Ry
     Harris-Foulkes estimate   =     -31.49151917 Ry
     estimated scf accuracy    <       0.10041310 Ry

     iteration # 27     ecut=    30.00 Ry     beta=0.70
     Davidson diagonalization with overlap
     ethr =  1.26E-03,  avg # of iterations =  1.0

     negative rho (up, down):  3.215E-06 0.000E+00

     total cpu time spent up to now is        2.8 secs

     total energy              =     -31.49247927 Ry
     Harris-Foulkes estimate   =     -31.49219062 Ry
     estimated scf accuracy    <       0.18244157 Ry

     iteration # 28     ecut=    30.00 Ry     beta=0.70
     Davidson diagonalization with overlap
     ethr =  1.26E-03,  avg # of iterations =  1.0

     negative rho (up, down):  3.594E-06 0.000E+00

     total cpu time spent up to now is        2.9 secs

     total energy              =     -31.49111812 Ry
     Harris-Foulkes estimate   =     -31.49254126 Ry
     estimated scf accuracy    <       0.21972943 Ry

     iteration # 29     ecut=    30.00 Ry     beta=0.70
     Davidson diagonalization with overlap
     ethr =  1.26E-03,  avg # of iterations =  1.0

     negative rho (up, down):  4.408E-05 0.000E+00

     total cpu time spent up to now is        2.9 secs

     total energy              =     -31.49278299 Ry
     Harris-Foulkes estimate   =     -31.49136107 Ry
     estimated scf accuracy    <       0.09827163 Ry

     iteration # 30     ecut=    30.00 Ry     beta=0.70
     Davidson diagonalization with overlap
     ethr =  1.23E-03,  avg # of iterations =  1.0

     negative rho (up, down):  5.288E-07 0.000E+00

     total cpu time spent up to now is        3.0 secs

     total energy              =     -31.48855134 Ry
     Harris-Foulkes estimate   =     -31.49333536 Ry
     estimated scf accuracy    <       0.29151158 Ry

     iteration # 31     ecut=    30.00 Ry     beta=0.70
     Davidson diagonalization with overlap
     ethr =  1.23E-03,  avg # of iterations =  1.0

     negative rho (up, down):  8.382E-08 0.000E+00

     total cpu time spent up to now is        3.0 secs

     total energy              =     -31.49031701 Ry
     Harris-Foulkes estimate   =     -31.49049546 Ry
     estimated scf accuracy    <       0.01182496 Ry

     iteration # 32     ecut=    30.00 Ry     beta=0.70
     Davidson diagonalization with overlap
     ethr =  1.48E-04,  avg # of iterations =  1.0

     total cpu time spent up to now is        3.1 secs

     total energy              =     -31.49033945 Ry
     Harris-Foulkes estimate   =     -31.49037528 Ry
     estimated scf accuracy    <       0.00158534 Ry

     iteration # 33     ecut=    30.00 Ry     beta=0.70
     Davidson diagonalization with overlap
     ethr =  1.98E-05,  avg # of iterations =  9.0

     total cpu time spent up to now is        3.1 secs

     total energy              =     -31.49035853 Ry
     Harris-Foulkes estimate   =     -31.49035866 Ry
     estimated scf accuracy    <       0.00001465 Ry

     iteration # 34     ecut=    30.00 Ry     beta=0.70
     Davidson diagonalization with overlap
     ethr =  1.83E-07,  avg # of iterations =  5.0

     total cpu time spent up to now is        3.2 secs

     total energy              =     -31.49035861 Ry
     Harris-Foulkes estimate   =     -31.49035869 Ry
     estimated scf accuracy    <       0.00000258 Ry

     iteration # 35     ecut=    30.00 Ry     beta=0.70
     Davidson diagonalization with overlap
     ethr =  3.22E-08,  avg # of iterations =  1.0

     total cpu time spent up to now is        3.2 secs

     total energy              =     -31.49035864 Ry
     Harris-Foulkes estimate   =     -31.49035864 Ry
     estimated scf accuracy    <       0.00000058 Ry

     iteration # 36     ecut=    30.00 Ry     beta=0.70
     Davidson diagonalization with overlap
     ethr =  7.28E-09,  avg # of iterations =  1.0

     total cpu time spent up to now is        3.3 secs

     total energy              =     -31.49035863 Ry
     Harris-Foulkes estimate   =     -31.49035866 Ry
     estimated scf accuracy    <       0.00000010 Ry

     iteration # 37     ecut=    30.00 Ry     beta=0.70
     Davidson diagonalization with overlap
     ethr =  1.24E-09,  avg # of iterations =  1.0

     total cpu time spent up to now is        3.3 secs

     total energy              =     -31.49035862 Ry
     Harris-Foulkes estimate   =     -31.49035864 Ry
     estimated scf accuracy    <       0.00000002 Ry

     iteration # 38     ecut=    30.00 Ry     beta=0.70
     Davidson diagonalization with overlap
     ethr =  2.01E-10,  avg # of iterations =  1.0

     total cpu time spent up to now is        3.4 secs

     End of self-consistent calculation

          k = 0.0000 0.0000 0.0000 ( 22119 PWs)   bands (ev):

   -23.6489  -7.0556  -7.0554  -7.0542  -6.9913  -6.9091  -0.2381   0.6271

     the Fermi energy is    -6.9210 ev

!    total energy              =     -31.49035866 Ry
     Harris-Foulkes estimate   =     -31.49035862 Ry
     estimated scf accuracy    <          8.3E-10 Ry

     convergence has been achieved in  38 iterations

     Forces acting on atoms (Ry/au):

     atom    1 type  2   force =     0.00030315   -0.00065388   -0.00036818
     atom    2 type  1   force =     0.00029474    0.00031907   -0.00002455
     atom    3 type  1   force =    -0.00059789    0.00033481    0.00039273

     Total force =     0.001212     Total SCF correction =     0.000088

     Entering Dynamics:    iteration =     2
                           time      =   0.0097 pico-seconds


     Andersen thermostat:    3 collisions

ATOMIC_POSITIONS (bohr)
O        5.051683255   4.645169146  15.449378135
H       -1.078992918  14.514311332   6.026187487
H        5.545040009  14.626430719   1.449974576


     kinetic energy (Ekin) =     0.00855614 Ry
     temperature           =   450.30185696 K 
     Ekin + Etot (const)   =   -31.48180252 Ry
     Message from routine dynamics:
     Total linear momentum <> 0

     Linear momentum :    0.1580234197    0.2439357172    0.0482164900

     Writing output data file pwscf.save

     first order wave-functions extrapolation
     Check: negative starting charge=   -0.353232
     first order charge density extrapolation
     Check: negative starting charge=   -0.353558

     negative rho (up, down):  4.680E-01 0.000E+00

     total cpu time spent up to now is        3.8 secs

     per-process dynamical memory:    20.4 Mb

     Self-consistent Calculation

     iteration #  1     ecut=    30.00 Ry     beta=0.70
     Davidson diagonalization with overlap
     ethr =  1.00E-06,  avg # of iterations = 14.0

     negative rho (up, down):  8.813E-02 0.000E+00

     total cpu time spent up to now is        4.0 secs

     total energy              =     -28.02204107 Ry
     Harris-Foulkes estimate   =     -32.40303199 Ry
     estimated scf accuracy    <       4.51827441 Ry

     iteration #  2     ecut=    30.00 Ry     beta=0.70
     Davidson diagonalization with overlap
     ethr =  1.00E-02,  avg # of iterations =  4.0

     negative rho (up, down):  6.503E-02 0.000E+00

     total cpu time spent up to now is        4.1 secs

     total energy              =     -32.67938836 Ry
     Harris-Foulkes estimate   =     -37.91154865 Ry
     estimated scf accuracy    <      12.72845985 Ry

     iteration #  3     ecut=    30.00 Ry     beta=0.70
     Davidson diagonalization with overlap
     ethr =  1.00E-02,  avg # of iterations =  2.0

     negative rho (up, down):  5.181E-02 0.000E+00

     total cpu time spent up to now is        4.1 secs

     total energy              =     -31.67045621 Ry
     Harris-Foulkes estimate   =     -33.00932055 Ry
     estimated scf accuracy    <       4.97858944 Ry

     iteration #  4     ecut=    30.00 Ry     beta=0.70
     Davidson diagonalization with overlap
     ethr =  1.00E-02,  avg # of iterations =  1.0

     negative rho (up, down):  2.275E-02 0.000E+00

     total cpu time spent up to now is        4.2 secs

     total energy              =     -30.06011151 Ry
     Harris-Foulkes estimate   =     -31.70003956 Ry
     estimated scf accuracy    <       2.99805353 Ry

     iteration #  5     ecut=    30.00 Ry     beta=0.70
     Davidson diagonalization with overlap
     ethr =  1.00E-02,  avg # of iterations =  6.0

     negative rho (up, down):  1.883E-02 0.000E+00

     total cpu time spent up to now is        4.3 secs

     total energy              =     -32.42194111 Ry
     Harris-Foulkes estimate   =     -34.29162801 Ry
     estimated scf accuracy    <      15.58326119 Ry

     iteration #  6     ecut=    30.00 Ry     beta=0.70
     Davidson diagonalization with overlap
     ethr =  1.00E-02,  avg # of iterations =  5.0

     negative rho (up, down):  1.442E-02 0.000E+00

     total cpu time spent up to now is        4.3 secs

     total energy              =     -32.52225480 Ry
     Harris-Foulkes estimate   =     -32.74937271 Ry
     estimated scf accuracy    <       5.70126681 Ry

     iteration #  7     ecut=    30.00 Ry     beta=0.70
     Davidson diagonalization with overlap
     ethr =  1.00E-02,  avg # of iterations =  1.0

     negative rho (up, down):  8.307E-02 0.000E+00

     total cpu time spent up to now is        4.4 secs

     total energy              =     -31.82506329 Ry
     Harris-Foulkes estimate   =     -32.52597629 Ry
     estimated scf accuracy    <       5.33301595 Ry

     iteration #  8     ecut=    30.00 Ry     beta=0.70
     Davidson diagonalization with overlap
     ethr =  1.00E-02,  avg # of iterations =  1.0

     negative rho (up, down):  1.387E-01 0.000E+00

     total cpu time spent up to now is        4.4 secs

     total energy              =     -31.51118091 Ry
     Harris-Foulkes estimate   =     -31.83801400 Ry
     estimated scf accuracy    <       4.23386947 Ry

     iteration #  9     ecut=    30.00 Ry     beta=0.70
     Davidson diagonalization with overlap
     ethr =  1.00E-02,  avg # of iterations =  1.0

     negative rho (up, down):  8.154E-02 0.000E+00

     total cpu time spent up to now is        4.5 secs

     total energy              =     -31.58892084 Ry
     Harris-Foulkes estimate   =     -31.51296096 Ry
     estimated scf accuracy    <       2.75656738 Ry

     iteration # 10     ecut=    30.00 Ry     beta=0.70
     Davidson diagonalization with overlap
     ethr =  1.00E-02,  avg # of iterations =  1.0

     negative rho (up, down):  4.562E-01 0.000E+00

     total cpu time spent up to now is        4.5 secs

     total energy              =     -31.17736706 Ry
     Harris-Foulkes estimate   =     -31.59053481 Ry
     estimated scf accuracy    <       3.69488898 Ry

     iteration # 11     ecut=    30.00 Ry     beta=0.70
     Davidson diagonalization with overlap
     ethr =  1.00E-02,  avg # of iterations =  4.0

     negative rho (up, down):  3.820E-01 0.000E+00

     total cpu time spent up to now is        4.6 secs

     total energy              =     -31.67290631 Ry
     Harris-Foulkes estimate   =     -31.80577844 Ry
     estimated scf accuracy    <       2.54669769 Ry

     iteration # 12     ecut=    30.00 Ry     beta=0.70
     Davidson diagonalization with overlap
     ethr =  1.00E-02,  avg # of iterations =  1.0

     negative rho (up, down):  3.741E-01 0.000E+00

     total cpu time spent up to now is        4.6 secs

     total energy              =     -31.70106333 Ry
     Harris-Foulkes estimate   =     -31.73684291 Ry
     estimated scf accuracy    <       1.58818286 Ry

     iteration # 13     ecut=    30.00 Ry     beta=0.70
     Davidson diagonalization with overlap
     ethr =  1.00E-02,  avg # of iterations =  1.0

     negative rho (up, down):  3.141E-01 0.000E+00

     total cpu time spent up to now is        4.7 secs

     total energy              =     -31.69901253 Ry
     Harris-Foulkes estimate   =     -31.73243206 Ry
     estimated scf accuracy    <       1.64055273 Ry

     iteration # 14     ecut=    30.00 Ry     beta=0.70
     Davidson diagonalization with overlap
     ethr =  1.00E-02,  avg # of iterations =  1.0

     negative rho (up, down):  7.644E-04 0.000E+00

     total cpu time spent up to now is        4.7 secs

     total energy              =     -31.54228493 Ry
     Harris-Foulkes estimate   =     -31.71115776 Ry
     estimated scf accuracy    <       2.93649695 Ry

     iteration # 15     ecut=    30.00 Ry     beta=0.70
     Davidson diagonalization with overlap
     ethr =  1.00E-02,  avg # of iterations =  2.0

     negative rho (up, down):  1.236E-03 0.000E+00

     total cpu time spent up to now is        4.8 secs

     total energy              =     -31.64852570 Ry
     Harris-Foulkes estimate   =     -31.65178567 Ry
     estimated scf accuracy    <       1.34789561 Ry

     iteration # 16     ecut=    30.00 Ry     beta=0.70
     Davidson diagonalization with overlap
     ethr =  1.00E-02,  avg # of iterations =  1.0

     negative rho (up, down):  1.845E-03 0.000E+00

     total cpu time spent up to now is        4.8 secs

     total energy              =     -31.63459897 Ry
     Harris-Foulkes estimate   =     -31.64857856 Ry
     estimated scf accuracy    <       1.34106948 Ry

     iteration # 17     ecut=    30.00 Ry     beta=0.70
     Davidson diagonalization with overlap
     ethr =  1.00E-02,  avg # of iterations =  1.0

     negative rho (up, down):  5.210E-04 0.000E+00

     total cpu time spent up to now is        4.9 secs

     total energy              =     -31.62458169 Ry
     Harris-Foulkes estimate   =     -31.63089516 Ry
     estimated scf accuracy    <       1.18492266 Ry

     iteration # 18     ecut=    30.00 Ry     beta=0.70
     Davidson diagonalization with overlap
     ethr =  1.00E-02,  avg # of iterations =  1.0

     negative rho (up, down):  1.605E-03 0.000E+00

     total cpu time spent up to now is        4.9 secs

     total energy              =     -31.89061786 Ry
     Harris-Foulkes estimate   =     -31.66469312 Ry
     estimated scf accuracy    <       3.21010036 Ry

     iteration # 19     ecut=    30.00 Ry     beta=0.70
     Davidson diagonalization with overlap
     ethr =  1.00E-02,  avg # of iterations =  1.0

     negative rho (up, down):  1.760E-03 0.000E+00

     total cpu time spent up to now is        5.0 secs

     total energy              =     -32.07032416 Ry
     Harris-Foulkes estimate   =     -31.93120368 Ry
     estimated scf accuracy    <       4.34969994 Ry

     iteration # 20     ecut=    30.00 Ry     beta=0.70
     Davidson diagonalization with overlap
     ethr =  1.00E-02,  avg # of iterations =  1.0

     negative rho (up, down):  6.522E-03 0.000E+00

     total cpu time spent up to now is        5.0 secs

     total energy              =     -32.35709352 Ry
     Harris-Foulkes estimate   =     -32.07095463 Ry
     estimated scf accuracy    <       4.56856445 Ry

     iteration # 21     ecut=    30.00 Ry     beta=0.70
     Davidson diagonalization with overlap
     ethr =  1.00E-02,  avg # of iterations =  1.0

     negative rho (up, down):  4.238E-03 0.000E+00

     total cpu time spent up to now is        5.1 secs

     total energy              =     -32.21643747 Ry
     Harris-Foulkes estimate   =     -32.35999424 Ry
     estimated scf accuracy    <       5.04234669 Ry

     iteration # 22     ecut=    30.00 Ry     beta=0.70
     Davidson diagonalization with overlap
     ethr =  1.00E-02,  avg # of iterations =  1.0

     negative rho (up, down):  2.026E-02 0.000E+00

     total cpu time spent up to now is        5.1 secs

     total energy              =     -31.24111773 Ry
     Harris-Foulkes estimate   =     -32.21700382 Ry
     estimated scf accuracy    <       4.82765839 Ry

     iteration # 23     ecut=    30.00 Ry     beta=0.70
     Davidson diagonalization with overlap
     ethr =  1.00E-02,  avg # of iterations =  1.0

     negative rho (up, down):  6.586E-03 0.000E+00

     total cpu time spent up to now is        5.2 secs

     total energy              =     -32.48692416 Ry
     Harris-Foulkes estimate   =     -31.65642034 Ry
     estimated scf accuracy    <       2.44128794 Ry

     iteration # 24     ecut=    30.00 Ry     beta=0.70
     Davidson diagonalization with overlap
     ethr =  1.00E-02,  avg # of iterations =  1.0

     negative rho (up, down):  6.898E-03 0.000E+00

     total cpu time spent up to now is        5.2 secs

     total energy              =     -32.52345162 Ry
     Harris-Foulkes estimate   =     -32.57113557 Ry
     estimated scf accuracy    <       4.49405086 Ry

     iteration # 25     ecut=    30.00 Ry     beta=0.70
     Davidson diagonalization with overlap
     ethr =  1.00E-02,  avg # of iterations =  1.0

     negative rho (up, down):  1.500E-02 0.000E+00

     total cpu time spent up to now is        5.3 secs

     total energy              =     -32.98491046 Ry
     Harris-Foulkes estimate   =     -32.52372098 Ry
     estimated scf accuracy    <       4.43759704 Ry

     iteration # 26     ecut=    30.00 Ry     beta=0.70
     Davidson diagonalization with overlap
     ethr =  1.00E-02,  avg # of iterations =  1.0

     negative rho (up, down):  3.765E-03 0.000E+00

     total cpu time spent up to now is        5.3 secs

     total energy              =     -31.02629062 Ry
     Harris-Foulkes estimate   =     -32.99974119 Ry
     estimated scf accuracy    <       5.10557177 Ry

     iteration # 27     ecut=    30.00 Ry     beta=0.70
     Davidson diagonalization with overlap
     ethr =  1.00E-02,  avg # of iterations =  2.0

     negative rho (up, down):  9.801E-04 0.000E+00

     total cpu time spent up to now is        5.4 secs

     total energy              =     -32.59071309 Ry
     Harris-Foulkes estimate   =     -31.94809589 Ry
     estimated scf accuracy    <       4.32358970 Ry

     iteration # 28     ecut=    30.00 Ry     beta=0.70
     Davidson diagonalization with overlap
     ethr =  1.00E-02,  avg # of iterations =  1.0

     negative rho (up, down):  7.170E-04 0.000E+00

     total cpu time spent up to now is        5.4 secs

     total energy              =     -32.52002294 Ry
     Harris-Foulkes estimate   =     -32.60337894 Ry
     estimated scf accuracy    <       5.35917840 Ry

     iteration # 29     ecut=    30.00 Ry     beta=0.70
     Davidson diagonalization with overlap
     ethr =  1.00E-02,  avg # of iterations =  1.0

     negative rho (up, down):  8.975E-04 0.000E+00

     total cpu time spent up to now is        5.5 secs

     total energy              =     -32.36755088 Ry
     Harris-Foulkes estimate   =     -32.52079886 Ry
     estimated scf accuracy    <       5.24494250 Ry

     iteration # 30     ecut=    30.00 Ry     beta=0.70
     Davidson diagonalization with overlap
     ethr =  1.00E-02,  avg # of iterations =  1.0

     negative rho (up, down):  4.513E-04 0.000E+00

     total cpu time spent up to now is        5.5 secs

     total energy              =     -32.34765284 Ry
     Harris-Foulkes estimate   =     -32.36849022 Ry
     estimated scf accuracy    <       5.02615680 Ry

     iteration # 31     ecut=    30.00 Ry     beta=0.70
     Davidson diagonalization with overlap
     ethr =  1.00E-02,  avg # of iterations =  1.0

     negative rho (up, down):  1.105E-04 0.000E+00

     total cpu time spent up to now is        5.6 secs

     total energy              =     -32.32875510 Ry
     Harris-Foulkes estimate   =     -32.34771992 Ry
     estimated scf accuracy    <       4.99395417 Ry

     iteration # 32     ecut=    30.00 Ry     beta=0.70
     Davidson diagonalization with overlap
     ethr =  1.00E-02,  avg # of iterations =  1.0

     negative rho (up, down):  8.390E-05 0.000E+00

     total cpu time spent up to now is        5.6 secs

     total energy              =     -32.23152398 Ry
     Harris-Foulkes estimate   =     -32.32887057 Ry
     estimated scf accuracy    <       4.96423168 Ry

     iteration # 33     ecut=    30.00 Ry     beta=0.70
     Davidson diagonalization with overlap
     ethr =  1.00E-02,  avg # of iterations =  1.0

     negative rho (up, down):  1.431E-03 0.000E+00

     total cpu time spent up to now is        5.6 secs

     total energy              =     -32.74277054 Ry
     Harris-Foulkes estimate   =     -32.23174328 Ry
     estimated scf accuracy    <       4.80933967 Ry

     iteration # 34     ecut=    30.00 Ry     beta=0.70
     Davidson diagonalization with overlap
     ethr =  1.00E-02,  avg # of iterations =  1.0

     negative rho (up, down):  1.069E-02 0.000E+00

     total cpu time spent up to now is        5.7 secs

     total energy              =     -32.17763529 Ry
     Harris-Foulkes estimate   =     -32.74857730 Ry
     estimated scf accuracy    <       5.65681205 Ry

     iteration # 35     ecut=    30.00 Ry     beta=0.70
     Davidson diagonalization with overlap
     ethr =  1.00E-02,  avg # of iterations =  1.0

     negative rho (up, down):  3.798E-01 0.000E+00

     total cpu time spent up to now is        5.7 secs

     total energy              =     -28.28656955 Ry
     Harris-Foulkes estimate   =     -32.18376601 Ry
     estimated scf accuracy    <       4.80645390 Ry

     iteration # 36     ecut=    30.00 Ry     beta=0.70
     Davidson diagonalization with overlap
     ethr =  1.00E-02,  avg # of iterations =  4.0

     negative rho (up, down):  9.824E-04 0.000E+00

     total cpu time spent up to now is        5.8 secs

     total energy              =     -32.71125682 Ry
     Harris-Foulkes estimate   =     -37.74302616 Ry
     estimated scf accuracy    <      11.85587633 Ry

     iteration # 37     ecut=    30.00 Ry     beta=0.70
     Davidson diagonalization with overlap
     ethr =  1.00E-02,  avg # of iterations =  2.0

     negative rho (up, down):  1.247E-04 0.000E+00

     total cpu time spent up to now is        5.9 secs

     total energy              =     -31.39738634 Ry
     Harris-Foulkes estimate   =     -32.89430357 Ry
     estimated scf accuracy    <       4.92132973 Ry

     iteration # 38     ecut=    30.00 Ry     beta=0.70
     Davidson diagonalization with overlap
     ethr =  1.00E-02,  avg # of iterations =  1.0

     negative rho (up, down):  2.926E-08 0.000E+00

     total cpu time spent up to now is        5.9 secs

     total energy              =     -31.31616340 Ry
     Harris-Foulkes estimate   =     -31.45262437 Ry
     estimated scf accuracy    <       2.59201100 Ry

     iteration # 39     ecut=    30.00 Ry     beta=0.70
     Davidson diagonalization with overlap
     ethr =  1.00E-02,  avg # of iterations =  6.0

     negative rho (up, down):  8.171E-08 0.000E+00

     total cpu time spent up to now is        6.0 secs

     total energy              =     -31.38084407 Ry
     Harris-Foulkes estimate   =     -31.65035294 Ry
     estimated scf accuracy    <       3.91039889 Ry

     iteration # 40     ecut=    30.00 Ry     beta=0.70
     Davidson diagonalization with overlap
     ethr =  1.00E-02,  avg # of iterations =  1.0

     negative rho (up, down):  4.020E-07 0.000E+00

     total cpu time spent up to now is        6.0 secs

     total energy              =     -31.44253020 Ry
     Harris-Foulkes estimate   =     -31.53067754 Ry
     estimated scf accuracy    <       2.35604639 Ry

     iteration # 41     ecut=    30.00 Ry     beta=0.70
     Davidson diagonalization with overlap
     ethr =  1.00E-02,  avg # of iterations =  1.0

     negative rho (up, down):  3.631E-08 0.000E+00

     total cpu time spent up to now is        6.1 secs

     total energy              =     -31.47871009 Ry
     Harris-Foulkes estimate   =     -31.49690203 Ry
     estimated scf accuracy    <       0.68519908 Ry

     iteration # 42     ecut=    30.00 Ry     beta=0.70
     Davidson diagonalization with overlap
     ethr =  8.56E-03,  avg # of iterations =  1.0

     total cpu time spent up to now is        6.1 secs

     total energy              =     -31.49617905 Ry
     Harris-Foulkes estimate   =     -31.49220307 Ry
     estimated scf accuracy    <       0.14314465 Ry

     iteration # 43     ecut=    30.00 Ry     beta=0.70
     Davidson diagonalization with overlap
     ethr =  1.79E-03,  avg # of iterations =  1.0

     negative rho (up, down):  1.773E-07 0.000E+00

     total cpu time spent up to now is        6.2 secs

     total energy              =     -31.49220517 Ry
     Harris-Foulkes estimate   =     -31.49919725 Ry
     estimated scf accuracy    <       0.77850098 Ry

     iteration # 44     ecut=    30.00 Ry     beta=0.70
     Davidson diagonalization with overlap
     ethr =  1.79E-03,  avg # of iterations =  1.0

     negative rho (up, down):  3.661E-07 0.000E+00

     total cpu time spent up to now is        6.2 secs

     total energy              =     -31.47948452 Ry
     Harris-Foulkes estimate   =     -31.49368158 Ry
     estimated scf accuracy    <       0.28654768 Ry

     iteration # 45     ecut=    30.00 Ry     beta=0.70
     Davidson diagonalization with overlap
     ethr =  1.79E-03,  avg # of iterations =  1.0

     total cpu time spent up to now is        6.3 secs

     total energy              =     -31.47605897 Ry
     Harris-Foulkes estimate   =     -31.49799644 Ry
     estimated scf accuracy    <       0.82451418 Ry

     iteration # 46     ecut=    30.00 Ry     beta=0.70
     Davidson diagonalization with overlap
     ethr =  1.79E-03,  avg # of iterations =  1.0

     total cpu time spent up to now is        6.3 secs

     total energy              =     -31.48918246 Ry
     Harris-Foulkes estimate   =     -31.49239831 Ry
     estimated scf accuracy    <       0.18081512 Ry

     iteration # 47     ecut=    30.00 Ry     beta=0.70
     Davidson diagonalization with overlap
     ethr =  1.79E-03,  avg # of iterations =  1.0

     total cpu time spent up to now is        6.3 secs

     total energy              =     -31.49052180 Ry
     Harris-Foulkes estimate   =     -31.49064303 Ry
     estimated scf accuracy    <       0.00102997 Ry

     iteration # 48     ecut=    30.00 Ry     beta=0.70
     Davidson diagonalization with overlap
     ethr =  1.29E-05,  avg # of iterations = 16.0

     total cpu time spent up to now is        6.4 secs

     total energy              =     -31.49040621 Ry
     Harris-Foulkes estimate   =     -31.49097155 Ry
     estimated scf accuracy    <       0.03745140 Ry

     iteration # 49     ecut=    30.00 Ry     beta=0.70
     Davidson diagonalization with overlap
     ethr =  1.29E-05,  avg # of iterations =  1.0

     total cpu time spent up to now is        6.5 secs

     total energy              =     -31.49063099 Ry
     Harris-Foulkes estimate   =     -31.49064531 Ry
     estimated scf accuracy    <       0.00091774 Ry

     iteration # 50     ecut=    30.00 Ry     beta=0.70
     Davidson diagonalization with overlap
     ethr =  1.15E-05,  avg # of iterations =  1.0

     total cpu time spent up to now is        6.5 secs

     total energy              =     -31.49063672 Ry
     Harris-Foulkes estimate   =     -31.49063652 Ry
     estimated scf accuracy    <       0.00003509 Ry

     iteration # 51     ecut=    30.00 Ry     beta=0.70
     Davidson diagonalization with overlap
     ethr =  4.39E-07,  avg # of iterations =  1.0

     total cpu time spent up to now is        6.6 secs

     total energy              =     -31.49063404 Ry
     Harris-Foulkes estimate   =     -31.49063686 Ry
     estimated scf accuracy    <       0.00009321 Ry

     iteration # 52     ecut=    30.00 Ry     beta=0.70
     Davidson diagonalization with overlap
     ethr =  4.39E-07,  avg # of iterations =  1.0

     total cpu time spent up to now is        6.6 secs

     total energy              =     -31.49063527 Ry
     Harris-Foulkes estimate   =     -31.49063538 Ry
     estimated scf accuracy    <       0.00000559 Ry

     iteration # 53     ecut=    30.00 Ry     beta=0.70
     Davidson diagonalization with overlap
     ethr =  6.98E-08,  avg # of iterations =  1.0

     total cpu time spent up to now is        6.7 secs

     total energy              =     -31.49063533 Ry
     Harris-Foulkes estimate   =     -31.49063534 Ry
     estimated scf accuracy    <       0.00000010 Ry

     iteration # 54     ecut=    30.00 Ry     beta=0.70
     Davidson diagonalization with overlap
     ethr =  1.24E-09,  avg # of iterations =  1.0

     total cpu time spent up to now is        6.7 secs

     total energy              =     -31.49063532 Ry
     Harris-Foulkes estimate   =     -31.49063533 Ry
     estimated scf accuracy    <       0.00000014 Ry

     iteration # 55     ecut=    30.00 Ry     beta=0.70
     Davidson diagonalization with overlap
     ethr =  1.24E-09,  avg # of iterations =  1.0

     total cpu time spent up to now is        6.8 secs

     End of self-consistent calculation

          k = 0.0000 0.0000 0.0000 ( 22119 PWs)   bands (ev):

   -23.6573  -7.0634  -7.0632  -7.0622  -7.0113  -6.9033  -0.2378   0.6521

     the Fermi energy is    -6.9289 ev

!    total energy              =     -31.49063530 Ry
     Harris-Foulkes estimate   =     -31.49063532 Ry
     estimated scf accuracy    <          1.7E-09 Ry

     convergence has been achieved in  55 iterations

     Forces acting on atoms (Ry/au):

     atom    1 type  2   force =     0.00052618   -0.00069981   -0.00048974
     atom    2 type  1   force =     0.00065610    0.00035364   -0.00025481
     atom    3 type  1   force =    -0.00118228    0.00034617    0.00074455

     Total force =     0.001923     Total SCF correction =     0.000027

     Entering Dynamics:    iteration =     3
                           time      =   0.0145 pico-seconds


     Andersen thermostat:    3 collisions

ATOMIC_POSITIONS (bohr)
O        5.034999163   4.654783438  15.494815389
H       -0.980554246  14.083878659   5.676285816
H        5.710903787  14.904557780   1.080078164


     kinetic energy (Ekin) =     0.03246187 Ry
     temperature           =  1708.43942725 K 
     Ekin + Etot (const)   =   -31.45817342 Ry
     Message from routine dynamics:
     Total linear momentum <> 0

     Linear momentum :   -0.3622996751    0.3797289935    0.3377364833

     Writing output data file pwscf.save

     second order wave-functions extrapolation
     Check: negative starting charge=   -0.353558
     second order charge density extrapolation
     Check: negative starting charge=   -0.352435

     negative rho (up, down):  9.532E-02 0.000E+00

     total cpu time spent up to now is        7.2 secs

     per-process dynamical memory:    20.4 Mb

     Self-consistent Calculation

     iteration #  1     ecut=    30.00 Ry     beta=0.70
     Davidson diagonalization with overlap
     c_bands:  1 eigenvalues not converged
     ethr =  1.00E-06,  avg # of iterations = 20.0

     negative rho (up, down):  2.236E-02 0.000E+00

     total cpu time spent up to now is        7.4 secs

     total energy              =     -31.39529476 Ry
     Harris-Foulkes estimate   =     -31.42536985 Ry
     estimated scf accuracy    <       0.09324046 Ry

     iteration #  2     ecut=    30.00 Ry     beta=0.70
     Davidson diagonalization with overlap
     ethr =  1.17E-03,  avg # of iterations =  2.0

     negative rho (up, down):  1.994E-02 0.000E+00

     total cpu time spent up to now is        7.5 secs

     total energy              =     -31.50561819 Ry
     Harris-Foulkes estimate   =     -32.20440731 Ry
     estimated scf accuracy    <       4.84804008 Ry

     iteration #  3     ecut=    30.00 Ry     beta=0.70
     Davidson diagonalization with overlap
     ethr =  1.17E-03,  avg # of iterations =  2.0

     negative rho (up, down):  1.971E-02 0.000E+00

     total cpu time spent up to now is        7.5 secs

     total energy              =     -31.46001176 Ry
     Harris-Foulkes estimate   =     -31.51386522 Ry
     estimated scf accuracy    <       3.63393720 Ry

     iteration #  4     ecut=    30.00 Ry     beta=0.70
     Davidson diagonalization with overlap
     ethr =  1.17E-03,  avg # of iterations =  1.0

     negative rho (up, down):  1.434E-02 0.000E+00

     total cpu time spent up to now is        7.5 secs

     total energy              =     -31.41896942 Ry
     Harris-Foulkes estimate   =     -31.47563413 Ry
     estimated scf accuracy    <       0.46114074 Ry

     iteration #  5     ecut=    30.00 Ry     beta=0.70
     Davidson diagonalization with overlap
     ethr =  1.17E-03,  avg # of iterations =  1.0

     negative rho (up, down):  4.712E-03 0.000E+00

     total cpu time spent up to now is        7.6 secs

     total energy              =     -31.44762463 Ry
     Harris-Foulkes estimate   =     -31.58263993 Ry
     estimated scf accuracy    <       2.93232195 Ry

     iteration #  6     ecut=    30.00 Ry     beta=0.70
     Davidson diagonalization with overlap
     ethr =  1.17E-03,  avg # of iterations =  1.0

     negative rho (up, down):  1.586E-03 0.000E+00

     total cpu time spent up to now is        7.6 secs

     total energy              =     -31.48814287 Ry
     Harris-Foulkes estimate   =     -31.48705931 Ry
     estimated scf accuracy    <       0.04636075 Ry

     iteration #  7     ecut=    30.00 Ry     beta=0.70
     Davidson diagonalization with overlap
     ethr =  5.80E-04,  avg # of iterations =  1.0

     negative rho (up, down):  2.022E-04 0.000E+00

     total cpu time spent up to now is        7.7 secs

     total energy              =     -31.49121103 Ry
     Harris-Foulkes estimate   =     -31.49056060 Ry
     estimated scf accuracy    <       0.08641777 Ry

     iteration #  8     ecut=    30.00 Ry     beta=0.70
     Davidson diagonalization with overlap
     ethr =  5.80E-04,  avg # of iterations =  1.0

     negative rho (up, down):  6.131E-06 0.000E+00

     total cpu time spent up to now is        7.7 secs

     total energy              =     -31.48930473 Ry
     Harris-Foulkes estimate   =     -31.49122593 Ry
     estimated scf accuracy    <       0.07934853 Ry

     iteration #  9     ecut=    30.00 Ry     beta=0.70
     Davidson diagonalization with overlap
     ethr =  5.80E-04,  avg # of iterations =  1.0

     negative rho (up, down):  3.648E-07 0.000E+00

     total cpu time spent up to now is        7.8 secs

     total energy              =     -31.49075384 Ry
     Harris-Foulkes estimate   =     -31.49057158 Ry
     estimated scf accuracy    <       0.00821048 Ry

     iteration # 10     ecut=    30.00 Ry     beta=0.70
     Davidson diagonalization with overlap
     ethr =  1.03E-04,  avg # of iterations =  8.0

     negative rho (up, down):  8.043E-08 0.000E+00

     total cpu time spent up to now is        7.8 secs

     total energy              =     -31.49002778 Ry
     Harris-Foulkes estimate   =     -31.49086257 Ry
     estimated scf accuracy    <       0.03979785 Ry

     iteration # 11     ecut=    30.00 Ry     beta=0.70
     Davidson diagonalization with overlap
     ethr =  1.03E-04,  avg # of iterations =  1.0

     total cpu time spent up to now is        7.9 secs

     total energy              =     -31.49051651 Ry
     Harris-Foulkes estimate   =     -31.49051614 Ry
     estimated scf accuracy    <       0.00109821 Ry

     iteration # 12     ecut=    30.00 Ry     beta=0.70
     Davidson diagonalization with overlap
     ethr =  1.37E-05,  avg # of iterations =  8.0

     total cpu time spent up to now is        8.0 secs

     total energy              =     -31.49049468 Ry
     Harris-Foulkes estimate   =     -31.49051680 Ry
     estimated scf accuracy    <       0.00110800 Ry

     iteration # 13     ecut=    30.00 Ry     beta=0.70
     Davidson diagonalization with overlap
     ethr =  1.37E-05,  avg # of iterations =  1.0

     total cpu time spent up to now is        8.0 secs

     total energy              =     -31.49050627 Ry
     Harris-Foulkes estimate   =     -31.49050637 Ry
     estimated scf accuracy    <       0.00000650 Ry

     iteration # 14     ecut=    30.00 Ry     beta=0.70
     Davidson diagonalization with overlap
     ethr =  8.12E-08,  avg # of iterations =  1.0

     total cpu time spent up to now is        8.1 secs

     total energy              =     -31.49050633 Ry
     Harris-Foulkes estimate   =     -31.49050634 Ry
     estimated scf accuracy    <       0.00000003 Ry

     iteration # 15     ecut=    30.00 Ry     beta=0.70
     Davidson diagonalization with overlap
     ethr =  4.10E-10,  avg # of iterations =  1.0

     total cpu time spent up to now is        8.1 secs

     End of self-consistent calculation

          k = 0.0000 0.0000 0.0000 ( 22119 PWs)   bands (ev):

   -23.6538  -7.0602  -7.0597  -7.0588  -7.0041  -6.9036  -0.2362   0.6500

     the Fermi energy is    -6.9253 ev

!    total energy              =     -31.49050627 Ry
     Harris-Foulkes estimate   =     -31.49050633 Ry
     estimated scf accuracy    <          2.2E-09 Ry

     convergence has been achieved in  15 iterations

     Forces acting on atoms (Ry/au):

     atom    1 type  2   force =     0.00060695   -0.00131929   -0.00128218
     atom    2 type  1   force =     0.00045204    0.00072444    0.00022006
     atom    3 type  1   force =    -0.00105899    0.00059486    0.00106212

     Total force =     0.002671     Total SCF correction =     0.000540
     SCF correction compared to forces is large: reduce conv_thr to get better values

     Entering Dynamics:    iteration =     4
                           time      =   0.0194 pico-seconds


     Andersen thermostat:    3 collisions

ATOMIC_POSITIONS (bohr)
O        5.042108612   4.639814181  15.476435855
H       -0.826403892  14.113667051   5.463238670
H        5.444128488  15.111906124   1.584286243


     kinetic energy (Ekin) =     0.02629881 Ry
     temperature           =  1384.08316207 K 
     Ekin + Etot (const)   =   -31.46420745 Ry
     Message from routine dynamics:
     Total linear momentum <> 0

     Linear momentum :    0.4615769637   -0.1467902696    0.5227323621

     Writing output data file pwscf.save

     second order wave-functions extrapolation
     Check: negative starting charge=   -0.352435
     second order charge density extrapolation
     Check: negative starting charge=   -0.353950

     negative rho (up, down):  4.918E-02 0.000E+00

     total cpu time spent up to now is        8.7 secs

     per-process dynamical memory:    20.4 Mb

     Self-consistent Calculation

     iteration #  1     ecut=    30.00 Ry     beta=0.70
     Davidson diagonalization with overlap
     c_bands:  1 eigenvalues not converged
     ethr =  1.00E-06,  avg # of iterations = 20.0

     negative rho (up, down):  1.077E-02 0.000E+00

     total cpu time spent up to now is        8.9 secs

     total energy              =     -31.44622255 Ry
     Harris-Foulkes estimate   =     -31.44603594 Ry
     estimated scf accuracy    <       0.04467388 Ry

     iteration #  2     ecut=    30.00 Ry     beta=0.70
     Davidson diagonalization with overlap
     ethr =  5.58E-04,  avg # of iterations =  2.0

     negative rho (up, down):  9.925E-03 0.000E+00

     total cpu time spent up to now is        8.9 secs

     total energy              =     -31.47275805 Ry
     Harris-Foulkes estimate   =     -31.93426956 Ry
     estimated scf accuracy    <       4.39937740 Ry

     iteration #  3     ecut=    30.00 Ry     beta=0.70
     Davidson diagonalization with overlap
     ethr =  5.58E-04,  avg # of iterations =  2.0

     negative rho (up, down):  9.454E-03 0.000E+00

     total cpu time spent up to now is        9.0 secs

     total energy              =     -31.47347693 Ry
     Harris-Foulkes estimate   =     -31.54151436 Ry
     estimated scf accuracy    <       1.08917010 Ry

     iteration #  4     ecut=    30.00 Ry     beta=0.70
     Davidson diagonalization with overlap
     ethr =  5.58E-04,  avg # of iterations =  1.0

     negative rho (up, down):  7.239E-03 0.000E+00

     total cpu time spent up to now is        9.0 secs

     total energy              =     -31.44729619 Ry
     Harris-Foulkes estimate   =     -31.49013078 Ry
     estimated scf accuracy    <       0.74500013 Ry

     iteration #  5     ecut=    30.00 Ry     beta=0.70
     Davidson diagonalization with overlap
     ethr =  5.58E-04,  avg # of iterations =  1.0

     negative rho (up, down):  1.491E-03 0.000E+00

     total cpu time spent up to now is        9.1 secs

     total energy              =     -31.47315227 Ry
     Harris-Foulkes estimate   =     -31.51130430 Ry
     estimated scf accuracy    <       1.70175074 Ry

     iteration #  6     ecut=    30.00 Ry     beta=0.70
     Davidson diagonalization with overlap
     ethr =  5.58E-04,  avg # of iterations =  2.0

     negative rho (up, down):  2.887E-04 0.000E+00

     total cpu time spent up to now is        9.1 secs

     total energy              =     -31.49123611 Ry
     Harris-Foulkes estimate   =     -31.49155038 Ry
     estimated scf accuracy    <       0.02243850 Ry

     iteration #  7     ecut=    30.00 Ry     beta=0.70
     Davidson diagonalization with overlap
     ethr =  2.80E-04,  avg # of iterations =  3.0

     negative rho (up, down):  6.235E-05 0.000E+00

     total cpu time spent up to now is        9.2 secs

     total energy              =     -31.49167008 Ry
     Harris-Foulkes estimate   =     -31.49211797 Ry
     estimated scf accuracy    <       0.03964328 Ry

     iteration #  8     ecut=    30.00 Ry     beta=0.70
     Davidson diagonalization with overlap
     ethr =  2.80E-04,  avg # of iterations =  1.0

     negative rho (up, down):  1.664E-06 0.000E+00

     total cpu time spent up to now is        9.2 secs

     total energy              =     -31.49123133 Ry
     Harris-Foulkes estimate   =     -31.49180897 Ry
     estimated scf accuracy    <       0.00727746 Ry

     iteration #  9     ecut=    30.00 Ry     beta=0.70
     Davidson diagonalization with overlap
     ethr =  9.10E-05,  avg # of iterations =  3.0

     total cpu time spent up to now is        9.2 secs

     total energy              =     -31.49112991 Ry
     Harris-Foulkes estimate   =     -31.49250688 Ry
     estimated scf accuracy    <       0.07544762 Ry

     iteration # 10     ecut=    30.00 Ry     beta=0.70
     Davidson diagonalization with overlap
     ethr =  9.10E-05,  avg # of iterations =  1.0

     total cpu time spent up to now is        9.3 secs

     total energy              =     -31.49174035 Ry
     Harris-Foulkes estimate   =     -31.49176221 Ry
     estimated scf accuracy    <       0.00048323 Ry

     iteration # 11     ecut=    30.00 Ry     beta=0.70
     Davidson diagonalization with overlap
     ethr =  6.04E-06,  avg # of iterations = 16.0

     total cpu time spent up to now is        9.4 secs

     total energy              =     -31.49174119 Ry
     Harris-Foulkes estimate   =     -31.49177281 Ry
     estimated scf accuracy    <       0.00165707 Ry

     iteration # 12     ecut=    30.00 Ry     beta=0.70
     Davidson diagonalization with overlap
     ethr =  6.04E-06,  avg # of iterations =  1.0

     total cpu time spent up to now is        9.4 secs

     total energy              =     -31.49175670 Ry
     Harris-Foulkes estimate   =     -31.49175683 Ry
     estimated scf accuracy    <       0.00000112 Ry

     iteration # 13     ecut=    30.00 Ry     beta=0.70
     Davidson diagonalization with overlap
     ethr =  1.41E-08,  avg # of iterations =  1.0

     total cpu time spent up to now is        9.5 secs

     total energy              =     -31.49175663 Ry
     Harris-Foulkes estimate   =     -31.49175675 Ry
     estimated scf accuracy    <       0.00000063 Ry

     iteration # 14     ecut=    30.00 Ry     beta=0.70
     Davidson diagonalization with overlap
     ethr =  7.83E-09,  avg # of iterations =  1.0

     total cpu time spent up to now is        9.5 secs

     total energy              =     -31.49175648 Ry
     Harris-Foulkes estimate   =     -31.49175669 Ry
     estimated scf accuracy    <       0.00000175 Ry

     iteration # 15     ecut=    30.00 Ry     beta=0.70
     Davidson diagonalization with overlap
     ethr =  7.83E-09,  avg # of iterations =  1.0

     total cpu time spent up to now is        9.6 secs

     End of self-consistent calculation

          k = 0.0000 0.0000 0.0000 ( 22119 PWs)   bands (ev):

   -23.6776  -7.0828  -7.0819  -7.0809  -7.0589  -6.8864  -0.2382   0.6194

     the Fermi energy is    -6.9477 ev

!    total energy              =     -31.49175652 Ry
     Harris-Foulkes estimate   =     -31.49175651 Ry
     estimated scf accuracy    <          1.9E-09 Ry

     convergence has been achieved in  15 iterations

     Forces acting on atoms (Ry/au):

     atom    1 type  2   force =     0.00054627   -0.00095522   -0.00080233
     atom    2 type  1   force =     0.00215990    0.00081470   -0.00101622
     atom    3 type  1   force =    -0.00270617    0.00014052    0.00181856

     Total force =     0.004344     Total SCF correction =     0.000109

     Entering Dynamics:    iteration =     5
                           time      =   0.0242 pico-seconds


     Andersen thermostat:    3 collisions

ATOMIC_POSITIONS (bohr)
O        5.003130861   4.645629625  15.465599765
H       -0.478491793  14.272958663   5.388606789
H        5.713685716  14.860488678   1.830578957


     kinetic energy (Ekin) =     0.02093384 Ry
     temperature           =  1101.72929830 K 
     Ekin + Etot (const)   =   -31.47082268 Ry
     Message from routine dynamics:
     Total linear momentum <> 0

     Linear momentum :    0.3141689578    0.4442669424   -0.1711262908

     Writing output data file pwscf.save

     second order wave-functions extrapolation
     Check: negative starting charge=   -0.353950
     second order charge density extrapolation
     Check: negative starting charge=   -0.354215

     negative rho (up, down):  8.663E-02 0.000E+00

     total cpu time spent up to now is       10.1 secs

     per-process dynamical memory:    20.4 Mb

     Self-consistent Calculation

     iteration #  1     ecut=    30.00 Ry     beta=0.70
     Davidson diagonalization with overlap
     ethr =  1.00E-06,  avg # of iterations = 20.0

     negative rho (up, down):  2.040E-02 0.000E+00

     total cpu time spent up to now is       10.2 secs

     total energy              =     -31.43916849 Ry
     Harris-Foulkes estimate   =     -31.42594139 Ry
     estimated scf accuracy    <       0.04294685 Ry

     iteration #  2     ecut=    30.00 Ry     beta=0.70
     Davidson diagonalization with overlap
     ethr =  5.37E-04,  avg # of iterations =  2.0

     negative rho (up, down):  1.887E-02 0.000E+00

     total cpu time spent up to now is       10.2 secs

     total energy              =     -31.47475196 Ry
     Harris-Foulkes estimate   =     -31.94762313 Ry
     estimated scf accuracy    <       4.44903983 Ry

     iteration #  3     ecut=    30.00 Ry     beta=0.70
     Davidson diagonalization with overlap
     ethr =  5.37E-04,  avg # of iterations =  2.0

     negative rho (up, down):  1.692E-02 0.000E+00

     total cpu time spent up to now is       10.3 secs

     total energy              =     -31.45918748 Ry
     Harris-Foulkes estimate   =     -31.48414606 Ry
     estimated scf accuracy    <       1.02241352 Ry

     iteration #  4     ecut=    30.00 Ry     beta=0.70
     Davidson diagonalization with overlap
     ethr =  5.37E-04,  avg # of iterations =  1.0

     negative rho (up, down):  8.341E-03 0.000E+00

     total cpu time spent up to now is       10.3 secs

     total energy              =     -31.50586662 Ry
     Harris-Foulkes estimate   =     -31.47928814 Ry
     estimated scf accuracy    <       0.16964100 Ry

     iteration #  5     ecut=    30.00 Ry     beta=0.70
     Davidson diagonalization with overlap
     ethr =  5.37E-04,  avg # of iterations =  1.0

     negative rho (up, down):  4.025E-03 0.000E+00

     total cpu time spent up to now is       10.4 secs

     total energy              =     -31.47214648 Ry
     Harris-Foulkes estimate   =     -31.57614908 Ry
     estimated scf accuracy    <       2.93929568 Ry

     iteration #  6     ecut=    30.00 Ry     beta=0.70
     Davidson diagonalization with overlap
     ethr =  5.37E-04,  avg # of iterations =  1.0

     negative rho (up, down):  1.326E-03 0.000E+00

     total cpu time spent up to now is       10.4 secs

     total energy              =     -31.48870672 Ry
     Harris-Foulkes estimate   =     -31.49228390 Ry
     estimated scf accuracy    <       0.27494949 Ry

     iteration #  7     ecut=    30.00 Ry     beta=0.70
     Davidson diagonalization with overlap
     ethr =  5.37E-04,  avg # of iterations =  3.0

     negative rho (up, down):  2.767E-05 0.000E+00

     total cpu time spent up to now is       10.5 secs

     total energy              =     -31.49265431 Ry
     Harris-Foulkes estimate   =     -31.49223072 Ry
     estimated scf accuracy    <       0.00557599 Ry

     iteration #  8     ecut=    30.00 Ry     beta=0.70
     Davidson diagonalization with overlap
     ethr =  6.97E-05,  avg # of iterations =  3.0

     negative rho (up, down):  1.790E-06 0.000E+00

     total cpu time spent up to now is       10.5 secs

     total energy              =     -31.49253446 Ry
     Harris-Foulkes estimate   =     -31.49267126 Ry
     estimated scf accuracy    <       0.00296617 Ry

     iteration #  9     ecut=    30.00 Ry     beta=0.70
     Davidson diagonalization with overlap
     ethr =  3.71E-05,  avg # of iterations =  1.0

     negative rho (up, down):  2.674E-08 0.000E+00

     total cpu time spent up to now is       10.6 secs

     total energy              =     -31.49296532 Ry
     Harris-Foulkes estimate   =     -31.49273779 Ry
     estimated scf accuracy    <       0.00842202 Ry

     iteration # 10     ecut=    30.00 Ry     beta=0.70
     Davidson diagonalization with overlap
     ethr =  3.71E-05,  avg # of iterations =  1.0

     total cpu time spent up to now is       10.6 secs

     total energy              =     -31.49197893 Ry
     Harris-Foulkes estimate   =     -31.49312022 Ry
     estimated scf accuracy    <       0.04704989 Ry

     iteration # 11     ecut=    30.00 Ry     beta=0.70
     Davidson diagonalization with overlap
     ethr =  3.71E-05,  avg # of iterations =  1.0

     total cpu time spent up to now is       10.7 secs

     total energy              =     -31.49263486 Ry
     Harris-Foulkes estimate   =     -31.49268981 Ry
     estimated scf accuracy    <       0.00315876 Ry

     iteration # 12     ecut=    30.00 Ry     beta=0.70
     Davidson diagonalization with overlap
     ethr =  3.71E-05,  avg # of iterations =  1.0

     total cpu time spent up to now is       10.7 secs

     total energy              =     -31.49265992 Ry
     Harris-Foulkes estimate   =     -31.49265954 Ry
     estimated scf accuracy    <       0.00002818 Ry

     iteration # 13     ecut=    30.00 Ry     beta=0.70
     Davidson diagonalization with overlap
     ethr =  3.52E-07,  avg # of iterations =  7.0

     total cpu time spent up to now is       10.8 secs

     total energy              =     -31.49265789 Ry
     Harris-Foulkes estimate   =     -31.49266047 Ry
     estimated scf accuracy    <       0.00016442 Ry

     iteration # 14     ecut=    30.00 Ry     beta=0.70
     Davidson diagonalization with overlap
     ethr =  3.52E-07,  avg # of iterations =  1.0

     total cpu time spent up to now is       10.9 secs

     total energy              =     -31.49265813 Ry
     Harris-Foulkes estimate   =     -31.49265850 Ry
     estimated scf accuracy    <       0.00002373 Ry

     iteration # 15     ecut=    30.00 Ry     beta=0.70
     Davidson diagonalization with overlap
     ethr =  2.97E-07,  avg # of iterations =  1.0

     total cpu time spent up to now is       10.9 secs

     total energy              =     -31.49265834 Ry
     Harris-Foulkes estimate   =     -31.49265835 Ry
     estimated scf accuracy    <       0.00000001 Ry

     iteration # 16     ecut=    30.00 Ry     beta=0.70
     Davidson diagonalization with overlap
     ethr =  1.29E-10,  avg # of iterations =  1.0

     total cpu time spent up to now is       11.0 secs

     End of self-consistent calculation

          k = 0.0000 0.0000 0.0000 ( 22119 PWs)   bands (ev):

   -23.6903  -7.0941  -7.0936  -7.0924  -7.0871  -6.8768  -0.2398   0.6055

     the Fermi energy is    -6.9594 ev

!    total energy              =     -31.49265832 Ry
     Harris-Foulkes estimate   =     -31.49265834 Ry
     estimated scf accuracy    <          4.7E-09 Ry

     convergence has been achieved in  16 iterations

     Forces acting on atoms (Ry/au):

     atom    1 type  2   force =     0.00006194   -0.00092967   -0.00085610
     atom    2 type  1   force =     0.00361929    0.00082200   -0.00161512
     atom    3 type  1   force =    -0.00368123    0.00010767    0.00247121

     Total force =     0.006136     Total SCF correction =     0.000061

     Entering Dynamics:    iteration =     6
                           time      =   0.0290 pico-seconds


     Andersen thermostat:    3 collisions

ATOMIC_POSITIONS (bohr)
O        5.012972357   4.623244833  15.472380805
H       -0.466624748  14.263159828   5.662868379
H        5.545913790  15.224898071   1.448894942


     kinetic energy (Ekin) =     0.02162936 Ry
     temperature           =  1138.33370874 K 
     Ekin + Etot (const)   =   -31.47102896 Ry
     Message from routine dynamics:
     Total linear momentum <> 0

     Linear momentum :    0.2555320286    0.2087912248   -0.3907190118

     Writing output data file pwscf.save

     second order wave-functions extrapolation
     Check: negative starting charge=   -0.354215
     second order charge density extrapolation
     Check: negative starting charge=   -0.353703

     negative rho (up, down):  4.738E-02 0.000E+00

     total cpu time spent up to now is       11.5 secs

     per-process dynamical memory:    20.4 Mb

     Self-consistent Calculation

     iteration #  1     ecut=    30.00 Ry     beta=0.70
     Davidson diagonalization with overlap
     c_bands:  1 eigenvalues not converged
     ethr =  1.00E-06,  avg # of iterations = 20.0

     negative rho (up, down):  1.049E-02 0.000E+00

     total cpu time spent up to now is       11.6 secs

     total energy              =     -31.46219359 Ry
     Harris-Foulkes estimate   =     -31.44954078 Ry
     estimated scf accuracy    <       0.02487990 Ry

     iteration #  2     ecut=    30.00 Ry     beta=0.70
     Davidson diagonalization with overlap
     ethr =  3.11E-04,  avg # of iterations =  2.0

     negative rho (up, down):  9.830E-03 0.000E+00

     total cpu time spent up to now is       11.7 secs

     total energy              =     -31.47148213 Ry
     Harris-Foulkes estimate   =     -31.83489210 Ry
     estimated scf accuracy    <       4.23367406 Ry

     iteration #  3     ecut=    30.00 Ry     beta=0.70
     Davidson diagonalization with overlap
     ethr =  3.11E-04,  avg # of iterations =  2.0

     negative rho (up, down):  9.561E-03 0.000E+00

     total cpu time spent up to now is       11.7 secs

     total energy              =     -31.48365782 Ry
     Harris-Foulkes estimate   =     -31.48674512 Ry
     estimated scf accuracy    <       0.40169816 Ry

     iteration #  4     ecut=    30.00 Ry     beta=0.70
     Davidson diagonalization with overlap
     ethr =  3.11E-04,  avg # of iterations =  1.0

     negative rho (up, down):  2.869E-03 0.000E+00

     total cpu time spent up to now is       11.8 secs

     total energy              =     -31.46924438 Ry
     Harris-Foulkes estimate   =     -31.48503825 Ry
     estimated scf accuracy    <       0.22553922 Ry

     iteration #  5     ecut=    30.00 Ry     beta=0.70
     Davidson diagonalization with overlap
     ethr =  3.11E-04,  avg # of iterations =  2.0

     negative rho (up, down):  1.403E-03 0.000E+00

     total cpu time spent up to now is       11.8 secs

     total energy              =     -31.47311554 Ry
     Harris-Foulkes estimate   =     -31.52575979 Ry
     estimated scf accuracy    <       2.25539570 Ry

     iteration #  6     ecut=    30.00 Ry     beta=0.70
     Davidson diagonalization with overlap
     ethr =  3.11E-04,  avg # of iterations =  1.0

     negative rho (up, down):  3.080E-04 0.000E+00

     total cpu time spent up to now is       11.9 secs

     total energy              =     -31.49092581 Ry
     Harris-Foulkes estimate   =     -31.49186728 Ry
     estimated scf accuracy    <       0.05500486 Ry

     iteration #  7     ecut=    30.00 Ry     beta=0.70
     Davidson diagonalization with overlap
     ethr =  3.11E-04,  avg # of iterations =  3.0

     negative rho (up, down):  4.233E-05 0.000E+00

     total cpu time spent up to now is       11.9 secs

     total energy              =     -31.49194625 Ry
     Harris-Foulkes estimate   =     -31.49194274 Ry
     estimated scf accuracy    <       0.00856691 Ry

     iteration #  8     ecut=    30.00 Ry     beta=0.70
     Davidson diagonalization with overlap
     ethr =  1.07E-04,  avg # of iterations =  1.0

     negative rho (up, down):  3.290E-08 0.000E+00

     total cpu time spent up to now is       12.0 secs

     total energy              =     -31.49165283 Ry
     Harris-Foulkes estimate   =     -31.49194988 Ry
     estimated scf accuracy    <       0.00837295 Ry

     iteration #  9     ecut=    30.00 Ry     beta=0.70
     Davidson diagonalization with overlap
     ethr =  1.05E-04,  avg # of iterations =  1.0

     total cpu time spent up to now is       12.0 secs

     total energy              =     -31.49205291 Ry
     Harris-Foulkes estimate   =     -31.49197242 Ry
     estimated scf accuracy    <       0.00862270 Ry

     iteration # 10     ecut=    30.00 Ry     beta=0.70
     Davidson diagonalization with overlap
     ethr =  1.05E-04,  avg # of iterations =  1.0

     total cpu time spent up to now is       12.1 secs

     total energy              =     -31.49166190 Ry
     Harris-Foulkes estimate   =     -31.49207251 Ry
     estimated scf accuracy    <       0.01894696 Ry

     iteration # 11     ecut=    30.00 Ry     beta=0.70
     Davidson diagonalization with overlap
     ethr =  1.05E-04,  avg # of iterations =  1.0

     total cpu time spent up to now is       12.1 secs

     total energy              =     -31.49188514 Ry
     Harris-Foulkes estimate   =     -31.49189457 Ry
     estimated scf accuracy    <       0.00039559 Ry

     iteration # 12     ecut=    30.00 Ry     beta=0.70
     Davidson diagonalization with overlap
     ethr =  4.94E-06,  avg # of iterations =  8.0

     total cpu time spent up to now is       12.2 secs

     total energy              =     -31.49189074 Ry
     Harris-Foulkes estimate   =     -31.49189097 Ry
     estimated scf accuracy    <       0.00002455 Ry

     iteration # 13     ecut=    30.00 Ry     beta=0.70
     Davidson diagonalization with overlap
     ethr =  3.07E-07,  avg # of iterations =  1.0

     total cpu time spent up to now is       12.2 secs

     total energy              =     -31.49189099 Ry
     Harris-Foulkes estimate   =     -31.49189081 Ry
[...]

     total cpu time spent up to now is       25.7 secs

     total energy              =    -186.28782400 Ry
     Harris-Foulkes estimate   =    -241.82579534 Ry
     estimated scf accuracy    <      29.64312068 Ry

     iteration # 59     ecut=    30.00 Ry     beta=0.70
     Davidson diagonalization with overlap
     ethr =  1.00E-02,  avg # of iterations =  6.0

     negative rho (up, down):  4.893E-01 0.000E+00

     total cpu time spent up to now is       25.8 secs

     total energy              =    -300.26937591 Ry
     Harris-Foulkes estimate   =   -2584.34913882 Ry
     estimated scf accuracy    <      39.81355175 Ry

     iteration # 60     ecut=    30.00 Ry     beta=0.70
     Davidson diagonalization with overlap
     ethr =  1.00E-02,  avg # of iterations =  7.0

     negative rho (up, down):  6.313E-01 0.000E+00

     total cpu time spent up to now is       25.8 secs

     total energy              =    -166.57875367 Ry
     Harris-Foulkes estimate   =   -4738.69497340 Ry
     estimated scf accuracy    <      39.20484751 Ry

     iteration # 61     ecut=    30.00 Ry     beta=0.70
     Davidson diagonalization with overlap
     ethr =  1.00E-02,  avg # of iterations =  9.0

     negative rho (up, down):  8.736E-01 0.000E+00

     total cpu time spent up to now is       25.9 secs

     total energy              =    -206.88049122 Ry
     Harris-Foulkes estimate   =   -3768.34953359 Ry
     estimated scf accuracy    <      38.53044378 Ry

     iteration # 62     ecut=    30.00 Ry     beta=0.70
     Davidson diagonalization with overlap
     ethr =  1.00E-02,  avg # of iterations =  7.0

     negative rho (up, down):  9.690E-03 0.000E+00

     total cpu time spent up to now is       26.0 secs

     total energy              =      86.06421609 Ry
     Harris-Foulkes estimate   =   -2400.18524769 Ry
     estimated scf accuracy    <      18.57736867 Ry

     iteration # 63     ecut=    30.00 Ry     beta=0.70
     Davidson diagonalization with overlap
     ethr =  1.00E-02,  avg # of iterations =  7.0

     negative rho (up, down):  4.475E-01 0.000E+00

     total cpu time spent up to now is       26.1 secs

     total energy              =      24.19157136 Ry
     Harris-Foulkes estimate   =    -297.85765052 Ry
     estimated scf accuracy    <      30.41292793 Ry

     iteration # 64     ecut=    30.00 Ry     beta=0.70
     Davidson diagonalization with overlap
     ethr =  1.00E-02,  avg # of iterations =  7.0

     negative rho (up, down):  7.376E-01 0.000E+00

     total cpu time spent up to now is       26.2 secs

     total energy              =      32.31849254 Ry
     Harris-Foulkes estimate   =    -313.40331158 Ry
     estimated scf accuracy    <      32.27858936 Ry

     iteration # 65     ecut=    30.00 Ry     beta=0.70
     Davidson diagonalization with overlap
     ethr =  1.00E-02,  avg # of iterations =  8.0

     negative rho (up, down):  8.009E-01 0.000E+00

     total cpu time spent up to now is       26.3 secs

     total energy              =      68.88602941 Ry
     Harris-Foulkes estimate   =   -1641.45222480 Ry
     estimated scf accuracy    <      23.06143089 Ry

     iteration # 66     ecut=    30.00 Ry     beta=0.70
     Davidson diagonalization with overlap
     ethr =  1.00E-02,  avg # of iterations =  7.0

     negative rho (up, down):  1.016E+00 0.000E+00

     total cpu time spent up to now is       26.4 secs

     total energy              =       8.89729385 Ry
     Harris-Foulkes estimate   =   -2069.87124739 Ry
     estimated scf accuracy    <      33.17591915 Ry

     iteration # 67     ecut=    30.00 Ry     beta=0.70
     Davidson diagonalization with overlap
     ethr =  1.00E-02,  avg # of iterations =  8.0

     negative rho (up, down):  1.103E+00 0.000E+00

     total cpu time spent up to now is       26.5 secs

     total energy              =    5133.95188488 Ry
     Harris-Foulkes estimate   =   -5998.80186662 Ry
     estimated scf accuracy    <      24.61900195 Ry

     iteration # 68     ecut=    30.00 Ry     beta=0.70
     Davidson diagonalization with overlap
     ethr =  1.00E-02,  avg # of iterations =  8.0

     negative rho (up, down):  3.189E-01 0.000E+00

     total cpu time spent up to now is       26.6 secs

     total energy              =      78.77799763 Ry
     Harris-Foulkes estimate   =  -84118.64747687 Ry
     estimated scf accuracy    <      18.44701800 Ry

     iteration # 69     ecut=    30.00 Ry     beta=0.70
     Davidson diagonalization with overlap
     ethr =  1.00E-02,  avg # of iterations =  8.0

     negative rho (up, down):  5.681E-01 0.000E+00

     total cpu time spent up to now is       26.7 secs

     total energy              =      17.21484660 Ry
     Harris-Foulkes estimate   =   -1138.67124102 Ry
     estimated scf accuracy    <      37.11513774 Ry

     iteration # 70     ecut=    30.00 Ry     beta=0.70
     Davidson diagonalization with overlap
     ethr =  1.00E-02,  avg # of iterations =  6.0

     negative rho (up, down):  5.414E-01 0.000E+00

     total cpu time spent up to now is       26.7 secs

     total energy              =   -1918.64620315 Ry
     Harris-Foulkes estimate   =   -2648.45705293 Ry
     estimated scf accuracy    <      21.19429849 Ry

     iteration # 71     ecut=    30.00 Ry     beta=0.70
     Davidson diagonalization with overlap
     ethr =  1.00E-02,  avg # of iterations =  5.0

     negative rho (up, down):  6.091E-01 0.000E+00

     total cpu time spent up to now is       26.8 secs

     total energy              =    -997.18298650 Ry
     Harris-Foulkes estimate   =  -16188.15004118 Ry
     estimated scf accuracy    <      19.58600983 Ry

     iteration # 72     ecut=    30.00 Ry     beta=0.70
     Davidson diagonalization with overlap
     ethr =  1.00E-02,  avg # of iterations =  7.0

     negative rho (up, down):  6.876E-02 0.000E+00

     total cpu time spent up to now is       26.9 secs

     total energy              =      77.88468654 Ry
     Harris-Foulkes estimate   =  -19790.75103559 Ry
     estimated scf accuracy    <      20.86444498 Ry

     iteration # 73     ecut=    30.00 Ry     beta=0.70
     Davidson diagonalization with overlap
     ethr =  1.00E-02,  avg # of iterations = 11.0

     negative rho (up, down):  3.891E-02 0.000E+00

     total cpu time spent up to now is       27.0 secs

     total energy              =     -98.64468745 Ry
     Harris-Foulkes estimate   =    -126.69883897 Ry
     estimated scf accuracy    <      10.27116631 Ry

     iteration # 74     ecut=    30.00 Ry     beta=0.70
     Davidson diagonalization with overlap
     ethr =  1.00E-02,  avg # of iterations =  6.0

     negative rho (up, down):  7.620E-03 0.000E+00

     total cpu time spent up to now is       27.1 secs

     total energy              =      40.34270510 Ry
     Harris-Foulkes estimate   =    -747.87852905 Ry
     estimated scf accuracy    <      25.34871211 Ry

     iteration # 75     ecut=    30.00 Ry     beta=0.70
     Davidson diagonalization with overlap
     ethr =  1.00E-02,  avg # of iterations =  5.0

     negative rho (up, down):  8.109E-03 0.000E+00

     total cpu time spent up to now is       27.1 secs

     total energy              =      -5.10083741 Ry
     Harris-Foulkes estimate   =     -67.46534959 Ry
     estimated scf accuracy    <      10.96542697 Ry

     iteration # 76     ecut=    30.00 Ry     beta=0.70
     Davidson diagonalization with overlap
     ethr =  1.00E-02,  avg # of iterations =  5.0

     negative rho (up, down):  4.743E-03 0.000E+00

     total cpu time spent up to now is       27.2 secs

     total energy              =      -6.31280599 Ry
     Harris-Foulkes estimate   =    -262.33914381 Ry
     estimated scf accuracy    <      12.68492699 Ry

     iteration # 77     ecut=    30.00 Ry     beta=0.70
     Davidson diagonalization with overlap
     ethr =  1.00E-02,  avg # of iterations =  4.0

     total cpu time spent up to now is       27.3 secs

     total energy              =     -32.13784498 Ry
     Harris-Foulkes estimate   =     -34.27427286 Ry
     estimated scf accuracy    <       8.70163004 Ry

     iteration # 78     ecut=    30.00 Ry     beta=0.70
     Davidson diagonalization with overlap
     ethr =  1.00E-02,  avg # of iterations =  2.0

     negative rho (up, down):  1.319E-02 0.000E+00

     total cpu time spent up to now is       27.3 secs

     total energy              =     -32.46391580 Ry
     Harris-Foulkes estimate   =     -33.46396701 Ry
     estimated scf accuracy    <       7.95807029 Ry

     iteration # 79     ecut=    30.00 Ry     beta=0.70
     Davidson diagonalization with overlap
     ethr =  1.00E-02,  avg # of iterations =  3.0

     negative rho (up, down):  2.874E-02 0.000E+00

     total cpu time spent up to now is       27.4 secs

     total energy              =    -853.30343849 Ry
     Harris-Foulkes estimate   =     -40.85860806 Ry
     estimated scf accuracy    <      11.18451013 Ry

     iteration # 80     ecut=    30.00 Ry     beta=0.70
     Davidson diagonalization with overlap
     ethr =  1.00E-02,  avg # of iterations =  4.0

     negative rho (up, down):  5.208E-03 0.000E+00

     total cpu time spent up to now is       27.4 secs

     total energy              =      33.75675873 Ry
     Harris-Foulkes estimate   =   -5561.10240300 Ry
     estimated scf accuracy    <      22.50151649 Ry

     iteration # 81     ecut=    30.00 Ry     beta=0.70
     Davidson diagonalization with overlap
     ethr =  1.00E-02,  avg # of iterations =  4.0

     negative rho (up, down):  7.957E-03 0.000E+00

     total cpu time spent up to now is       27.5 secs

     total energy              =     -10.45932500 Ry
     Harris-Foulkes estimate   =     -49.87239587 Ry
     estimated scf accuracy    <      10.07263534 Ry

     iteration # 82     ecut=    30.00 Ry     beta=0.70
     Davidson diagonalization with overlap
     ethr =  1.00E-02,  avg # of iterations =  4.0

     negative rho (up, down):  1.011E-02 0.000E+00

     total cpu time spent up to now is       27.6 secs

     total energy              =     -21.01555599 Ry
     Harris-Foulkes estimate   =     -43.03431502 Ry
     estimated scf accuracy    <       6.68461460 Ry

     iteration # 83     ecut=    30.00 Ry     beta=0.70
     Davidson diagonalization with overlap
     ethr =  1.00E-02,  avg # of iterations =  3.0

     negative rho (up, down):  1.496E-03 0.000E+00

     total cpu time spent up to now is       27.6 secs

     total energy              =     -31.97942567 Ry
     Harris-Foulkes estimate   =     -32.55085636 Ry
     estimated scf accuracy    <       3.00685906 Ry

     iteration # 84     ecut=    30.00 Ry     beta=0.70
     Davidson diagonalization with overlap
     ethr =  1.00E-02,  avg # of iterations =  1.0

     negative rho (up, down):  3.711E-03 0.000E+00

     total cpu time spent up to now is       27.7 secs

     total energy              =     -31.67351003 Ry
     Harris-Foulkes estimate   =     -32.31453744 Ry
     estimated scf accuracy    <       2.73481691 Ry

     iteration # 85     ecut=    30.00 Ry     beta=0.70
     Davidson diagonalization with overlap
     ethr =  1.00E-02,  avg # of iterations =  4.0

     negative rho (up, down):  1.748E-04 0.000E+00

     total cpu time spent up to now is       27.7 secs

     total energy              =      -4.87628727 Ry
     Harris-Foulkes estimate   =     -59.12929761 Ry
     estimated scf accuracy    <       7.09850315 Ry

     iteration # 86     ecut=    30.00 Ry     beta=0.70
     Davidson diagonalization with overlap
     ethr =  1.00E-02,  avg # of iterations =  4.0

     negative rho (up, down):  4.874E-04 0.000E+00

     total cpu time spent up to now is       27.8 secs

     total energy              =     -31.73588220 Ry
     Harris-Foulkes estimate   =     -31.82945521 Ry
     estimated scf accuracy    <       1.01932995 Ry

     iteration # 87     ecut=    30.00 Ry     beta=0.70
     Davidson diagonalization with overlap
     ethr =  1.00E-02,  avg # of iterations =  1.0

     negative rho (up, down):  3.007E-04 0.000E+00

     total cpu time spent up to now is       27.8 secs

     total energy              =     -31.81914731 Ry
     Harris-Foulkes estimate   =     -31.86134113 Ry
     estimated scf accuracy    <       4.70106030 Ry

     iteration # 88     ecut=    30.00 Ry     beta=0.70
     Davidson diagonalization with overlap
     ethr =  1.00E-02,  avg # of iterations =  1.0

     negative rho (up, down):  2.023E-04 0.000E+00

     total cpu time spent up to now is       27.9 secs

     total energy              =     -31.80070396 Ry
     Harris-Foulkes estimate   =     -31.82936306 Ry
     estimated scf accuracy    <       4.32036112 Ry

     iteration # 89     ecut=    30.00 Ry     beta=0.70
     Davidson diagonalization with overlap
     ethr =  1.00E-02,  avg # of iterations =  1.0

     total cpu time spent up to now is       27.9 secs

     total energy              =     -31.76078082 Ry
     Harris-Foulkes estimate   =     -31.81073131 Ry
     estimated scf accuracy    <       4.51101766 Ry

     iteration # 90     ecut=    30.00 Ry     beta=0.70
     Davidson diagonalization with overlap
     ethr =  1.00E-02,  avg # of iterations =  1.0

     negative rho (up, down):  7.152E-04 0.000E+00

     total cpu time spent up to now is       28.0 secs

     total energy              =     -31.40131061 Ry
     Harris-Foulkes estimate   =     -31.77079127 Ry
     estimated scf accuracy    <       4.80000738 Ry

     iteration # 91     ecut=    30.00 Ry     beta=0.70
     Davidson diagonalization with overlap
     ethr =  1.00E-02,  avg # of iterations =  1.0

     negative rho (up, down):  2.430E-03 0.000E+00

     total cpu time spent up to now is       28.0 secs

     total energy              =     -31.57548308 Ry
     Harris-Foulkes estimate   =     -31.62570781 Ry
     estimated scf accuracy    <       1.14409287 Ry

     iteration # 92     ecut=    30.00 Ry     beta=0.70
     Davidson diagonalization with overlap
     ethr =  1.00E-02,  avg # of iterations =  1.0

     negative rho (up, down):  8.179E-04 0.000E+00

     total cpu time spent up to now is       28.1 secs

     total energy              =     -31.64658269 Ry
     Harris-Foulkes estimate   =     -31.76262961 Ry
     estimated scf accuracy    <       1.71320599 Ry

     iteration # 93     ecut=    30.00 Ry     beta=0.70
     Davidson diagonalization with overlap
     ethr =  1.00E-02,  avg # of iterations =  2.0

     negative rho (up, down):  9.305E-04 0.000E+00

     total cpu time spent up to now is       28.1 secs

     total energy              =     -31.67569983 Ry
     Harris-Foulkes estimate   =     -31.69564326 Ry
     estimated scf accuracy    <       2.99244832 Ry

     iteration # 94     ecut=    30.00 Ry     beta=0.70
     Davidson diagonalization with overlap
     ethr =  1.00E-02,  avg # of iterations =  1.0

     negative rho (up, down):  2.979E-03 0.000E+00

     total cpu time spent up to now is       28.2 secs

     total energy              =     -31.11720516 Ry
     Harris-Foulkes estimate   =     -31.67726397 Ry
     estimated scf accuracy    <       2.70020809 Ry

     iteration # 95     ecut=    30.00 Ry     beta=0.70
     Davidson diagonalization with overlap
     ethr =  1.00E-02,  avg # of iterations =  2.0

     negative rho (up, down):  2.052E-03 0.000E+00

     total cpu time spent up to now is       28.2 secs

     total energy              =     -31.54480620 Ry
     Harris-Foulkes estimate   =     -31.60420621 Ry
     estimated scf accuracy    <       1.12294295 Ry

     iteration # 96     ecut=    30.00 Ry     beta=0.70
     Davidson diagonalization with overlap
     ethr =  1.00E-02,  avg # of iterations =  2.0

     negative rho (up, down):  3.636E-05 0.000E+00

     total cpu time spent up to now is       28.3 secs

     total energy              =     -31.43695531 Ry
     Harris-Foulkes estimate   =     -31.66918539 Ry
     estimated scf accuracy    <       2.72674312 Ry

     iteration # 97     ecut=    30.00 Ry     beta=0.70
     Davidson diagonalization with overlap
     ethr =  1.00E-02,  avg # of iterations =  1.0

     negative rho (up, down):  8.652E-04 0.000E+00

     total cpu time spent up to now is       28.3 secs

     total energy              =     -31.61227152 Ry
     Harris-Foulkes estimate   =     -31.57354033 Ry
     estimated scf accuracy    <       1.18328452 Ry

     iteration # 98     ecut=    30.00 Ry     beta=0.70
     Davidson diagonalization with overlap
     ethr =  1.00E-02,  avg # of iterations =  1.0

     negative rho (up, down):  5.285E-07 0.000E+00

     total cpu time spent up to now is       28.4 secs

     total energy              =     -31.45463432 Ry
     Harris-Foulkes estimate   =     -31.64534333 Ry
     estimated scf accuracy    <       1.79898164 Ry

     iteration # 99     ecut=    30.00 Ry     beta=0.70
     Davidson diagonalization with overlap
     ethr =  1.00E-02,  avg # of iterations =  1.0

     negative rho (up, down):  1.639E-05 0.000E+00

     total cpu time spent up to now is       28.4 secs

     total energy              =     -31.48599346 Ry
     Harris-Foulkes estimate   =     -31.51377679 Ry
     estimated scf accuracy    <       0.34805093 Ry

     iteration #100     ecut=    30.00 Ry     beta=0.70
     Davidson diagonalization with overlap
     ethr =  4.35E-03,  avg # of iterations =  1.0

     negative rho (up, down):  9.243E-06 0.000E+00

     total cpu time spent up to now is       28.5 secs

     total energy              =     -31.49746782 Ry
     Harris-Foulkes estimate   =     -31.51143100 Ry
     estimated scf accuracy    <       0.38187100 Ry

     End of self-consistent calculation

     convergence NOT achieved after 100 iterations: stopping

     Writing output data file pwscf.save
 
     init_run     :      0.17s CPU      0.19s WALL (       1 calls)
     electrons    :     19.53s CPU     23.75s WALL (      12 calls)
     update_pot   :      2.41s CPU      3.06s WALL (      11 calls)
     forces       :      0.47s CPU      0.50s WALL (      11 calls)

     Called by init_run:
     wfcinit      :      0.01s CPU      0.02s WALL (       1 calls)
     potinit      :      0.05s CPU      0.05s WALL (       1 calls)

     Called by electrons:
     c_bands      :      9.69s CPU     10.11s WALL (     384 calls)
     sum_band     :      1.93s CPU      2.00s WALL (     384 calls)
     v_of_rho     :      4.71s CPU      4.97s WALL (     396 calls)
     mix_rho      :      2.54s CPU      5.09s WALL (     384 calls)

     Called by c_bands:
     init_us_2    :      0.06s CPU      0.07s WALL (     769 calls)
     cegterg      :      9.58s CPU      9.89s WALL (     384 calls)

     Called by sum_band:

     Called by *egterg:
     h_psi        :      8.14s CPU      8.38s WALL (    1704 calls)
     g_psi        :      0.09s CPU      0.09s WALL (    1319 calls)
     cdiaghg      :      0.56s CPU      0.58s WALL (    1692 calls)

     Called by h_psi:
     h_psi:pot    :      8.09s CPU      8.33s WALL (    1704 calls)
     h_psi:calbec :      0.08s CPU      0.11s WALL (    1704 calls)
     vloc_psi     :      7.97s CPU      8.18s WALL (    1704 calls)
     add_vuspsi   :      0.02s CPU      0.02s WALL (    1704 calls)

     General routines
     calbec       :      0.12s CPU      0.17s WALL (    1758 calls)
     fft          :      2.85s CPU      3.05s WALL (    4378 calls)
     fftw         :      8.46s CPU      8.70s WALL (   21830 calls)
     davcio       :      0.46s CPU      2.31s WALL (    6625 calls)
 
     Parallel routines
     fft_scatter  :      3.57s CPU      3.84s WALL (   26208 calls)
 
     PWSCF        :    23.17s CPU        28.60s WALL

 
   This run was terminated on:  14:47: 6  13Feb2018            

=------------------------------------------------------------------------------=
   JOB DONE.
=------------------------------------------------------------------------------=
