
     Program PWSCF v.6.0 (svn rev. 13079) starts on 13Feb2018 at 14:55:55 

     This program is part of the open-source Quantum ESPRESSO suite
     for quantum simulation of materials; please cite
         "P. Giannozzi et al., J. Phys.:Condens. Matter 21 395502 (2009);
          URL http://www.quantum-espresso.org", 
     in publications or presentations arising from this work. More details at
     http://www.quantum-espresso.org/quote

     Parallel version (MPI), running on    28 processors
     R & G space division:  proc/nbgrp/npool/nimage =      28
     Reading input from inputs/MD-H2O-round1/360.in

     Current dimensions of program PWSCF are:
     Max number of different atomic species (ntypx) = 10
     Max number of k-points (npk) =  40000
     Max angular momentum in pseudopotentials (lmaxx) =  3

     Subspace diagonalization in iterative solution of the eigenvalue problem:
     a serial algorithm will be used

 
     Parallelization info
     --------------------
     sticks:   dense  smooth     PW     G-vecs:    dense   smooth      PW
     Min         136     136     33                 6338     6338     787
     Max         137     137     34                 6341     6341     792
     Sum        3809    3809    949               177509   177509   22119
 


     bravais-lattice index     =            1
     lattice parameter (alat)  =      20.0000  a.u.
     unit-cell volume          =    8000.0000 (a.u.)^3
     number of atoms/cell      =            3
     number of atomic types    =            2
     number of electrons       =         8.00
     number of Kohn-Sham states=            8
     kinetic-energy cutoff     =      30.0000  Ry
     charge density cutoff     =     120.0000  Ry
     convergence threshold     =      1.0E-08
     mixing beta               =       0.7000
     number of iterations used =            8  plain     mixing
     Exchange-correlation      = BLYP ( 1  3  1  3 0 0)
     nstep                     =         5000


     celldm(1)=  20.000000  celldm(2)=   0.000000  celldm(3)=   0.000000
     celldm(4)=   0.000000  celldm(5)=   0.000000  celldm(6)=   0.000000

     crystal axes: (cart. coord. in units of alat)
               a(1) = (   1.000000   0.000000   0.000000 )  
               a(2) = (   0.000000   1.000000   0.000000 )  
               a(3) = (   0.000000   0.000000   1.000000 )  

     reciprocal axes: (cart. coord. in units 2 pi/alat)
               b(1) = (  1.000000  0.000000  0.000000 )  
               b(2) = (  0.000000  1.000000  0.000000 )  
               b(3) = (  0.000000  0.000000  1.000000 )  


     PseudoPot. # 1 for  H read from file:
     ./H.blyp-hgh.UPF
     MD5 check sum: c576e69559cde411e611be972c763230
     Pseudo is Norm-conserving, Zval =  1.0
     Generated in analytical, separable form
     Using radial grid of  929 points,  0 beta functions with: 

     PseudoPot. # 2 for  O read from file:
     ./O.blyp-hgh.UPF
     MD5 check sum: d0b7156309aa9befef28faac7bc56342
     Pseudo is Norm-conserving, Zval =  6.0
     Generated in analytical, separable form
     Using radial grid of 1095 points,  1 beta functions with: 
                l(1) =   0

     atomic species   valence    mass     pseudopotential
        H              1.00     1.01000      H( 1.00)
        O              6.00    16.00000      O( 1.00)

     No symmetry found



   Cartesian axes

     site n.     atom                  positions (alat units)
         1           O   tau(   1) = (   0.2938021   0.6591811   0.8072574  )
         2           H   tau(   2) = (   0.3093114   0.5816924   0.7952337  )
         3           H   tau(   3) = (   0.3963016   0.2546960   0.7498125  )

     number of k points=     1  Marzari-Vanderbilt smearing, width (Ry)=  0.0250
                       cart. coord. in units 2pi/alat
        k(    1) = (   0.0000000   0.0000000   0.0000000), wk =   2.0000000

     Dense  grid:   177509 G-vectors     FFT dimensions: (  72,  72,  72)

     Estimated max dynamical RAM per process >       6.09Mb

     Estimated total allocated dynamical RAM >     170.64Mb

     Initial potential from superposition of free atoms
     Check: negative starting charge=   -0.348771

     starting charge    7.99998, renormalised to    8.00000

     negative rho (up, down):  3.488E-01 0.000E+00
     Starting wfc are    6 randomized atomic wfcs +    2 random wfc

     total cpu time spent up to now is        0.4 secs

     per-process dynamical memory:    18.8 Mb

     Self-consistent Calculation

     iteration #  1     ecut=    30.00 Ry     beta=0.70
     Davidson diagonalization with overlap
     ethr =  1.00E-02,  avg # of iterations =  7.0

     negative rho (up, down):  9.412E-02 0.000E+00

     total cpu time spent up to now is        0.4 secs

     total energy              =     -31.57774016 Ry
     Harris-Foulkes estimate   =     -32.06301677 Ry
     estimated scf accuracy    <       0.51620289 Ry

     iteration #  2     ecut=    30.00 Ry     beta=0.70
     Davidson diagonalization with overlap
     ethr =  6.45E-03,  avg # of iterations =  2.0

     negative rho (up, down):  7.308E-02 0.000E+00

     total cpu time spent up to now is        0.5 secs

     total energy              =     -31.69276583 Ry
     Harris-Foulkes estimate   =     -32.32421330 Ry
     estimated scf accuracy    <       2.15840891 Ry

     iteration #  3     ecut=    30.00 Ry     beta=0.70
     Davidson diagonalization with overlap
     ethr =  6.45E-03,  avg # of iterations =  2.0

     negative rho (up, down):  2.595E-02 0.000E+00

     total cpu time spent up to now is        0.5 secs

     total energy              =     -31.66940679 Ry
     Harris-Foulkes estimate   =     -31.80138938 Ry
     estimated scf accuracy    <       0.81367523 Ry

     iteration #  4     ecut=    30.00 Ry     beta=0.70
     Davidson diagonalization with overlap
     ethr =  6.45E-03,  avg # of iterations =  1.0

     negative rho (up, down):  1.021E-02 0.000E+00

     total cpu time spent up to now is        0.6 secs

     total energy              =     -31.72097343 Ry
     Harris-Foulkes estimate   =     -31.97409781 Ry
     estimated scf accuracy    <       1.39542299 Ry

     iteration #  5     ecut=    30.00 Ry     beta=0.70
     Davidson diagonalization with overlap
     ethr =  6.45E-03,  avg # of iterations =  1.0

     negative rho (up, down):  9.255E-04 0.000E+00

     total cpu time spent up to now is        0.6 secs

     total energy              =     -31.82470783 Ry
     Harris-Foulkes estimate   =     -31.89652997 Ry
     estimated scf accuracy    <       0.91374354 Ry

     iteration #  6     ecut=    30.00 Ry     beta=0.70
     Davidson diagonalization with overlap
     ethr =  6.45E-03,  avg # of iterations =  1.0

     negative rho (up, down):  4.378E-04 0.000E+00

     total cpu time spent up to now is        0.7 secs

     total energy              =     -31.83306850 Ry
     Harris-Foulkes estimate   =     -31.83722611 Ry
     estimated scf accuracy    <       0.01402636 Ry

     iteration #  7     ecut=    30.00 Ry     beta=0.70
     Davidson diagonalization with overlap
     ethr =  1.75E-04,  avg # of iterations =  4.0

     negative rho (up, down):  3.768E-04 0.000E+00

     total cpu time spent up to now is        0.7 secs

     total energy              =     -31.85463308 Ry
     Harris-Foulkes estimate   =     -31.86087264 Ry
     estimated scf accuracy    <       1.40489523 Ry

     iteration #  8     ecut=    30.00 Ry     beta=0.70
     Davidson diagonalization with overlap
     ethr =  1.75E-04,  avg # of iterations =  1.0

     negative rho (up, down):  3.553E-08 0.000E+00

     total cpu time spent up to now is        0.8 secs

     total energy              =     -31.78948676 Ry
     Harris-Foulkes estimate   =     -31.85488025 Ry
     estimated scf accuracy    <       1.17342839 Ry

     iteration #  9     ecut=    30.00 Ry     beta=0.70
     Davidson diagonalization with overlap
     ethr =  1.75E-04,  avg # of iterations =  1.0

     negative rho (up, down):  2.938E-08 0.000E+00

     total cpu time spent up to now is        0.8 secs

     total energy              =     -31.83587794 Ry
     Harris-Foulkes estimate   =     -31.85122888 Ry
     estimated scf accuracy    <       0.63779231 Ry

     iteration # 10     ecut=    30.00 Ry     beta=0.70
     Davidson diagonalization with overlap
     ethr =  1.75E-04,  avg # of iterations =  1.0

     negative rho (up, down):  8.661E-07 0.000E+00

     total cpu time spent up to now is        0.9 secs

     total energy              =     -31.83865322 Ry
     Harris-Foulkes estimate   =     -31.83931000 Ry
     estimated scf accuracy    <       0.14418868 Ry

     iteration # 11     ecut=    30.00 Ry     beta=0.70
     Davidson diagonalization with overlap
     ethr =  1.75E-04,  avg # of iterations =  1.0

     negative rho (up, down):  3.637E-07 0.000E+00

     total cpu time spent up to now is        0.9 secs

     total energy              =     -31.84108391 Ry
     Harris-Foulkes estimate   =     -31.83870177 Ry
     estimated scf accuracy    <       0.10635843 Ry

     iteration # 12     ecut=    30.00 Ry     beta=0.70
     Davidson diagonalization with overlap
     ethr =  1.75E-04,  avg # of iterations =  1.0

     negative rho (up, down):  4.912E-08 0.000E+00

     total cpu time spent up to now is        1.0 secs

     total energy              =     -31.84345121 Ry
     Harris-Foulkes estimate   =     -31.84184132 Ry
     estimated scf accuracy    <       0.28311378 Ry

     iteration # 13     ecut=    30.00 Ry     beta=0.70
     Davidson diagonalization with overlap
     ethr =  1.75E-04,  avg # of iterations =  1.0

     negative rho (up, down):  1.543E-05 0.000E+00

     total cpu time spent up to now is        1.0 secs

     total energy              =     -31.82848205 Ry
     Harris-Foulkes estimate   =     -31.84356157 Ry
     estimated scf accuracy    <       0.36605955 Ry

     iteration # 14     ecut=    30.00 Ry     beta=0.70
     Davidson diagonalization with overlap
     ethr =  1.75E-04,  avg # of iterations =  1.0

     negative rho (up, down):  2.369E-08 0.000E+00

     total cpu time spent up to now is        1.1 secs

     total energy              =     -31.83697883 Ry
     Harris-Foulkes estimate   =     -31.83768838 Ry
     estimated scf accuracy    <       0.04368612 Ry

     iteration # 15     ecut=    30.00 Ry     beta=0.70
     Davidson diagonalization with overlap
     ethr =  1.75E-04,  avg # of iterations =  1.0

     negative rho (up, down):  5.886E-08 0.000E+00

     total cpu time spent up to now is        1.1 secs

     total energy              =     -31.83709681 Ry
     Harris-Foulkes estimate   =     -31.83720237 Ry
     estimated scf accuracy    <       0.00612934 Ry

     iteration # 16     ecut=    30.00 Ry     beta=0.70
     Davidson diagonalization with overlap
     ethr =  7.66E-05,  avg # of iterations =  1.0

     total cpu time spent up to now is        1.1 secs

     total energy              =     -31.83713150 Ry
     Harris-Foulkes estimate   =     -31.83713025 Ry
     estimated scf accuracy    <       0.00078244 Ry

     iteration # 17     ecut=    30.00 Ry     beta=0.70
     Davidson diagonalization with overlap
     ethr =  9.78E-06,  avg # of iterations =  1.0

     total cpu time spent up to now is        1.2 secs

     total energy              =     -31.83710850 Ry
     Harris-Foulkes estimate   =     -31.83713165 Ry
     estimated scf accuracy    <       0.00091331 Ry

     iteration # 18     ecut=    30.00 Ry     beta=0.70
     Davidson diagonalization with overlap
     ethr =  9.78E-06,  avg # of iterations =  1.0

     total cpu time spent up to now is        1.2 secs

     total energy              =     -31.83711700 Ry
     Harris-Foulkes estimate   =     -31.83711869 Ry
     estimated scf accuracy    <       0.00000725 Ry

     iteration # 19     ecut=    30.00 Ry     beta=0.70
     Davidson diagonalization with overlap
     ethr =  9.06E-08,  avg # of iterations =  7.0

     total cpu time spent up to now is        1.3 secs

     total energy              =     -31.83711890 Ry
     Harris-Foulkes estimate   =     -31.83711867 Ry
     estimated scf accuracy    <       0.00017177 Ry

     iteration # 20     ecut=    30.00 Ry     beta=0.70
     Davidson diagonalization with overlap
     ethr =  9.06E-08,  avg # of iterations =  1.0

     total cpu time spent up to now is        1.3 secs

     total energy              =     -31.83711416 Ry
     Harris-Foulkes estimate   =     -31.83711895 Ry
     estimated scf accuracy    <       0.00014390 Ry

     iteration # 21     ecut=    30.00 Ry     beta=0.70
     Davidson diagonalization with overlap
     ethr =  9.06E-08,  avg # of iterations =  1.0

     total cpu time spent up to now is        1.4 secs

     total energy              =     -31.83711670 Ry
     Harris-Foulkes estimate   =     -31.83711675 Ry
     estimated scf accuracy    <       0.00000347 Ry

     iteration # 22     ecut=    30.00 Ry     beta=0.70
     Davidson diagonalization with overlap
     ethr =  4.34E-08,  avg # of iterations =  1.0

     total cpu time spent up to now is        1.4 secs

     total energy              =     -31.83711680 Ry
     Harris-Foulkes estimate   =     -31.83711677 Ry
     estimated scf accuracy    <       0.00000012 Ry

     iteration # 23     ecut=    30.00 Ry     beta=0.70
     Davidson diagonalization with overlap
     ethr =  1.51E-09,  avg # of iterations =  1.0

     total cpu time spent up to now is        1.5 secs

     total energy              =     -31.83711698 Ry
     Harris-Foulkes estimate   =     -31.83711680 Ry
     estimated scf accuracy    <       0.00000003 Ry

     iteration # 24     ecut=    30.00 Ry     beta=0.70
     Davidson diagonalization with overlap
     ethr =  3.89E-10,  avg # of iterations =  1.0

     total cpu time spent up to now is        1.5 secs

     End of self-consistent calculation

          k = 0.0000 0.0000 0.0000 ( 22119 PWs)   bands (ev):

   -26.2895 -11.1754  -7.2503  -7.2500  -7.1072  -0.4347   0.3920   0.7587

     the Fermi energy is    -7.0786 ev

!    total energy              =     -31.83711700 Ry
     Harris-Foulkes estimate   =     -31.83711698 Ry
     estimated scf accuracy    <          1.0E-09 Ry

     convergence has been achieved in  24 iterations

     Forces acting on atoms (Ry/au):

     atom    1 type  2   force =    -0.12147089    0.60981563    0.09528714
     atom    2 type  1   force =     0.12171480   -0.60894216   -0.09503061
     atom    3 type  1   force =    -0.00024391   -0.00087347   -0.00025653

     Total force =     0.889026     Total SCF correction =     0.000012

     Molecular Dynamics Calculation

     Starting temperature  =  1000.00 K

     temperature is controlled by Andersen thermostat
     Collision frequency = 1.0000/timestep
     mass H                =     1.01
     mass O                =    16.00
     Time step             =   100.00 a.u.,  4.8378 femto-seconds

     Entering Dynamics:    iteration =     1
                           time      =   0.0048 pico-seconds


     Andersen thermostat:    3 collisions

ATOMIC_POSITIONS (bohr)
O        5.821884975  13.385273565  16.156086125
H        6.848853728   8.506841416  15.291180784
H        8.121339344   5.026429504  15.436449151


     kinetic energy (Ekin) =     0.01337019 Ry
     temperature           =   703.66124461 K 
     Ekin + Etot (const)   =   -31.82374681 Ry

     Linear momentum :   -0.0000000000   -0.0000000000   -0.0000000000

     Writing output data file pwscf.save
     Check: negative starting charge=   -0.348771
     NEW-OLD atomic charge density approx. for the potential
     Check: negative starting charge=   -0.348903

     negative rho (up, down):  4.171E-01 0.000E+00

     total cpu time spent up to now is        1.9 secs

     per-process dynamical memory:    20.4 Mb

     Self-consistent Calculation

     iteration #  1     ecut=    30.00 Ry     beta=0.70
     Davidson diagonalization with overlap
     ethr =  1.00E-06,  avg # of iterations = 20.0

     negative rho (up, down):  1.020E-01 0.000E+00

     total cpu time spent up to now is        2.1 secs

     total energy              =     -23.14758451 Ry
     Harris-Foulkes estimate   =     -33.40150417 Ry
     estimated scf accuracy    <       4.04709146 Ry

     iteration #  2     ecut=    30.00 Ry     beta=0.70
     Davidson diagonalization with overlap
     ethr =  1.00E-02,  avg # of iterations =  3.0

     negative rho (up, down):  7.426E-02 0.000E+00

     total cpu time spent up to now is        2.2 secs

     total energy              =     -31.53416680 Ry
     Harris-Foulkes estimate   =     -35.71218310 Ry
     estimated scf accuracy    <      10.40696939 Ry

     iteration #  3     ecut=    30.00 Ry     beta=0.70
     Davidson diagonalization with overlap
     ethr =  1.00E-02,  avg # of iterations =  2.0

     negative rho (up, down):  5.532E-02 0.000E+00

     total cpu time spent up to now is        2.3 secs

     total energy              =     -31.69897439 Ry
     Harris-Foulkes estimate   =     -32.03945189 Ry
     estimated scf accuracy    <       1.18006290 Ry

     iteration #  4     ecut=    30.00 Ry     beta=0.70
     Davidson diagonalization with overlap
     ethr =  1.00E-02,  avg # of iterations =  1.0

     negative rho (up, down):  4.673E-02 0.000E+00

     total cpu time spent up to now is        2.3 secs

     total energy              =     -31.57935835 Ry
     Harris-Foulkes estimate   =     -31.97993387 Ry
     estimated scf accuracy    <       3.48260177 Ry

     iteration #  5     ecut=    30.00 Ry     beta=0.70
     Davidson diagonalization with overlap
     ethr =  1.00E-02,  avg # of iterations =  1.0

     negative rho (up, down):  3.998E-02 0.000E+00

     total cpu time spent up to now is        2.4 secs

     total energy              =     -31.68301951 Ry
     Harris-Foulkes estimate   =     -31.72544153 Ry
     estimated scf accuracy    <       0.32619482 Ry

     iteration #  6     ecut=    30.00 Ry     beta=0.70
     Davidson diagonalization with overlap
     ethr =  4.08E-03,  avg # of iterations =  1.0

     negative rho (up, down):  1.812E-02 0.000E+00

     total cpu time spent up to now is        2.4 secs

     total energy              =     -31.55672392 Ry
     Harris-Foulkes estimate   =     -31.71533131 Ry
     estimated scf accuracy    <       1.15521522 Ry

     iteration #  7     ecut=    30.00 Ry     beta=0.70
     Davidson diagonalization with overlap
     ethr =  4.08E-03,  avg # of iterations =  1.0

     negative rho (up, down):  1.724E-02 0.000E+00

     total cpu time spent up to now is        2.4 secs

     total energy              =     -31.67510507 Ry
     Harris-Foulkes estimate   =     -31.66928436 Ry
     estimated scf accuracy    <       0.29981659 Ry

     iteration #  8     ecut=    30.00 Ry     beta=0.70
     Davidson diagonalization with overlap
     ethr =  3.75E-03,  avg # of iterations =  1.0

     negative rho (up, down):  1.522E-02 0.000E+00

     total cpu time spent up to now is        2.5 secs

     total energy              =     -31.64422042 Ry
     Harris-Foulkes estimate   =     -31.67558314 Ry
     estimated scf accuracy    <       0.34644012 Ry

     iteration #  9     ecut=    30.00 Ry     beta=0.70
     Davidson diagonalization with overlap
     ethr =  3.75E-03,  avg # of iterations =  1.0

     negative rho (up, down):  2.651E-03 0.000E+00

     total cpu time spent up to now is        2.6 secs

     total energy              =     -31.62551742 Ry
     Harris-Foulkes estimate   =     -31.65058317 Ry
     estimated scf accuracy    <       0.16725348 Ry

     iteration # 10     ecut=    30.00 Ry     beta=0.70
     Davidson diagonalization with overlap
     ethr =  2.09E-03,  avg # of iterations =  1.0

     negative rho (up, down):  3.916E-04 0.000E+00

     total cpu time spent up to now is        2.7 secs

     total energy              =     -31.66096532 Ry
     Harris-Foulkes estimate   =     -31.65603631 Ry
     estimated scf accuracy    <       0.08490406 Ry

     iteration # 11     ecut=    30.00 Ry     beta=0.70
     Davidson diagonalization with overlap
     ethr =  1.06E-03,  avg # of iterations =  1.0

     negative rho (up, down):  3.332E-05 0.000E+00

     total cpu time spent up to now is        2.7 secs

     total energy              =     -31.65733924 Ry
     Harris-Foulkes estimate   =     -31.66135308 Ry
     estimated scf accuracy    <       0.09704493 Ry

     iteration # 12     ecut=    30.00 Ry     beta=0.70
     Davidson diagonalization with overlap
     ethr =  1.06E-03,  avg # of iterations =  1.0

     negative rho (up, down):  2.361E-06 0.000E+00

     total cpu time spent up to now is        2.8 secs

     total energy              =     -31.64917147 Ry
     Harris-Foulkes estimate   =     -31.65895031 Ry
     estimated scf accuracy    <       0.11045752 Ry

     iteration # 13     ecut=    30.00 Ry     beta=0.70
     Davidson diagonalization with overlap
     ethr =  1.06E-03,  avg # of iterations =  1.0

     negative rho (up, down):  4.179E-08 0.000E+00

     total cpu time spent up to now is        2.8 secs

     total energy              =     -31.64693369 Ry
     Harris-Foulkes estimate   =     -31.65189925 Ry
     estimated scf accuracy    <       0.03352792 Ry

     iteration # 14     ecut=    30.00 Ry     beta=0.70
     Davidson diagonalization with overlap
     ethr =  4.19E-04,  avg # of iterations =  1.0

     negative rho (up, down):  5.903E-08 0.000E+00

     total cpu time spent up to now is        2.8 secs

     total energy              =     -31.64947870 Ry
     Harris-Foulkes estimate   =     -31.64958910 Ry
     estimated scf accuracy    <       0.00164088 Ry

     iteration # 15     ecut=    30.00 Ry     beta=0.70
     Davidson diagonalization with overlap
     ethr =  2.05E-05,  avg # of iterations =  9.0

     negative rho (up, down):  3.911E-08 0.000E+00

     total cpu time spent up to now is        2.9 secs

     total energy              =     -31.64947240 Ry
     Harris-Foulkes estimate   =     -31.64950600 Ry
     estimated scf accuracy    <       0.00050094 Ry

     iteration # 16     ecut=    30.00 Ry     beta=0.70
     Davidson diagonalization with overlap
     ethr =  6.26E-06,  avg # of iterations =  1.0

     negative rho (up, down):  2.913E-08 0.000E+00

     total cpu time spent up to now is        3.0 secs

     total energy              =     -31.64946145 Ry
     Harris-Foulkes estimate   =     -31.64948138 Ry
     estimated scf accuracy    <       0.00015886 Ry

     iteration # 17     ecut=    30.00 Ry     beta=0.70
     Davidson diagonalization with overlap
     ethr =  1.99E-06,  avg # of iterations =  1.0

     total cpu time spent up to now is        3.0 secs

     total energy              =     -31.64946938 Ry
     Harris-Foulkes estimate   =     -31.64947084 Ry
     estimated scf accuracy    <       0.00001067 Ry

     iteration # 18     ecut=    30.00 Ry     beta=0.70
     Davidson diagonalization with overlap
     ethr =  1.33E-07,  avg # of iterations =  1.0

     total cpu time spent up to now is        3.1 secs

     total energy              =     -31.64946960 Ry
     Harris-Foulkes estimate   =     -31.64946996 Ry
     estimated scf accuracy    <       0.00000240 Ry

     iteration # 19     ecut=    30.00 Ry     beta=0.70
     Davidson diagonalization with overlap
     ethr =  3.00E-08,  avg # of iterations =  1.0

     total cpu time spent up to now is        3.1 secs

     total energy              =     -31.64946969 Ry
     Harris-Foulkes estimate   =     -31.64946972 Ry
     estimated scf accuracy    <       0.00000030 Ry

     iteration # 20     ecut=    30.00 Ry     beta=0.70
     Davidson diagonalization with overlap
     ethr =  3.76E-09,  avg # of iterations =  1.0

     total cpu time spent up to now is        3.2 secs

     total energy              =     -31.64946972 Ry
     Harris-Foulkes estimate   =     -31.64946972 Ry
     estimated scf accuracy    <       0.00000012 Ry

     iteration # 21     ecut=    30.00 Ry     beta=0.70
     Davidson diagonalization with overlap
     ethr =  1.48E-09,  avg # of iterations =  1.0

     total cpu time spent up to now is        3.2 secs

     End of self-consistent calculation

          k = 0.0000 0.0000 0.0000 ( 22119 PWs)   bands (ev):

   -24.1103  -8.1738  -7.4739  -7.4737  -7.4276  -5.1996  -0.2112   0.6177

     the Fermi energy is    -7.3370 ev

!    total energy              =     -31.64946973 Ry
     Harris-Foulkes estimate   =     -31.64946973 Ry
     estimated scf accuracy    <          3.1E-09 Ry

     convergence has been achieved in  21 iterations

     Forces acting on atoms (Ry/au):

     atom    1 type  2   force =     0.00420789   -0.01966760   -0.00248010
     atom    2 type  1   force =     0.02593872   -0.06235255    0.00673340
     atom    3 type  1   force =    -0.03014661    0.08202015   -0.00425330

     Total force =     0.112565     Total SCF correction =     0.000286

     Entering Dynamics:    iteration =     2
                           time      =   0.0097 pico-seconds


     Andersen thermostat:    3 collisions

ATOMIC_POSITIONS (bohr)
O        5.827280024  13.356108485  16.150288155
H        7.174421335   7.703962831  15.508455732
H        7.710305614   6.291329154  15.311023228


     kinetic energy (Ekin) =     0.04963363 Ry
     temperature           =  2612.17352311 K 
     Ekin + Etot (const)   =   -31.59983610 Ry
     Message from routine dynamics:
     Total linear momentum <> 0

     Linear momentum :    0.0316409203    0.3676783473    0.1781879288

     Writing output data file pwscf.save

     first order wave-functions extrapolation
     Check: negative starting charge=   -0.348903
     first order charge density extrapolation
     Check: negative starting charge=   -0.353943

     negative rho (up, down):  5.359E-01 0.000E+00

     total cpu time spent up to now is        3.7 secs

     per-process dynamical memory:    20.4 Mb

     Self-consistent Calculation

     iteration #  1     ecut=    30.00 Ry     beta=0.70
     Davidson diagonalization with overlap
     ethr =  1.00E-06,  avg # of iterations = 13.0

     negative rho (up, down):  1.144E-01 0.000E+00

     total cpu time spent up to now is        3.8 secs

     total energy              =      58.88926640 Ry
     Harris-Foulkes estimate   =    -633.16237561 Ry
     estimated scf accuracy    <      20.33881857 Ry

     iteration #  2     ecut=    30.00 Ry     beta=0.70
     Davidson diagonalization with overlap
     ethr =  1.00E-02,  avg # of iterations =  6.0

     negative rho (up, down):  6.852E-02 0.000E+00

     total cpu time spent up to now is        3.9 secs

     total energy              =      -8.29833354 Ry
     Harris-Foulkes estimate   =     -69.68240966 Ry
     estimated scf accuracy    <      16.38370212 Ry

     iteration #  3     ecut=    30.00 Ry     beta=0.70
     Davidson diagonalization with overlap
     ethr =  1.00E-02,  avg # of iterations =  4.0

     negative rho (up, down):  4.750E-02 0.000E+00

     total cpu time spent up to now is        3.9 secs

     total energy              =     -33.61581623 Ry
     Harris-Foulkes estimate   =     -36.97199596 Ry
     estimated scf accuracy    <       8.14205597 Ry

     iteration #  4     ecut=    30.00 Ry     beta=0.70
     Davidson diagonalization with overlap
     ethr =  1.00E-02,  avg # of iterations =  2.0

     negative rho (up, down):  3.718E-02 0.000E+00

     total cpu time spent up to now is        4.0 secs

     total energy              =     -32.94749877 Ry
     Harris-Foulkes estimate   =     -34.01938653 Ry
     estimated scf accuracy    <       3.88404777 Ry

     iteration #  5     ecut=    30.00 Ry     beta=0.70
     Davidson diagonalization with overlap
     ethr =  1.00E-02,  avg # of iterations =  1.0

     negative rho (up, down):  3.556E-02 0.000E+00

     total cpu time spent up to now is        4.0 secs

     total energy              =     -32.71470905 Ry
     Harris-Foulkes estimate   =     -32.98763587 Ry
     estimated scf accuracy    <       2.24629634 Ry

     iteration #  6     ecut=    30.00 Ry     beta=0.70
     Davidson diagonalization with overlap
     ethr =  1.00E-02,  avg # of iterations =  4.0

     negative rho (up, down):  3.857E-02 0.000E+00

     total cpu time spent up to now is        4.1 secs

     total energy              =      -2.54867814 Ry
     Harris-Foulkes estimate   =    -280.48647641 Ry
     estimated scf accuracy    <       5.34570573 Ry

     iteration #  7     ecut=    30.00 Ry     beta=0.70
     Davidson diagonalization with overlap
     ethr =  1.00E-02,  avg # of iterations =  4.0

     negative rho (up, down):  3.784E-02 0.000E+00

     total cpu time spent up to now is        4.1 secs

     total energy              =     -10.53169168 Ry
     Harris-Foulkes estimate   =     -80.01194199 Ry
     estimated scf accuracy    <       6.00713129 Ry

     iteration #  8     ecut=    30.00 Ry     beta=0.70
     Davidson diagonalization with overlap
     ethr =  1.00E-02,  avg # of iterations =  3.0

     negative rho (up, down):  2.781E-02 0.000E+00

     total cpu time spent up to now is        4.2 secs

     total energy              =     -32.69267436 Ry
     Harris-Foulkes estimate   =     -32.33263148 Ry
     estimated scf accuracy    <       0.67086068 Ry

     iteration #  9     ecut=    30.00 Ry     beta=0.70
     Davidson diagonalization with overlap
     ethr =  8.39E-03,  avg # of iterations =  4.0

     negative rho (up, down):  2.213E-02 0.000E+00

     total cpu time spent up to now is        4.3 secs

     total energy              =     -14.65737126 Ry
     Harris-Foulkes estimate   =     -61.79147805 Ry
     estimated scf accuracy    <       6.00481088 Ry

     iteration # 10     ecut=    30.00 Ry     beta=0.70
     Davidson diagonalization with overlap
     ethr =  8.39E-03,  avg # of iterations =  4.0

     negative rho (up, down):  1.118E-01 0.000E+00

     total cpu time spent up to now is        4.3 secs

     total energy              =     160.86497599 Ry
     Harris-Foulkes estimate   =     -38.19502419 Ry
     estimated scf accuracy    <       5.20734070 Ry

     iteration # 11     ecut=    30.00 Ry     beta=0.70
     Davidson diagonalization with overlap
     ethr =  8.39E-03,  avg # of iterations =  5.0

     negative rho (up, down):  4.555E-01 0.000E+00

     total cpu time spent up to now is        4.4 secs

     total energy              =      19.80399840 Ry
     Harris-Foulkes estimate   =   -1118.49284996 Ry
     estimated scf accuracy    <      38.27978378 Ry

     iteration # 12     ecut=    30.00 Ry     beta=0.70
     Davidson diagonalization with overlap
     ethr =  8.39E-03,  avg # of iterations =  6.0

     negative rho (up, down):  3.283E-01 0.000E+00

     total cpu time spent up to now is        4.5 secs

     total energy              =    -632.21861355 Ry
     Harris-Foulkes estimate   =    -348.01605639 Ry
     estimated scf accuracy    <      70.65944896 Ry

     iteration # 13     ecut=    30.00 Ry     beta=0.70
     Davidson diagonalization with overlap
     ethr =  8.39E-03,  avg # of iterations =  4.0

     negative rho (up, down):  1.771E-01 0.000E+00

     total cpu time spent up to now is        4.5 secs

     total energy              =    3320.03929440 Ry
     Harris-Foulkes estimate   =   -1110.42089252 Ry
     estimated scf accuracy    <      34.35423610 Ry

     iteration # 14     ecut=    30.00 Ry     beta=0.70
     Davidson diagonalization with overlap
     ethr =  8.39E-03,  avg # of iterations =  5.0

     negative rho (up, down):  1.506E-01 0.000E+00

     total cpu time spent up to now is        4.6 secs

     total energy              =     -77.19536745 Ry
     Harris-Foulkes estimate   =    -911.60666777 Ry
     estimated scf accuracy    <      62.38061350 Ry

     iteration # 15     ecut=    30.00 Ry     beta=0.70
     Davidson diagonalization with overlap
     ethr =  8.39E-03,  avg # of iterations =  5.0

     negative rho (up, down):  1.108E-01 0.000E+00

     total cpu time spent up to now is        4.7 secs

     total energy              =      15.50715547 Ry
     Harris-Foulkes estimate   =    -346.01265954 Ry
     estimated scf accuracy    <      62.25559665 Ry

     iteration # 16     ecut=    30.00 Ry     beta=0.70
     Davidson diagonalization with overlap
     ethr =  8.39E-03,  avg # of iterations =  9.0

     negative rho (up, down):  1.209E-01 0.000E+00

     total cpu time spent up to now is        4.8 secs

     total energy              =      17.12346841 Ry
     Harris-Foulkes estimate   =    -150.69733407 Ry
     estimated scf accuracy    <      33.79750640 Ry

     iteration # 17     ecut=    30.00 Ry     beta=0.70
     Davidson diagonalization with overlap
     ethr =  8.39E-03,  avg # of iterations =  5.0

     negative rho (up, down):  2.598E-01 0.000E+00

     total cpu time spent up to now is        4.8 secs

     total energy              =     -61.60455702 Ry
     Harris-Foulkes estimate   =    -134.28100888 Ry
     estimated scf accuracy    <      38.13689306 Ry

     iteration # 18     ecut=    30.00 Ry     beta=0.70
     Davidson diagonalization with overlap
     ethr =  8.39E-03,  avg # of iterations = 10.0

     negative rho (up, down):  8.222E-01 0.000E+00

     total cpu time spent up to now is        4.9 secs

     total energy              =    -705.42210618 Ry
     Harris-Foulkes estimate   =    -656.75341802 Ry
     estimated scf accuracy    <      54.50285018 Ry

     iteration # 19     ecut=    30.00 Ry     beta=0.70
     Davidson diagonalization with overlap
     ethr =  8.39E-03,  avg # of iterations =  8.0

     negative rho (up, down):  2.242E+00 0.000E+00

     total cpu time spent up to now is        5.0 secs

     total energy              =     -83.54877656 Ry
     Harris-Foulkes estimate   =   -6257.07493451 Ry
     estimated scf accuracy    <      56.10129865 Ry

     iteration # 20     ecut=    30.00 Ry     beta=0.70
     Davidson diagonalization with overlap
     ethr =  8.39E-03,  avg # of iterations =  9.0

     negative rho (up, down):  2.673E+00 0.000E+00

     total cpu time spent up to now is        5.1 secs

     total energy              =   -2949.60875102 Ry
     Harris-Foulkes estimate   =  -13950.95815452 Ry
     estimated scf accuracy    <      45.87202501 Ry

     iteration # 21     ecut=    30.00 Ry     beta=0.70
     Davidson diagonalization with overlap
     ethr =  8.39E-03,  avg # of iterations =  8.0

     negative rho (up, down):  2.338E+00 0.000E+00

     total cpu time spent up to now is        5.2 secs

     total energy              =      75.68894447 Ry
     Harris-Foulkes estimate   =   -8413.76248172 Ry
     estimated scf accuracy    <      42.68899717 Ry

     iteration # 22     ecut=    30.00 Ry     beta=0.70
     Davidson diagonalization with overlap
     ethr =  8.39E-03,  avg # of iterations =  8.0

     negative rho (up, down):  2.789E+00 0.000E+00

     total cpu time spent up to now is        5.3 secs

     total energy              =   -9711.88339246 Ry
     Harris-Foulkes estimate   =    -835.71671524 Ry
     estimated scf accuracy    <      31.34303696 Ry

     iteration # 23     ecut=    30.00 Ry     beta=0.70
     Davidson diagonalization with overlap
     ethr =  8.39E-03,  avg # of iterations =  8.0

     negative rho (up, down):  2.768E+00 0.000E+00

     total cpu time spent up to now is        5.4 secs

     total energy              =      72.27839951 Ry
     Harris-Foulkes estimate   =  -56733.05508096 Ry
     estimated scf accuracy    <      29.58731901 Ry

     iteration # 24     ecut=    30.00 Ry     beta=0.70
     Davidson diagonalization with overlap
     ethr =  8.39E-03,  avg # of iterations = 12.0

     negative rho (up, down):  1.643E+00 0.000E+00

     total cpu time spent up to now is        5.5 secs

     total energy              =    -189.55877138 Ry
     Harris-Foulkes estimate   =   -1367.29188213 Ry
     estimated scf accuracy    <      37.93737794 Ry

     iteration # 25     ecut=    30.00 Ry     beta=0.70
     Davidson diagonalization with overlap
     ethr =  8.39E-03,  avg # of iterations = 12.0

     negative rho (up, down):  9.988E-01 0.000E+00

     total cpu time spent up to now is        5.6 secs

     total energy              =    -477.79199930 Ry
     Harris-Foulkes estimate   =  -15936.77759023 Ry
     estimated scf accuracy    <      22.59626307 Ry

     iteration # 26     ecut=    30.00 Ry     beta=0.70
     Davidson diagonalization with overlap
     ethr =  8.39E-03,  avg # of iterations =  8.0

     negative rho (up, down):  7.551E-01 0.000E+00

     total cpu time spent up to now is        5.7 secs

     total energy              =      96.70600469 Ry
     Harris-Foulkes estimate   =   -9638.83944681 Ry
     estimated scf accuracy    <      26.78034066 Ry

     iteration # 27     ecut=    30.00 Ry     beta=0.70
     Davidson diagonalization with overlap
     ethr =  8.39E-03,  avg # of iterations = 10.0

     negative rho (up, down):  2.461E-01 0.000E+00

     total cpu time spent up to now is        5.8 secs

     total energy              =     104.05491861 Ry
     Harris-Foulkes estimate   =   -4608.83955765 Ry
     estimated scf accuracy    <      22.03092757 Ry

     iteration # 28     ecut=    30.00 Ry     beta=0.70
     Davidson diagonalization with overlap
     ethr =  8.39E-03,  avg # of iterations = 11.0

     negative rho (up, down):  1.850E-01 0.000E+00

     total cpu time spent up to now is        5.9 secs

     total energy              =      84.35001555 Ry
     Harris-Foulkes estimate   =   -4486.78821156 Ry
     estimated scf accuracy    <      17.09048906 Ry

     iteration # 29     ecut=    30.00 Ry     beta=0.70
     Davidson diagonalization with overlap
     ethr =  8.39E-03,  avg # of iterations =  5.0

     negative rho (up, down):  8.302E-02 0.000E+00

     total cpu time spent up to now is        5.9 secs

     total energy              =      27.05165918 Ry
     Harris-Foulkes estimate   =    -701.75004865 Ry
     estimated scf accuracy    <      31.20831327 Ry

     iteration # 30     ecut=    30.00 Ry     beta=0.70
     Davidson diagonalization with overlap
     ethr =  8.39E-03,  avg # of iterations =  6.0

     negative rho (up, down):  2.612E-02 0.000E+00

     total cpu time spent up to now is        6.0 secs

     total energy              =     -20.29480130 Ry
     Harris-Foulkes estimate   =    -116.51871857 Ry
     estimated scf accuracy    <      30.52338365 Ry

     iteration # 31     ecut=    30.00 Ry     beta=0.70
     Davidson diagonalization with overlap
     ethr =  8.39E-03,  avg # of iterations =  6.0

     negative rho (up, down):  5.593E-03 0.000E+00

     total cpu time spent up to now is        6.1 secs

     total energy              =     -24.17338024 Ry
     Harris-Foulkes estimate   =     -79.61713082 Ry
     estimated scf accuracy    <      27.23033039 Ry

     iteration # 32     ecut=    30.00 Ry     beta=0.70
     Davidson diagonalization with overlap
     ethr =  8.39E-03,  avg # of iterations =  4.0

     negative rho (up, down):  3.242E-03 0.000E+00

     total cpu time spent up to now is        6.1 secs

     total energy              =    -441.42726600 Ry
     Harris-Foulkes estimate   =     -84.31158523 Ry
     estimated scf accuracy    <      25.91369541 Ry

     iteration # 33     ecut=    30.00 Ry     beta=0.70
     Davidson diagonalization with overlap
     ethr =  8.39E-03,  avg # of iterations =  4.0

     negative rho (up, down):  2.534E-02 0.000E+00

     total cpu time spent up to now is        6.2 secs

     total energy              =    -150.02127072 Ry
     Harris-Foulkes estimate   =    -818.37218086 Ry
     estimated scf accuracy    <      15.67778913 Ry

     iteration # 34     ecut=    30.00 Ry     beta=0.70
     Davidson diagonalization with overlap
     ethr =  8.39E-03,  avg # of iterations =  6.0

     negative rho (up, down):  2.564E-01 0.000E+00

     total cpu time spent up to now is        6.3 secs

     total energy              =     -44.86786334 Ry
     Harris-Foulkes estimate   =   -3002.16847280 Ry
     estimated scf accuracy    <      24.98743938 Ry

     iteration # 35     ecut=    30.00 Ry     beta=0.70
     Davidson diagonalization with overlap
     ethr =  8.39E-03,  avg # of iterations =  9.0

     negative rho (up, down):  2.300E-01 0.000E+00

     total cpu time spent up to now is        6.4 secs

     total energy              =  -13895.79718856 Ry
     Harris-Foulkes estimate   =   -1578.33839531 Ry
     estimated scf accuracy    <      44.82667815 Ry

     iteration # 36     ecut=    30.00 Ry     beta=0.70
     Davidson diagonalization with overlap
     ethr =  8.39E-03,  avg # of iterations =  6.0

     negative rho (up, down):  1.795E-01 0.000E+00

     total cpu time spent up to now is        6.4 secs

     total energy              =    -244.12874407 Ry
     Harris-Foulkes estimate   =  -27238.00796430 Ry
     estimated scf accuracy    <      25.76825154 Ry

     iteration # 37     ecut=    30.00 Ry     beta=0.70
     Davidson diagonalization with overlap
     ethr =  8.39E-03,  avg # of iterations = 11.0

     negative rho (up, down):  1.813E-01 0.000E+00

     total cpu time spent up to now is        6.5 secs

     total energy              =      99.45272706 Ry
     Harris-Foulkes estimate   =   -3831.62597872 Ry
     estimated scf accuracy    <      24.51744769 Ry

     iteration # 38     ecut=    30.00 Ry     beta=0.70
     Davidson diagonalization with overlap
     ethr =  8.39E-03,  avg # of iterations =  7.0

     negative rho (up, down):  2.305E-01 0.000E+00

     total cpu time spent up to now is        6.6 secs

     total energy              =       0.16262777 Ry
     Harris-Foulkes estimate   =    -409.41710197 Ry
     estimated scf accuracy    <      18.02861320 Ry

     iteration # 39     ecut=    30.00 Ry     beta=0.70
     Davidson diagonalization with overlap
     ethr =  8.39E-03,  avg # of iterations =  9.0

     negative rho (up, down):  1.731E-01 0.000E+00

     total cpu time spent up to now is        6.7 secs

     total energy              =     122.07692904 Ry
     Harris-Foulkes estimate   =   -1100.06243675 Ry
     estimated scf accuracy    <      23.81482223 Ry

     iteration # 40     ecut=    30.00 Ry     beta=0.70
     Davidson diagonalization with overlap
     ethr =  8.39E-03,  avg # of iterations =  9.0

     negative rho (up, down):  1.602E-01 0.000E+00

     total cpu time spent up to now is        6.8 secs

     total energy              =      59.13825531 Ry
     Harris-Foulkes estimate   =    -249.78147751 Ry
     estimated scf accuracy    <      31.43970231 Ry

     iteration # 41     ecut=    30.00 Ry     beta=0.70
     Davidson diagonalization with overlap
     ethr =  8.39E-03,  avg # of iterations = 10.0

     negative rho (up, down):  1.259E-01 0.000E+00

     total cpu time spent up to now is        6.9 secs

     total energy              =      29.51202117 Ry
     Harris-Foulkes estimate   =   -1466.20726029 Ry
     estimated scf accuracy    <      17.25850951 Ry

     iteration # 42     ecut=    30.00 Ry     beta=0.70
     Davidson diagonalization with overlap
     ethr =  8.39E-03,  avg # of iterations = 11.0

     negative rho (up, down):  1.326E-01 0.000E+00

     total cpu time spent up to now is        7.0 secs

     total energy              =    -222.60873731 Ry
     Harris-Foulkes estimate   =    -454.20700471 Ry
     estimated scf accuracy    <      37.57955607 Ry

     iteration # 43     ecut=    30.00 Ry     beta=0.70
     Davidson diagonalization with overlap
     ethr =  8.39E-03,  avg # of iterations =  6.0

     negative rho (up, down):  2.858E-01 0.000E+00

     total cpu time spent up to now is        7.0 secs

     total energy              =     102.05082173 Ry
     Harris-Foulkes estimate   =   -3043.84123100 Ry
     estimated scf accuracy    <      29.97540845 Ry

     iteration # 44     ecut=    30.00 Ry     beta=0.70
     Davidson diagonalization with overlap
     ethr =  8.39E-03,  avg # of iterations =  9.0

     negative rho (up, down):  7.408E-04 0.000E+00

     total cpu time spent up to now is        7.1 secs

     total energy              =     111.98668708 Ry
     Harris-Foulkes estimate   =    -337.32331417 Ry
     estimated scf accuracy    <      22.95291350 Ry

     iteration # 45     ecut=    30.00 Ry     beta=0.70
     Davidson diagonalization with overlap
     ethr =  8.39E-03,  avg # of iterations =  9.0

     negative rho (up, down):  3.207E-02 0.000E+00

     total cpu time spent up to now is        7.2 secs

     total energy              =     -23.28583890 Ry
     Harris-Foulkes estimate   =     -71.59834422 Ry
     estimated scf accuracy    <      30.54516980 Ry

     iteration # 46     ecut=    30.00 Ry     beta=0.70
     Davidson diagonalization with overlap
     ethr =  8.39E-03,  avg # of iterations =  7.0

     negative rho (up, down):  2.188E-01 0.000E+00

     total cpu time spent up to now is        7.3 secs

     total energy              =     -19.54089648 Ry
     Harris-Foulkes estimate   =    -117.00529837 Ry
     estimated scf accuracy    <      26.92872736 Ry

     iteration # 47     ecut=    30.00 Ry     beta=0.70
     Davidson diagonalization with overlap
     ethr =  8.39E-03,  avg # of iterations =  6.0

     negative rho (up, down):  3.901E-01 0.000E+00

     total cpu time spent up to now is        7.4 secs

     total energy              =   22736.74803687 Ry
     Harris-Foulkes estimate   =    -729.84769912 Ry
     estimated scf accuracy    <      21.38689310 Ry

     iteration # 48     ecut=    30.00 Ry     beta=0.70
     Davidson diagonalization with overlap
     ethr =  8.39E-03,  avg # of iterations =  5.0

     negative rho (up, down):  5.515E-01 0.000E+00

     total cpu time spent up to now is        7.4 secs

     total energy              =     135.07524314 Ry
     Harris-Foulkes estimate   =  -10816.89490219 Ry
     estimated scf accuracy    <      34.91282108 Ry

     iteration # 49     ecut=    30.00 Ry     beta=0.70
     Davidson diagonalization with overlap
     ethr =  8.39E-03,  avg # of iterations =  8.0

     negative rho (up, down):  5.015E-02 0.000E+00

     total cpu time spent up to now is        7.5 secs

     total energy              =      15.58504126 Ry
     Harris-Foulkes estimate   =     -71.10898152 Ry
     estimated scf accuracy    <      17.27209994 Ry

     iteration # 50     ecut=    30.00 Ry     beta=0.70
     Davidson diagonalization with overlap
     ethr =  8.39E-03,  avg # of iterations =  9.0

     negative rho (up, down):  2.341E-01 0.000E+00

     total cpu time spent up to now is        7.6 secs

     total energy              =     -51.87154597 Ry
     Harris-Foulkes estimate   =     -55.93241742 Ry
     estimated scf accuracy    <      36.60279858 Ry

     iteration # 51     ecut=    30.00 Ry     beta=0.70
     Davidson diagonalization with overlap
     ethr =  8.39E-03,  avg # of iterations =  6.0

     negative rho (up, down):  1.722E-01 0.000E+00

     total cpu time spent up to now is        7.7 secs

     total energy              =     -11.83276259 Ry
     Harris-Foulkes estimate   =    -702.30826314 Ry
     estimated scf accuracy    <      17.42965404 Ry

     iteration # 52     ecut=    30.00 Ry     beta=0.70
     Davidson diagonalization with overlap
     ethr =  8.39E-03,  avg # of iterations =  8.0

     negative rho (up, down):  1.098E-01 0.000E+00

     total cpu time spent up to now is        7.8 secs

     total energy              =      99.63352165 Ry
     Harris-Foulkes estimate   =    -757.84748559 Ry
     estimated scf accuracy    <      29.89488600 Ry

     iteration # 53     ecut=    30.00 Ry     beta=0.70
     Davidson diagonalization with overlap
     ethr =  8.39E-03,  avg # of iterations =  6.0

     negative rho (up, down):  1.706E-01 0.000E+00

     total cpu time spent up to now is        7.8 secs

     total energy              =      -2.79559999 Ry
     Harris-Foulkes estimate   =   -3083.96768663 Ry
     estimated scf accuracy    <      15.05808427 Ry

     iteration # 54     ecut=    30.00 Ry     beta=0.70
     Davidson diagonalization with overlap
     ethr =  8.39E-03,  avg # of iterations = 11.0

     negative rho (up, down):  6.945E-02 0.000E+00

     total cpu time spent up to now is        7.9 secs

     total energy              =      60.85025204 Ry
     Harris-Foulkes estimate   =    -189.51397475 Ry
     estimated scf accuracy    <      19.12291841 Ry

     iteration # 55     ecut=    30.00 Ry     beta=0.70
     Davidson diagonalization with overlap
     ethr =  8.39E-03,  avg # of iterations =  6.0

     negative rho (up, down):  7.376E-07 0.000E+00

     total cpu time spent up to now is        8.0 secs

     total energy              =      33.08769755 Ry
     Harris-Foulkes estimate   =    -298.46978220 Ry
     estimated scf accuracy    <      16.26517324 Ry

     iteration # 56     ecut=    30.00 Ry     beta=0.70
     Davidson diagonalization with overlap
     ethr =  8.39E-03,  avg # of iterations =  4.0

     negative rho (up, down):  1.045E-06 0.000E+00

     total cpu time spent up to now is        8.0 secs

     total energy              =      -2.75634938 Ry
     Harris-Foulkes estimate   =    -233.04732810 Ry
     estimated scf accuracy    <      15.65229903 Ry

     iteration # 57     ecut=    30.00 Ry     beta=0.70
     Davidson diagonalization with overlap
     ethr =  8.39E-03,  avg # of iterations =  4.0

     negative rho (up, down):  3.549E-02 0.000E+00

     total cpu time spent up to now is        8.1 secs

     total energy              =     -48.47641341 Ry
     Harris-Foulkes estimate   =     -51.95652770 Ry
     estimated scf accuracy    <      31.22557896 Ry

     iteration # 58     ecut=    30.00 Ry     beta=0.70
     Davidson diagonalization with overlap
     ethr =  8.39E-03,  avg # of iterations =  5.0

     negative rho (up, down):  8.773E-02 0.000E+00

     total cpu time spent up to now is        8.2 secs

     total energy              =     176.73073846 Ry
     Harris-Foulkes estimate   =     -74.07520418 Ry
     estimated scf accuracy    <      19.74741973 Ry

     iteration # 59     ecut=    30.00 Ry     beta=0.70
     Davidson diagonalization with overlap
     ethr =  8.39E-03,  avg # of iterations =  6.0

     total cpu time spent up to now is        8.2 secs

     total energy              =      18.33120763 Ry
     Harris-Foulkes estimate   =    -153.54423071 Ry
     estimated scf accuracy    <      20.38099670 Ry

     iteration # 60     ecut=    30.00 Ry     beta=0.70
     Davidson diagonalization with overlap
     ethr =  8.39E-03,  avg # of iterations =  4.0

     negative rho (up, down):  3.175E-02 0.000E+00

     total cpu time spent up to now is        8.3 secs

     total energy              =     -42.82229286 Ry
     Harris-Foulkes estimate   =     -47.91866847 Ry
     estimated scf accuracy    <      26.24984518 Ry

     iteration # 61     ecut=    30.00 Ry     beta=0.70
     Davidson diagonalization with overlap
     ethr =  8.39E-03,  avg # of iterations =  1.0

     negative rho (up, down):  8.683E-02 0.000E+00

     total cpu time spent up to now is        8.3 secs

     total energy              =     -37.22251954 Ry
     Harris-Foulkes estimate   =     -42.86379885 Ry
     estimated scf accuracy    <      19.59121911 Ry

     iteration # 62     ecut=    30.00 Ry     beta=0.70
     Davidson diagonalization with overlap
     ethr =  8.39E-03,  avg # of iterations =  7.0

     negative rho (up, down):  6.791E-03 0.000E+00

     total cpu time spent up to now is        8.4 secs

     total energy              =      48.85694007 Ry
     Harris-Foulkes estimate   =    -106.16038886 Ry
     estimated scf accuracy    <      22.08139860 Ry

     iteration # 63     ecut=    30.00 Ry     beta=0.70
     Davidson diagonalization with overlap
     ethr =  8.39E-03,  avg # of iterations =  4.0

     negative rho (up, down):  2.854E-02 0.000E+00

     total cpu time spent up to now is        8.5 secs

     total energy              =     -36.98620844 Ry
     Harris-Foulkes estimate   =     -39.52989271 Ry
     estimated scf accuracy    <      15.33066525 Ry

     iteration # 64     ecut=    30.00 Ry     beta=0.70
     Davidson diagonalization with overlap
     ethr =  8.39E-03,  avg # of iterations =  9.0

     negative rho (up, down):  1.124E-02 0.000E+00

     total cpu time spent up to now is        8.6 secs

     total energy              =      62.16768663 Ry
     Harris-Foulkes estimate   =    -504.17617539 Ry
     estimated scf accuracy    <      24.51157832 Ry

     iteration # 65     ecut=    30.00 Ry     beta=0.70
     Davidson diagonalization with overlap
     ethr =  8.39E-03,  avg # of iterations =  6.0

     total cpu time spent up to now is        8.6 secs

     total energy              =     -20.61985870 Ry
     Harris-Foulkes estimate   =     -41.48908533 Ry
     estimated scf accuracy    <       9.23404939 Ry

     iteration # 66     ecut=    30.00 Ry     beta=0.70
     Davidson diagonalization with overlap
     ethr =  8.39E-03,  avg # of iterations =  4.0

     negative rho (up, down):  6.738E-03 0.000E+00

     total cpu time spent up to now is        8.7 secs

     total energy              =     -41.14921800 Ry
     Harris-Foulkes estimate   =     -42.39707024 Ry
     estimated scf accuracy    <      18.76230386 Ry

     iteration # 67     ecut=    30.00 Ry     beta=0.70
     Davidson diagonalization with overlap
     ethr =  8.39E-03,  avg # of iterations =  1.0

     negative rho (up, down):  1.163E-02 0.000E+00

     total cpu time spent up to now is        8.7 secs

     total energy              =     -38.92101731 Ry
     Harris-Foulkes estimate   =     -41.15487349 Ry
     estimated scf accuracy    <      17.09495059 Ry

     iteration # 68     ecut=    30.00 Ry     beta=0.70
     Davidson diagonalization with overlap
     ethr =  8.39E-03,  avg # of iterations =  1.0

     negative rho (up, down):  4.461E-02 0.000E+00

     total cpu time spent up to now is        8.8 secs

     total energy              =     -37.99319791 Ry
     Harris-Foulkes estimate   =     -38.93645496 Ry
     estimated scf accuracy    <      14.15667796 Ry

     iteration # 69     ecut=    30.00 Ry     beta=0.70
     Davidson diagonalization with overlap
     ethr =  8.39E-03,  avg # of iterations =  5.0

     negative rho (up, down):  1.313E-02 0.000E+00

     total cpu time spent up to now is        8.9 secs

     total energy              =      25.57923240 Ry
     Harris-Foulkes estimate   =    -103.83755785 Ry
     estimated scf accuracy    <      10.37577285 Ry

     iteration # 70     ecut=    30.00 Ry     beta=0.70
     Davidson diagonalization with overlap
     ethr =  8.39E-03,  avg # of iterations =  5.0

     negative rho (up, down):  5.097E-03 0.000E+00

     total cpu time spent up to now is        8.9 secs

     total energy              =     -27.16249443 Ry
     Harris-Foulkes estimate   =     -41.12775694 Ry
     estimated scf accuracy    <       9.38579547 Ry

     iteration # 71     ecut=    30.00 Ry     beta=0.70
     Davidson diagonalization with overlap
     ethr =  8.39E-03,  avg # of iterations =  5.0

     negative rho (up, down):  1.296E-01 0.000E+00

     total cpu time spent up to now is        9.0 secs

     total energy              =     -14.17198040 Ry
     Harris-Foulkes estimate   =     -44.64674062 Ry
     estimated scf accuracy    <       9.03373890 Ry

     iteration # 72     ecut=    30.00 Ry     beta=0.70
     Davidson diagonalization with overlap
     ethr =  8.39E-03,  avg # of iterations = 10.0

     negative rho (up, down):  1.078E-01 0.000E+00

     total cpu time spent up to now is        9.1 secs

     total energy              =      23.36854320 Ry
     Harris-Foulkes estimate   =    -102.31428665 Ry
     estimated scf accuracy    <      44.68374485 Ry

     iteration # 73     ecut=    30.00 Ry     beta=0.70
     Davidson diagonalization with overlap
     ethr =  8.39E-03,  avg # of iterations = 10.0

     negative rho (up, down):  5.343E-01 0.000E+00

     total cpu time spent up to now is        9.2 secs

     total energy              =     -13.29016105 Ry
     Harris-Foulkes estimate   =    -123.20726512 Ry
     estimated scf accuracy    <      28.02282488 Ry

     iteration # 74     ecut=    30.00 Ry     beta=0.70
     Davidson diagonalization with overlap
     ethr =  8.39E-03,  avg # of iterations =  7.0

     negative rho (up, down):  1.024E-01 0.000E+00

     total cpu time spent up to now is        9.3 secs

     total energy              =     137.71231204 Ry
     Harris-Foulkes estimate   =    -367.93109785 Ry
     estimated scf accuracy    <      57.50209913 Ry

     iteration # 75     ecut=    30.00 Ry     beta=0.70
     Davidson diagonalization with overlap
     ethr =  8.39E-03,  avg # of iterations = 10.0

     negative rho (up, down):  1.481E-01 0.000E+00

     total cpu time spent up to now is        9.3 secs

     total energy              =     -36.05580431 Ry
     Harris-Foulkes estimate   =     -56.62348834 Ry
     estimated scf accuracy    <      24.17285718 Ry

     iteration # 76     ecut=    30.00 Ry     beta=0.70
     Davidson diagonalization with overlap
     ethr =  8.39E-03,  avg # of iterations =  8.0

     negative rho (up, down):  3.100E-01 0.000E+00

     total cpu time spent up to now is        9.4 secs

     total energy              =       2.59861517 Ry
     Harris-Foulkes estimate   =    -796.87535247 Ry
     estimated scf accuracy    <      56.58951723 Ry

     iteration # 77     ecut=    30.00 Ry     beta=0.70
     Davidson diagonalization with overlap
     ethr =  8.39E-03,  avg # of iterations =  9.0

     negative rho (up, down):  1.517E-01 0.000E+00

     total cpu time spent up to now is        9.5 secs

     total energy              =      10.97259683 Ry
     Harris-Foulkes estimate   =    -148.92840212 Ry
     estimated scf accuracy    <      31.93649752 Ry

     iteration # 78     ecut=    30.00 Ry     beta=0.70
     Davidson diagonalization with overlap
     ethr =  8.39E-03,  avg # of iterations =  8.0

     negative rho (up, down):  2.105E-01 0.000E+00

     total cpu time spent up to now is        9.6 secs

     total energy              =      65.90479369 Ry
     Harris-Foulkes estimate   =    -544.18698959 Ry
     estimated scf accuracy    <      46.57412210 Ry

     iteration # 79     ecut=    30.00 Ry     beta=0.70
     Davidson diagonalization with overlap
     ethr =  8.39E-03,  avg # of iterations =  6.0

     negative rho (up, down):  2.238E-01 0.000E+00

     total cpu time spent up to now is        9.7 secs

     total energy              =      25.23021424 Ry
     Harris-Foulkes estimate   =    -171.93492792 Ry
     estimated scf accuracy    <      48.36002139 Ry

     iteration # 80     ecut=    30.00 Ry     beta=0.70
     Davidson diagonalization with overlap
     ethr =  8.39E-03,  avg # of iterations =  9.0

     negative rho (up, down):  1.734E+00 0.000E+00

     total cpu time spent up to now is        9.8 secs

     total energy              =   -8150.23513260 Ry
     Harris-Foulkes estimate   =    -885.58423896 Ry
     estimated scf accuracy    <      53.59473763 Ry

     iteration # 81     ecut=    30.00 Ry     beta=0.70
     Davidson diagonalization with overlap
     ethr =  8.39E-03,  avg # of iterations =  9.0

     negative rho (up, down):  2.352E+00 0.000E+00

     total cpu time spent up to now is        9.9 secs

     total energy              =     156.48696196 Ry
     Harris-Foulkes estimate   = -132534.15722962 Ry
     estimated scf accuracy    <      35.72960688 Ry

     iteration # 82     ecut=    30.00 Ry     beta=0.70
     Davidson diagonalization with overlap
     ethr =  8.39E-03,  avg # of iterations =  8.0

     negative rho (up, down):  2.670E+00 0.000E+00

     total cpu time spent up to now is        9.9 secs

     total energy              =   16639.82619699 Ry
     Harris-Foulkes estimate   =   -4462.88503321 Ry
     estimated scf accuracy    <      34.74423016 Ry

     iteration # 83     ecut=    30.00 Ry     beta=0.70
     Davidson diagonalization with overlap
     ethr =  8.39E-03,  avg # of iterations =  6.0

     negative rho (up, down):  1.164E+00 0.000E+00

     total cpu time spent up to now is       10.0 secs

     total energy              =      27.81582756 Ry
     Harris-Foulkes estimate   =  -14351.44501474 Ry
     estimated scf accuracy    <      40.95116332 Ry

     iteration # 84     ecut=    30.00 Ry     beta=0.70
     Davidson diagonalization with overlap
     ethr =  8.39E-03,  avg # of iterations =  6.0

     negative rho (up, down):  1.107E+00 0.000E+00

     total cpu time spent up to now is       10.1 secs

     total energy              =      16.12959197 Ry
     Harris-Foulkes estimate   =  -12144.09240321 Ry
     estimated scf accuracy    <      30.85554559 Ry

     iteration # 85     ecut=    30.00 Ry     beta=0.70
     Davidson diagonalization with overlap
     ethr =  8.39E-03,  avg # of iterations =  8.0

     negative rho (up, down):  1.070E+00 0.000E+00

     total cpu time spent up to now is       10.2 secs

     total energy              =    -151.49010713 Ry
     Harris-Foulkes estimate   =   -3734.37076438 Ry
     estimated scf accuracy    <      19.37985817 Ry

     iteration # 86     ecut=    30.00 Ry     beta=0.70
     Davidson diagonalization with overlap
     ethr =  8.39E-03,  avg # of iterations = 11.0

     negative rho (up, down):  6.485E-01 0.000E+00

     total cpu time spent up to now is       10.3 secs

     total energy              =      -3.54914268 Ry
     Harris-Foulkes estimate   =   -5004.28092278 Ry
     estimated scf accuracy    <      33.63804596 Ry

     iteration # 87     ecut=    30.00 Ry     beta=0.70
     Davidson diagonalization with overlap
     ethr =  8.39E-03,  avg # of iterations =  7.0

     negative rho (up, down):  4.659E-01 0.000E+00

     total cpu time spent up to now is       10.4 secs

     total energy              =    -143.17570276 Ry
     Harris-Foulkes estimate   =   -2119.03421531 Ry
     estimated scf accuracy    <      25.99290240 Ry

     iteration # 88     ecut=    30.00 Ry     beta=0.70
     Davidson diagonalization with overlap
     ethr =  8.39E-03,  avg # of iterations = 10.0

     negative rho (up, down):  2.193E-01 0.000E+00

     total cpu time spent up to now is       10.5 secs

     total energy              =      88.39726613 Ry
     Harris-Foulkes estimate   =   -1116.84612851 Ry
     estimated scf accuracy    <      26.71046290 Ry

     iteration # 89     ecut=    30.00 Ry     beta=0.70
     Davidson diagonalization with overlap
     ethr =  8.39E-03,  avg # of iterations =  6.0

     negative rho (up, down):  2.222E-03 0.000E+00

     total cpu time spent up to now is       10.6 secs

     total energy              =     116.62134319 Ry
     Harris-Foulkes estimate   =    -801.78845057 Ry
     estimated scf accuracy    <      28.60902879 Ry

     iteration # 90     ecut=    30.00 Ry     beta=0.70
     Davidson diagonalization with overlap
     ethr =  8.39E-03,  avg # of iterations =  9.0

     negative rho (up, down):  1.476E-02 0.000E+00

     total cpu time spent up to now is       10.6 secs

     total energy              =      27.45706873 Ry
     Harris-Foulkes estimate   =    -302.00560682 Ry
     estimated scf accuracy    <      21.98094506 Ry

     iteration # 91     ecut=    30.00 Ry     beta=0.70
     Davidson diagonalization with overlap
     ethr =  8.39E-03,  avg # of iterations =  6.0

     negative rho (up, down):  6.350E-02 0.000E+00

     total cpu time spent up to now is       10.7 secs

     total energy              =     109.28438674 Ry
     Harris-Foulkes estimate   =    -557.82824057 Ry
     estimated scf accuracy    <      23.94065598 Ry

     iteration # 92     ecut=    30.00 Ry     beta=0.70
     Davidson diagonalization with overlap
     ethr =  8.39E-03,  avg # of iterations =  4.0

     negative rho (up, down):  5.775E-02 0.000E+00

     total cpu time spent up to now is       10.8 secs

     total energy              =     -35.67924843 Ry
     Harris-Foulkes estimate   =     -85.07031737 Ry
     estimated scf accuracy    <      31.26646461 Ry

     iteration # 93     ecut=    30.00 Ry     beta=0.70
     Davidson diagonalization with overlap
     ethr =  8.39E-03,  avg # of iterations =  5.0

     negative rho (up, down):  1.588E-01 0.000E+00

     total cpu time spent up to now is       10.9 secs

     total energy              =     106.21257311 Ry
     Harris-Foulkes estimate   =    -741.51482523 Ry
     estimated scf accuracy    <      29.19294522 Ry

     iteration # 94     ecut=    30.00 Ry     beta=0.70
     Davidson diagonalization with overlap
     ethr =  8.39E-03,  avg # of iterations =  5.0

     negative rho (up, down):  1.948E-01 0.000E+00

     total cpu time spent up to now is       10.9 secs

     total energy              =      77.69341965 Ry
     Harris-Foulkes estimate   =    -927.86532926 Ry
     estimated scf accuracy    <      16.69480851 Ry

     iteration # 95     ecut=    30.00 Ry     beta=0.70
     Davidson diagonalization with overlap
     ethr =  8.39E-03,  avg # of iterations = 11.0

     negative rho (up, down):  4.321E-02 0.000E+00

     total cpu time spent up to now is       11.0 secs

     total energy              =      14.15631441 Ry
     Harris-Foulkes estimate   =     -87.26035441 Ry
     estimated scf accuracy    <      18.46201855 Ry

     iteration # 96     ecut=    30.00 Ry     beta=0.70
     Davidson diagonalization with overlap
     ethr =  8.39E-03,  avg # of iterations =  7.0

     negative rho (up, down):  1.771E-01 0.000E+00

     total cpu time spent up to now is       11.1 secs

     total energy              =     -22.99761084 Ry
     Harris-Foulkes estimate   =    -320.92830694 Ry
     estimated scf accuracy    <      33.61668177 Ry

     iteration # 97     ecut=    30.00 Ry     beta=0.70
     Davidson diagonalization with overlap
     ethr =  8.39E-03,  avg # of iterations =  4.0

     negative rho (up, down):  1.127E-01 0.000E+00

     total cpu time spent up to now is       11.2 secs

     total energy              =    -190.61461580 Ry
     Harris-Foulkes estimate   =    -658.63960673 Ry
     estimated scf accuracy    <      21.75839912 Ry

     iteration # 98     ecut=    30.00 Ry     beta=0.70
     Davidson diagonalization with overlap
     ethr =  8.39E-03,  avg # of iterations =  4.0

     negative rho (up, down):  2.232E-01 0.000E+00

     total cpu time spent up to now is       11.2 secs

     total energy              =    -146.40339277 Ry
     Harris-Foulkes estimate   =    -511.47921668 Ry
     estimated scf accuracy    <      32.77211026 Ry

     iteration # 99     ecut=    30.00 Ry     beta=0.70
     Davidson diagonalization with overlap
     ethr =  8.39E-03,  avg # of iterations =  5.0

     negative rho (up, down):  1.893E-01 0.000E+00

     total cpu time spent up to now is       11.3 secs

     total energy              =      56.12325726 Ry
     Harris-Foulkes estimate   =    -796.09652299 Ry
     estimated scf accuracy    <      25.98039792 Ry

     iteration #100     ecut=    30.00 Ry     beta=0.70
     Davidson diagonalization with overlap
     ethr =  8.39E-03,  avg # of iterations =  6.0

     negative rho (up, down):  1.917E-01 0.000E+00

     total cpu time spent up to now is       11.4 secs

     total energy              =      17.66886754 Ry
     Harris-Foulkes estimate   =    -582.10254159 Ry
     estimated scf accuracy    <      47.05686485 Ry

     End of self-consistent calculation

     convergence NOT achieved after 100 iterations: stopping

     Writing output data file pwscf.save
 
     init_run     :      0.17s CPU      0.19s WALL (       1 calls)
     electrons    :      8.88s CPU     10.38s WALL (       3 calls)
     update_pot   :      0.32s CPU      0.43s WALL (       2 calls)
     forces       :      0.08s CPU      0.09s WALL (       2 calls)

     Called by init_run:
     wfcinit      :      0.01s CPU      0.02s WALL (       1 calls)
     potinit      :      0.05s CPU      0.05s WALL (       1 calls)

     Called by electrons:
     c_bands      :      5.08s CPU      5.24s WALL (     145 calls)
     sum_band     :      0.73s CPU      0.76s WALL (     145 calls)
     v_of_rho     :      1.87s CPU      1.94s WALL (     148 calls)
     mix_rho      :      1.03s CPU      2.01s WALL (     145 calls)

     Called by c_bands:
     init_us_2    :      0.02s CPU      0.03s WALL (     291 calls)
     cegterg      :      5.03s CPU      5.16s WALL (     145 calls)

     Called by sum_band:

     Called by *egterg:
     h_psi        :      4.19s CPU      4.27s WALL (     910 calls)
     g_psi        :      0.05s CPU      0.05s WALL (     764 calls)
     cdiaghg      :      0.33s CPU      0.35s WALL (     907 calls)

     Called by h_psi:
     h_psi:pot    :      4.16s CPU      4.24s WALL (     910 calls)
     h_psi:calbec :      0.03s CPU      0.03s WALL (     910 calls)
     vloc_psi     :      4.11s CPU      4.19s WALL (     910 calls)
     add_vuspsi   :      0.01s CPU      0.01s WALL (     910 calls)

     General routines
     calbec       :      0.03s CPU      0.04s WALL (     919 calls)
     fft          :      1.05s CPU      1.09s WALL (    1632 calls)
     fftw         :      4.19s CPU      4.29s WALL (   10972 calls)
     davcio       :      0.19s CPU      0.86s WALL (    2646 calls)
 
     Parallel routines
     fft_scatter  :      1.55s CPU      1.60s WALL (   12604 calls)
 
     PWSCF        :     9.68s CPU        11.50s WALL

 
   This run was terminated on:  14:56: 6  13Feb2018            

=------------------------------------------------------------------------------=
   JOB DONE.
=------------------------------------------------------------------------------=
