
     Program PWSCF v.6.0 (svn rev. 13079) starts on 13Feb2018 at 14:58:48 

     This program is part of the open-source Quantum ESPRESSO suite
     for quantum simulation of materials; please cite
         "P. Giannozzi et al., J. Phys.:Condens. Matter 21 395502 (2009);
          URL http://www.quantum-espresso.org", 
     in publications or presentations arising from this work. More details at
     http://www.quantum-espresso.org/quote

     Parallel version (MPI), running on    28 processors
     R & G space division:  proc/nbgrp/npool/nimage =      28
     Reading input from inputs/MD-H2O-round1/368.in

     Current dimensions of program PWSCF are:
     Max number of different atomic species (ntypx) = 10
     Max number of k-points (npk) =  40000
     Max angular momentum in pseudopotentials (lmaxx) =  3

     Subspace diagonalization in iterative solution of the eigenvalue problem:
     a serial algorithm will be used

 
     Parallelization info
     --------------------
     sticks:   dense  smooth     PW     G-vecs:    dense   smooth      PW
     Min         136     136     33                 6338     6338     787
     Max         137     137     34                 6341     6341     792
     Sum        3809    3809    949               177509   177509   22119
 


     bravais-lattice index     =            1
     lattice parameter (alat)  =      20.0000  a.u.
     unit-cell volume          =    8000.0000 (a.u.)^3
     number of atoms/cell      =            3
     number of atomic types    =            2
     number of electrons       =         8.00
     number of Kohn-Sham states=            8
     kinetic-energy cutoff     =      30.0000  Ry
     charge density cutoff     =     120.0000  Ry
     convergence threshold     =      1.0E-08
     mixing beta               =       0.7000
     number of iterations used =            8  plain     mixing
     Exchange-correlation      = BLYP ( 1  3  1  3 0 0)
     nstep                     =         5000


     celldm(1)=  20.000000  celldm(2)=   0.000000  celldm(3)=   0.000000
     celldm(4)=   0.000000  celldm(5)=   0.000000  celldm(6)=   0.000000

     crystal axes: (cart. coord. in units of alat)
               a(1) = (   1.000000   0.000000   0.000000 )  
               a(2) = (   0.000000   1.000000   0.000000 )  
               a(3) = (   0.000000   0.000000   1.000000 )  

     reciprocal axes: (cart. coord. in units 2 pi/alat)
               b(1) = (  1.000000  0.000000  0.000000 )  
               b(2) = (  0.000000  1.000000  0.000000 )  
               b(3) = (  0.000000  0.000000  1.000000 )  


     PseudoPot. # 1 for  H read from file:
     ./H.blyp-hgh.UPF
     MD5 check sum: c576e69559cde411e611be972c763230
     Pseudo is Norm-conserving, Zval =  1.0
     Generated in analytical, separable form
     Using radial grid of  929 points,  0 beta functions with: 

     PseudoPot. # 2 for  O read from file:
     ./O.blyp-hgh.UPF
     MD5 check sum: d0b7156309aa9befef28faac7bc56342
     Pseudo is Norm-conserving, Zval =  6.0
     Generated in analytical, separable form
     Using radial grid of 1095 points,  1 beta functions with: 
                l(1) =   0

     atomic species   valence    mass     pseudopotential
        H              1.00     1.01000      H( 1.00)
        O              6.00    16.00000      O( 1.00)

     No symmetry found



   Cartesian axes

     site n.     atom                  positions (alat units)
         1           O   tau(   1) = (   0.7145714   0.5030888   0.7850345  )
         2           H   tau(   2) = (   0.4172611   0.8476520   0.5724585  )
         3           H   tau(   3) = (   0.4183213  -0.1284515   0.6159433  )

     number of k points=     1  Marzari-Vanderbilt smearing, width (Ry)=  0.0250
                       cart. coord. in units 2pi/alat
        k(    1) = (   0.0000000   0.0000000   0.0000000), wk =   2.0000000

     Dense  grid:   177509 G-vectors     FFT dimensions: (  72,  72,  72)

     Estimated max dynamical RAM per process >       6.09Mb

     Estimated total allocated dynamical RAM >     170.64Mb

     Initial potential from superposition of free atoms
     Check: negative starting charge=   -0.365149

     starting charge    7.99998, renormalised to    8.00000

     negative rho (up, down):  3.652E-01 0.000E+00
     Starting wfc are    6 randomized atomic wfcs +    2 random wfc

     total cpu time spent up to now is        0.3 secs

     per-process dynamical memory:    18.8 Mb

     Self-consistent Calculation

     iteration #  1     ecut=    30.00 Ry     beta=0.70
     Davidson diagonalization with overlap
     ethr =  1.00E-02,  avg # of iterations =  5.0

     negative rho (up, down):  9.546E-02 0.000E+00

     total cpu time spent up to now is        0.4 secs

     total energy              =     -31.49924349 Ry
     Harris-Foulkes estimate   =     -32.31389039 Ry
     estimated scf accuracy    <       0.86459103 Ry

     iteration #  2     ecut=    30.00 Ry     beta=0.70
     Davidson diagonalization with overlap
     ethr =  1.00E-02,  avg # of iterations =  2.0

     negative rho (up, down):  4.284E-02 0.000E+00

     total cpu time spent up to now is        0.5 secs

     total energy              =     -31.75644691 Ry
     Harris-Foulkes estimate   =     -31.79502450 Ry
     estimated scf accuracy    <       0.14708875 Ry

     iteration #  3     ecut=    30.00 Ry     beta=0.70
     Davidson diagonalization with overlap
     ethr =  1.84E-03,  avg # of iterations =  3.0

     negative rho (up, down):  2.478E-02 0.000E+00

     total cpu time spent up to now is        0.5 secs

     total energy              =     -31.78685975 Ry
     Harris-Foulkes estimate   =     -31.78230270 Ry
     estimated scf accuracy    <       0.05633653 Ry

     iteration #  4     ecut=    30.00 Ry     beta=0.70
     Davidson diagonalization with overlap
     ethr =  7.04E-04,  avg # of iterations =  3.0

     negative rho (up, down):  6.998E-03 0.000E+00

     total cpu time spent up to now is        0.6 secs

     total energy              =     -31.80980023 Ry
     Harris-Foulkes estimate   =     -31.79427131 Ry
     estimated scf accuracy    <       0.01249669 Ry

     iteration #  5     ecut=    30.00 Ry     beta=0.70
     Davidson diagonalization with overlap
     ethr =  1.56E-04,  avg # of iterations =  3.0

     negative rho (up, down):  9.747E-05 0.000E+00

     total cpu time spent up to now is        0.6 secs

     total energy              =     -31.81629364 Ry
     Harris-Foulkes estimate   =     -31.81089978 Ry
     estimated scf accuracy    <       0.00027662 Ry

     iteration #  6     ecut=    30.00 Ry     beta=0.70
     Davidson diagonalization with overlap
     ethr =  3.46E-06,  avg # of iterations = 16.0

     negative rho (up, down):  2.026E-05 0.000E+00

     total cpu time spent up to now is        0.7 secs

     total energy              =     -31.81633266 Ry
     Harris-Foulkes estimate   =     -31.81633565 Ry
     estimated scf accuracy    <       0.00008380 Ry

     iteration #  7     ecut=    30.00 Ry     beta=0.70
     Davidson diagonalization with overlap
     ethr =  1.05E-06,  avg # of iterations =  1.0

     negative rho (up, down):  5.587E-08 0.000E+00

     total cpu time spent up to now is        0.8 secs

     total energy              =     -31.81634302 Ry
     Harris-Foulkes estimate   =     -31.81633859 Ry
     estimated scf accuracy    <       0.00000339 Ry

     iteration #  8     ecut=    30.00 Ry     beta=0.70
     Davidson diagonalization with overlap
     ethr =  4.23E-08,  avg # of iterations =  2.0

     total cpu time spent up to now is        0.8 secs

     total energy              =     -31.81634577 Ry
     Harris-Foulkes estimate   =     -31.81634486 Ry
     estimated scf accuracy    <       0.00000140 Ry

     iteration #  9     ecut=    30.00 Ry     beta=0.70
     Davidson diagonalization with overlap
     ethr =  1.75E-08,  avg # of iterations =  1.0

     total cpu time spent up to now is        0.9 secs

     total energy              =     -31.81634610 Ry
     Harris-Foulkes estimate   =     -31.81634585 Ry
     estimated scf accuracy    <       0.00000037 Ry

     iteration # 10     ecut=    30.00 Ry     beta=0.70
     Davidson diagonalization with overlap
     ethr =  4.66E-09,  avg # of iterations =  2.0

     total cpu time spent up to now is        0.9 secs

     total energy              =     -31.81634609 Ry
     Harris-Foulkes estimate   =     -31.81634613 Ry
     estimated scf accuracy    <       0.00000007 Ry

     iteration # 11     ecut=    30.00 Ry     beta=0.70
     Davidson diagonalization with overlap
     ethr =  8.24E-10,  avg # of iterations =  2.0

     total cpu time spent up to now is        0.9 secs

     End of self-consistent calculation

          k = 0.0000 0.0000 0.0000 ( 22119 PWs)   bands (ev):

   -25.1025 -11.3683  -8.4063  -8.4063  -8.4058  -0.3614   0.7043   0.8822

     the Fermi energy is    -8.2831 ev

!    total energy              =     -31.81634608 Ry
     Harris-Foulkes estimate   =     -31.81634610 Ry
     estimated scf accuracy    <          4.1E-10 Ry

     convergence has been achieved in  11 iterations

     Forces acting on atoms (Ry/au):

     atom    1 type  2   force =     0.00020762    0.00044591   -0.00008441
     atom    2 type  1   force =    -0.01501500   -0.33661027   -0.61213017
     atom    3 type  1   force =     0.01480738    0.33616436    0.61221458

     Total force =     0.988063     Total SCF correction =     0.000053

     Molecular Dynamics Calculation

     Starting temperature  =  1000.00 K

     temperature is controlled by Andersen thermostat
     Collision frequency = 1.0000/timestep
     mass H                =     1.01
     mass O                =    16.00
     Time step             =   100.00 a.u.,  4.8378 femto-seconds

     Entering Dynamics:    iteration =     1
                           time      =   0.0048 pico-seconds


     Andersen thermostat:    3 collisions

ATOMIC_POSITIONS (bohr)
O       14.278990967  10.054498575  15.678928804
H        8.265199962  15.305200781   8.027059646
H        8.643485181  -0.805903833  16.085692327


     kinetic energy (Ekin) =     0.01337019 Ry
     temperature           =   703.66124461 K 
     Ekin + Etot (const)   =   -31.80297589 Ry

     Linear momentum :   -0.0000000000   -0.0000000000   -0.0000000000

     Writing output data file pwscf.save
     Check: negative starting charge=   -0.365149
     NEW-OLD atomic charge density approx. for the potential
     Check: negative starting charge=   -0.351361

     negative rho (up, down):  2.978E-01 0.000E+00

     total cpu time spent up to now is        1.3 secs

     per-process dynamical memory:    20.4 Mb

     Self-consistent Calculation

     iteration #  1     ecut=    30.00 Ry     beta=0.70
     Davidson diagonalization with overlap
     c_bands:  1 eigenvalues not converged
     ethr =  1.00E-06,  avg # of iterations = 20.0

     negative rho (up, down):  8.678E-02 0.000E+00

     total cpu time spent up to now is        1.5 secs

     total energy              =     -29.21596547 Ry
     Harris-Foulkes estimate   =     -31.78441749 Ry
     estimated scf accuracy    <       3.24386142 Ry

     iteration #  2     ecut=    30.00 Ry     beta=0.70
     Davidson diagonalization with overlap
     ethr =  1.00E-02,  avg # of iterations =  4.0

     negative rho (up, down):  3.077E-03 0.000E+00

     total cpu time spent up to now is        1.5 secs

     total energy              =     -31.61289908 Ry
     Harris-Foulkes estimate   =     -38.47973303 Ry
     estimated scf accuracy    <      21.99233474 Ry

     iteration #  3     ecut=    30.00 Ry     beta=0.70
     Davidson diagonalization with overlap
     ethr =  1.00E-02,  avg # of iterations =  2.0

     negative rho (up, down):  7.774E-04 0.000E+00

     total cpu time spent up to now is        1.6 secs

     total energy              =     -31.60647278 Ry
     Harris-Foulkes estimate   =     -31.86236893 Ry
     estimated scf accuracy    <      12.17107599 Ry

     iteration #  4     ecut=    30.00 Ry     beta=0.70
     Davidson diagonalization with overlap
     ethr =  1.00E-02,  avg # of iterations =  1.0

     negative rho (up, down):  2.516E-02 0.000E+00

     total cpu time spent up to now is        1.6 secs

     total energy              =     -30.41627600 Ry
     Harris-Foulkes estimate   =     -31.61034437 Ry
     estimated scf accuracy    <      11.90506808 Ry

     iteration #  5     ecut=    30.00 Ry     beta=0.70
     Davidson diagonalization with overlap
     ethr =  1.00E-02,  avg # of iterations =  1.0

     negative rho (up, down):  1.319E-01 0.000E+00

     total cpu time spent up to now is        1.7 secs

     total energy              =     -27.04078853 Ry
     Harris-Foulkes estimate   =     -30.42925301 Ry
     estimated scf accuracy    <      10.18596465 Ry

     iteration #  6     ecut=    30.00 Ry     beta=0.70
     Davidson diagonalization with overlap
     ethr =  1.00E-02,  avg # of iterations =  6.0

     negative rho (up, down):  3.416E-02 0.000E+00

     total cpu time spent up to now is        1.7 secs

     total energy              =     -33.15887853 Ry
     Harris-Foulkes estimate   =     -33.98734467 Ry
     estimated scf accuracy    <       7.13686659 Ry

     iteration #  7     ecut=    30.00 Ry     beta=0.70
     Davidson diagonalization with overlap
     ethr =  1.00E-02,  avg # of iterations =  1.0

     negative rho (up, down):  1.886E-03 0.000E+00

     total cpu time spent up to now is        1.8 secs

     total energy              =     -32.54164225 Ry
     Harris-Foulkes estimate   =     -33.19367234 Ry
     estimated scf accuracy    <       5.67866502 Ry

     iteration #  8     ecut=    30.00 Ry     beta=0.70
     Davidson diagonalization with overlap
     ethr =  1.00E-02,  avg # of iterations =  1.0

     negative rho (up, down):  5.550E-05 0.000E+00

     total cpu time spent up to now is        1.8 secs

     total energy              =     -32.05888402 Ry
     Harris-Foulkes estimate   =     -32.55559161 Ry
     estimated scf accuracy    <       4.55871857 Ry

     iteration #  9     ecut=    30.00 Ry     beta=0.70
     Davidson diagonalization with overlap
     ethr =  1.00E-02,  avg # of iterations =  1.0

     negative rho (up, down):  5.162E-06 0.000E+00

     total cpu time spent up to now is        1.9 secs

     total energy              =     -31.73364643 Ry
     Harris-Foulkes estimate   =     -32.05307657 Ry
     estimated scf accuracy    <       3.75831886 Ry

     iteration # 10     ecut=    30.00 Ry     beta=0.70
     Davidson diagonalization with overlap
     ethr =  1.00E-02,  avg # of iterations =  1.0

     negative rho (up, down):  2.859E-06 0.000E+00

     total cpu time spent up to now is        1.9 secs

     total energy              =     -32.09160342 Ry
     Harris-Foulkes estimate   =     -31.73728994 Ry
     estimated scf accuracy    <       3.22334982 Ry

     iteration # 11     ecut=    30.00 Ry     beta=0.70
     Davidson diagonalization with overlap
     ethr =  1.00E-02,  avg # of iterations =  1.0

     negative rho (up, down):  1.406E-03 0.000E+00

     total cpu time spent up to now is        2.0 secs

     total energy              =     -32.01054761 Ry
     Harris-Foulkes estimate   =     -32.09560691 Ry
     estimated scf accuracy    <       3.80286151 Ry

     iteration # 12     ecut=    30.00 Ry     beta=0.70
     Davidson diagonalization with overlap
     ethr =  1.00E-02,  avg # of iterations =  1.0

     negative rho (up, down):  1.890E+00 0.000E+00

     total cpu time spent up to now is        2.0 secs

     total energy              =     -54.97890867 Ry
     Harris-Foulkes estimate   =     -32.01070166 Ry
     estimated scf accuracy    <       3.69657297 Ry

     iteration # 13     ecut=    30.00 Ry     beta=0.70
     Davidson diagonalization with overlap
     ethr =  1.00E-02,  avg # of iterations =  8.0

     negative rho (up, down):  2.554E+00 0.000E+00

     total cpu time spent up to now is        2.1 secs

     total energy              =     -71.68379005 Ry
     Harris-Foulkes estimate   =    -122.43226661 Ry
     estimated scf accuracy    <      40.21539790 Ry

     iteration # 14     ecut=    30.00 Ry     beta=0.70
     Davidson diagonalization with overlap
     ethr =  1.00E-02,  avg # of iterations =  7.0

     negative rho (up, down):  7.099E-02 0.000E+00

     total cpu time spent up to now is        2.2 secs

     total energy              =      67.60507108 Ry
     Harris-Foulkes estimate   =    -258.34923338 Ry
     estimated scf accuracy    <      40.47918346 Ry

     iteration # 15     ecut=    30.00 Ry     beta=0.70
     Davidson diagonalization with overlap
     ethr =  1.00E-02,  avg # of iterations = 13.0

     negative rho (up, down):  1.953E-02 0.000E+00

     total cpu time spent up to now is        2.4 secs

     total energy              =     -36.39053627 Ry
     Harris-Foulkes estimate   =     -38.49283360 Ry
     estimated scf accuracy    <      23.10837950 Ry

     iteration # 16     ecut=    30.00 Ry     beta=0.70
     Davidson diagonalization with overlap
     ethr =  1.00E-02,  avg # of iterations =  1.0

     negative rho (up, down):  1.562E-02 0.000E+00

     total cpu time spent up to now is        2.4 secs

     total energy              =     -36.50947198 Ry
     Harris-Foulkes estimate   =     -36.40604136 Ry
     estimated scf accuracy    <      19.53114737 Ry

     iteration # 17     ecut=    30.00 Ry     beta=0.70
     Davidson diagonalization with overlap
     ethr =  1.00E-02,  avg # of iterations =  1.0

     negative rho (up, down):  1.596E-02 0.000E+00

     total cpu time spent up to now is        2.5 secs

     total energy              =     -35.76835229 Ry
     Harris-Foulkes estimate   =     -36.51434261 Ry
     estimated scf accuracy    <      19.70795286 Ry

     iteration # 18     ecut=    30.00 Ry     beta=0.70
     Davidson diagonalization with overlap
     ethr =  1.00E-02,  avg # of iterations =  1.0

     negative rho (up, down):  8.062E-03 0.000E+00

     total cpu time spent up to now is        2.5 secs

     total energy              =     -34.97044500 Ry
     Harris-Foulkes estimate   =     -35.77101041 Ry
     estimated scf accuracy    <      18.69178561 Ry

     iteration # 19     ecut=    30.00 Ry     beta=0.70
     Davidson diagonalization with overlap
     ethr =  1.00E-02,  avg # of iterations =  1.0

     negative rho (up, down):  2.064E-02 0.000E+00

     total cpu time spent up to now is        2.6 secs

     total energy              =     -29.14466598 Ry
     Harris-Foulkes estimate   =     -34.97396014 Ry
     estimated scf accuracy    <      17.60095731 Ry

     iteration # 20     ecut=    30.00 Ry     beta=0.70
     Davidson diagonalization with overlap
     ethr =  1.00E-02,  avg # of iterations =  7.0

     negative rho (up, down):  4.622E-03 0.000E+00

     total cpu time spent up to now is        2.6 secs

     total energy              =     -30.48988769 Ry
     Harris-Foulkes estimate   =     -30.88234257 Ry
     estimated scf accuracy    <       3.13557792 Ry

     iteration # 21     ecut=    30.00 Ry     beta=0.70
     Davidson diagonalization with overlap
     ethr =  1.00E-02,  avg # of iterations =  2.0

     negative rho (up, down):  2.857E-01 0.000E+00

     total cpu time spent up to now is        2.7 secs

     total energy              =     -26.49019536 Ry
     Harris-Foulkes estimate   =     -30.53400380 Ry
     estimated scf accuracy    <       2.46196920 Ry

     iteration # 22     ecut=    30.00 Ry     beta=0.70
     Davidson diagonalization with overlap
     ethr =  1.00E-02,  avg # of iterations =  8.0

     negative rho (up, down):  2.206E-01 0.000E+00

     total cpu time spent up to now is        2.8 secs

     total energy              =     -30.29375945 Ry
     Harris-Foulkes estimate   =     -95.44227382 Ry
     estimated scf accuracy    <      21.27278735 Ry

     iteration # 23     ecut=    30.00 Ry     beta=0.70
     Davidson diagonalization with overlap
     ethr =  1.00E-02,  avg # of iterations =  5.0

     negative rho (up, down):  2.134E-01 0.000E+00

     total cpu time spent up to now is        2.8 secs

     total energy              =     -58.65628400 Ry
     Harris-Foulkes estimate   =    -362.55810970 Ry
     estimated scf accuracy    <      38.61600948 Ry

     iteration # 24     ecut=    30.00 Ry     beta=0.70
     Davidson diagonalization with overlap
     ethr =  1.00E-02,  avg # of iterations =  4.0

     negative rho (up, down):  1.433E-01 0.000E+00

     total cpu time spent up to now is        2.9 secs

     total energy              =     -25.04841920 Ry
     Harris-Foulkes estimate   =    -116.05242916 Ry
     estimated scf accuracy    <      19.75626836 Ry

     iteration # 25     ecut=    30.00 Ry     beta=0.70
     Davidson diagonalization with overlap
     ethr =  1.00E-02,  avg # of iterations =  4.0

     negative rho (up, down):  1.772E-01 0.000E+00

     total cpu time spent up to now is        3.0 secs

     total energy              =     -64.04120869 Ry
     Harris-Foulkes estimate   =    -651.15292667 Ry
     estimated scf accuracy    <      31.52271151 Ry

     iteration # 26     ecut=    30.00 Ry     beta=0.70
     Davidson diagonalization with overlap
     ethr =  1.00E-02,  avg # of iterations =  6.0

     negative rho (up, down):  1.273E-01 0.000E+00

     total cpu time spent up to now is        3.1 secs

     total energy              =     -72.22809499 Ry
     Harris-Foulkes estimate   =    -319.47741068 Ry
     estimated scf accuracy    <      32.88487726 Ry

     iteration # 27     ecut=    30.00 Ry     beta=0.70
     Davidson diagonalization with overlap
     ethr =  1.00E-02,  avg # of iterations =  6.0

     negative rho (up, down):  1.339E-01 0.000E+00

     total cpu time spent up to now is        3.3 secs

     total energy              =    -178.54608903 Ry
     Harris-Foulkes estimate   =    -234.98594224 Ry
     estimated scf accuracy    <      26.29811850 Ry

     iteration # 28     ecut=    30.00 Ry     beta=0.70
     Davidson diagonalization with overlap
     ethr =  1.00E-02,  avg # of iterations =  6.0

     negative rho (up, down):  1.364E-01 0.000E+00

     total cpu time spent up to now is        3.4 secs

     total energy              =      79.77674137 Ry
     Harris-Foulkes estimate   =   -1884.88753591 Ry
     estimated scf accuracy    <      28.86931689 Ry

     iteration # 29     ecut=    30.00 Ry     beta=0.70
     Davidson diagonalization with overlap
     ethr =  1.00E-02,  avg # of iterations =  6.0

     negative rho (up, down):  1.661E-01 0.000E+00

     total cpu time spent up to now is        3.5 secs

     total energy              =     -68.00407131 Ry
     Harris-Foulkes estimate   =    -196.47361753 Ry
     estimated scf accuracy    <      30.53351654 Ry

     iteration # 30     ecut=    30.00 Ry     beta=0.70
     Davidson diagonalization with overlap
     ethr =  1.00E-02,  avg # of iterations =  4.0

     negative rho (up, down):  1.173E+00 0.000E+00

     total cpu time spent up to now is        3.7 secs

     total energy              =      -9.34133997 Ry
     Harris-Foulkes estimate   =    -660.20334653 Ry
     estimated scf accuracy    <      37.46722871 Ry

     iteration # 31     ecut=    30.00 Ry     beta=0.70
     Davidson diagonalization with overlap
     ethr =  1.00E-02,  avg # of iterations =  6.0

     negative rho (up, down):  1.579E+00 0.000E+00

     total cpu time spent up to now is        3.8 secs

     total energy              =      67.29881598 Ry
     Harris-Foulkes estimate   =    -788.26887085 Ry
     estimated scf accuracy    <      24.74983888 Ry

     iteration # 32     ecut=    30.00 Ry     beta=0.70
     Davidson diagonalization with overlap
     ethr =  1.00E-02,  avg # of iterations =  8.0

     negative rho (up, down):  4.365E-01 0.000E+00

     total cpu time spent up to now is        4.0 secs

     total energy              =     -91.05111261 Ry
     Harris-Foulkes estimate   =    -735.87836531 Ry
     estimated scf accuracy    <      33.66882984 Ry

     iteration # 33     ecut=    30.00 Ry     beta=0.70
     Davidson diagonalization with overlap
     ethr =  1.00E-02,  avg # of iterations =  5.0

     negative rho (up, down):  4.759E-01 0.000E+00

     total cpu time spent up to now is        4.2 secs

     total energy              =   -5276.50383899 Ry
     Harris-Foulkes estimate   =   -3194.38548284 Ry
     estimated scf accuracy    <      20.19864564 Ry

     iteration # 34     ecut=    30.00 Ry     beta=0.70
     Davidson diagonalization with overlap
     ethr =  1.00E-02,  avg # of iterations =  8.0

     negative rho (up, down):  5.663E-01 0.000E+00

     total cpu time spent up to now is        4.4 secs

     total energy              =    -873.50907985 Ry
     Harris-Foulkes estimate   =  -39799.89728244 Ry
     estimated scf accuracy    <      28.34731399 Ry

     iteration # 35     ecut=    30.00 Ry     beta=0.70
     Davidson diagonalization with overlap
     ethr =  1.00E-02,  avg # of iterations =  9.0

     negative rho (up, down):  7.783E-02 0.000E+00

     total cpu time spent up to now is        4.6 secs

     total energy              =     -15.63283514 Ry
     Harris-Foulkes estimate   =   -4417.72988982 Ry
     estimated scf accuracy    <      26.54242293 Ry

     iteration # 36     ecut=    30.00 Ry     beta=0.70
     Davidson diagonalization with overlap
     ethr =  1.00E-02,  avg # of iterations =  7.0

     negative rho (up, down):  1.938E-01 0.000E+00

     total cpu time spent up to now is        4.7 secs

     total energy              =     -10.46094303 Ry
     Harris-Foulkes estimate   =    -819.77522320 Ry
     estimated scf accuracy    <      30.54587206 Ry

     iteration # 37     ecut=    30.00 Ry     beta=0.70
     Davidson diagonalization with overlap
     ethr =  1.00E-02,  avg # of iterations =  9.0

     negative rho (up, down):  1.868E-01 0.000E+00

     total cpu time spent up to now is        4.9 secs

     total energy              =     -21.24924805 Ry
     Harris-Foulkes estimate   =   -2196.39835667 Ry
     estimated scf accuracy    <      25.23279661 Ry

     iteration # 38     ecut=    30.00 Ry     beta=0.70
     Davidson diagonalization with overlap
     ethr =  1.00E-02,  avg # of iterations =  7.0

     negative rho (up, down):  8.363E-02 0.000E+00

     total cpu time spent up to now is        5.1 secs

     total energy              =      34.06495059 Ry
     Harris-Foulkes estimate   =   -2812.89730260 Ry
     estimated scf accuracy    <      13.36274196 Ry

     iteration # 39     ecut=    30.00 Ry     beta=0.70
     Davidson diagonalization with overlap
     ethr =  1.00E-02,  avg # of iterations =  7.0

     total cpu time spent up to now is        5.3 secs

     total energy              =     -33.03831115 Ry
     Harris-Foulkes estimate   =     -41.33327689 Ry
     estimated scf accuracy    <      16.07085484 Ry

     iteration # 40     ecut=    30.00 Ry     beta=0.70
     Davidson diagonalization with overlap
     ethr =  1.00E-02,  avg # of iterations =  4.0

     negative rho (up, down):  2.476E-02 0.000E+00

     total cpu time spent up to now is        5.4 secs

     total energy              =     -35.78444183 Ry
     Harris-Foulkes estimate   =     -37.57730470 Ry
     estimated scf accuracy    <      11.83029802 Ry

     iteration # 41     ecut=    30.00 Ry     beta=0.70
     Davidson diagonalization with overlap
     ethr =  1.00E-02,  avg # of iterations =  4.0

     negative rho (up, down):  1.457E-03 0.000E+00

     total cpu time spent up to now is        5.5 secs

     total energy              =     -26.87331123 Ry
     Harris-Foulkes estimate   =     -50.58022081 Ry
     estimated scf accuracy    <      10.36295991 Ry

     iteration # 42     ecut=    30.00 Ry     beta=0.70
     Davidson diagonalization with overlap
     ethr =  1.00E-02,  avg # of iterations =  3.0

     negative rho (up, down):  3.821E-02 0.000E+00

     total cpu time spent up to now is        5.6 secs

     total energy              =     -22.09357649 Ry
     Harris-Foulkes estimate   =    -108.02461539 Ry
     estimated scf accuracy    <      11.01115609 Ry

     iteration # 43     ecut=    30.00 Ry     beta=0.70
     Davidson diagonalization with overlap
     ethr =  1.00E-02,  avg # of iterations =  8.0

     negative rho (up, down):  1.220E-02 0.000E+00

     total cpu time spent up to now is        5.8 secs

     total energy              =      44.69462145 Ry
     Harris-Foulkes estimate   =    -643.62468311 Ry
     estimated scf accuracy    <      24.47649519 Ry

     iteration # 44     ecut=    30.00 Ry     beta=0.70
     Davidson diagonalization with overlap
     ethr =  1.00E-02,  avg # of iterations =  6.0

     negative rho (up, down):  3.128E-03 0.000E+00

     total cpu time spent up to now is        6.0 secs

     total energy              =      22.50348809 Ry
     Harris-Foulkes estimate   =    -423.77232656 Ry
     estimated scf accuracy    <      22.58094372 Ry

     iteration # 45     ecut=    30.00 Ry     beta=0.70
     Davidson diagonalization with overlap
     ethr =  1.00E-02,  avg # of iterations = 14.0

     negative rho (up, down):  6.876E-04 0.000E+00

     total cpu time spent up to now is        6.2 secs

     total energy              =       1.52304429 Ry
     Harris-Foulkes estimate   =    -217.13347075 Ry
     estimated scf accuracy    <       8.98484912 Ry

     iteration # 46     ecut=    30.00 Ry     beta=0.70
     Davidson diagonalization with overlap
     ethr =  1.00E-02,  avg # of iterations =  4.0

     negative rho (up, down):  2.745E-03 0.000E+00

     total cpu time spent up to now is        6.3 secs

     total energy              =      -8.60997818 Ry
     Harris-Foulkes estimate   =     -47.63438115 Ry
     estimated scf accuracy    <       8.02424922 Ry

     iteration # 47     ecut=    30.00 Ry     beta=0.70
     Davidson diagonalization with overlap
     ethr =  1.00E-02,  avg # of iterations =  4.0

     negative rho (up, down):  5.487E-02 0.000E+00

     total cpu time spent up to now is        6.4 secs

     total energy              =     -34.40163114 Ry
     Harris-Foulkes estimate   =     -34.34540993 Ry
     estimated scf accuracy    <       6.08712818 Ry

     iteration # 48     ecut=    30.00 Ry     beta=0.70
     Davidson diagonalization with overlap
     ethr =  1.00E-02,  avg # of iterations =  4.0

     negative rho (up, down):  6.014E-02 0.000E+00

     total cpu time spent up to now is        6.6 secs

     total energy              =     -20.16064550 Ry
     Harris-Foulkes estimate   =    -127.33124196 Ry
     estimated scf accuracy    <      14.06509778 Ry

     iteration # 49     ecut=    30.00 Ry     beta=0.70
     Davidson diagonalization with overlap
     ethr =  1.00E-02,  avg # of iterations =  5.0

     negative rho (up, down):  4.512E-02 0.000E+00

     total cpu time spent up to now is        6.7 secs

     total energy              =      -0.28702037 Ry
     Harris-Foulkes estimate   =     -71.53523852 Ry
     estimated scf accuracy    <      14.93211079 Ry

     iteration # 50     ecut=    30.00 Ry     beta=0.70
     Davidson diagonalization with overlap
     ethr =  1.00E-02,  avg # of iterations =  4.0

     negative rho (up, down):  1.307E-02 0.000E+00

     total cpu time spent up to now is        6.8 secs

     total energy              =       2.07867469 Ry
     Harris-Foulkes estimate   =    -611.61024341 Ry
     estimated scf accuracy    <       9.30781071 Ry

     iteration # 51     ecut=    30.00 Ry     beta=0.70
     Davidson diagonalization with overlap
     ethr =  1.00E-02,  avg # of iterations =  4.0

     negative rho (up, down):  1.142E-01 0.000E+00

     total cpu time spent up to now is        7.0 secs

     total energy              =     -54.83763275 Ry
     Harris-Foulkes estimate   =     -68.69047407 Ry
     estimated scf accuracy    <       7.45700398 Ry

     iteration # 52     ecut=    30.00 Ry     beta=0.70
     Davidson diagonalization with overlap
     ethr =  1.00E-02,  avg # of iterations =  5.0

     negative rho (up, down):  1.623E-01 0.000E+00

     total cpu time spent up to now is        7.1 secs

     total energy              =     -68.06893445 Ry
     Harris-Foulkes estimate   =    -344.08076230 Ry
     estimated scf accuracy    <      43.67062473 Ry

     iteration # 53     ecut=    30.00 Ry     beta=0.70
     Davidson diagonalization with overlap
     ethr =  1.00E-02,  avg # of iterations =  5.0

     negative rho (up, down):  2.717E-01 0.000E+00

     total cpu time spent up to now is        7.2 secs

     total energy              =    -179.70690953 Ry
     Harris-Foulkes estimate   =    -604.03558176 Ry
     estimated scf accuracy    <      19.46033919 Ry

     iteration # 54     ecut=    30.00 Ry     beta=0.70
     Davidson diagonalization with overlap
     ethr =  1.00E-02,  avg # of iterations =  5.0

     negative rho (up, down):  2.699E-01 0.000E+00

     total cpu time spent up to now is        7.3 secs

     total energy              =  -11163.34498236 Ry
     Harris-Foulkes estimate   =   -1203.84088659 Ry
     estimated scf accuracy    <      46.94830022 Ry

     iteration # 55     ecut=    30.00 Ry     beta=0.70
     Davidson diagonalization with overlap
     ethr =  1.00E-02,  avg # of iterations =  4.0

     negative rho (up, down):  2.845E-01 0.000E+00

     total cpu time spent up to now is        7.5 secs

     total energy              =    -972.79009916 Ry
     Harris-Foulkes estimate   =  -25794.93608520 Ry
     estimated scf accuracy    <      40.47937596 Ry

     iteration # 56     ecut=    30.00 Ry     beta=0.70
     Davidson diagonalization with overlap
     ethr =  1.00E-02,  avg # of iterations =  4.0

     negative rho (up, down):  3.051E-01 0.000E+00

     total cpu time spent up to now is        7.6 secs

     total energy              =     -12.63574715 Ry
     Harris-Foulkes estimate   =   -1277.78493423 Ry
     estimated scf accuracy    <      37.75277265 Ry

     iteration # 57     ecut=    30.00 Ry     beta=0.70
     Davidson diagonalization with overlap
     ethr =  1.00E-02,  avg # of iterations =  9.0

     negative rho (up, down):  5.392E-01 0.000E+00

     total cpu time spent up to now is        7.8 secs

     total energy              =   -1147.80829633 Ry
     Harris-Foulkes estimate   =   -1191.07469750 Ry
     estimated scf accuracy    <      41.23075603 Ry

     iteration # 58     ecut=    30.00 Ry     beta=0.70
     Davidson diagonalization with overlap
     ethr =  1.00E-02,  avg # of iterations =  7.0

     negative rho (up, down):  5.163E-01 0.000E+00

     total cpu time spent up to now is        7.9 secs

     total energy              =    -215.39753193 Ry
     Harris-Foulkes estimate   =   -3746.62125071 Ry
     estimated scf accuracy    <      37.84095333 Ry

     iteration # 59     ecut=    30.00 Ry     beta=0.70
     Davidson diagonalization with overlap
     ethr =  1.00E-02,  avg # of iterations =  6.0

     negative rho (up, down):  6.479E-01 0.000E+00

     total cpu time spent up to now is        8.1 secs

     total energy              =      83.68203796 Ry
     Harris-Foulkes estimate   =   -3782.35221778 Ry
     estimated scf accuracy    <      39.13360926 Ry

     iteration # 60     ecut=    30.00 Ry     beta=0.70
     Davidson diagonalization with overlap
     ethr =  1.00E-02,  avg # of iterations = 10.0

     negative rho (up, down):  1.271E+00 0.000E+00

     total cpu time spent up to now is        8.3 secs

     total energy              =      51.44964950 Ry
     Harris-Foulkes estimate   =    -385.79537314 Ry
     estimated scf accuracy    <      31.60725981 Ry

     iteration # 61     ecut=    30.00 Ry     beta=0.70
     Davidson diagonalization with overlap
     ethr =  1.00E-02,  avg # of iterations =  8.0

     negative rho (up, down):  7.402E-01 0.000E+00

     total cpu time spent up to now is        8.5 secs

     total energy              =    -894.24278556 Ry
     Harris-Foulkes estimate   =   -1404.00969912 Ry
     estimated scf accuracy    <      27.70313302 Ry

     iteration # 62     ecut=    30.00 Ry     beta=0.70
     Davidson diagonalization with overlap
     ethr =  1.00E-02,  avg # of iterations =  7.0

     negative rho (up, down):  7.601E-01 0.000E+00

     total cpu time spent up to now is        8.6 secs

     total energy              =    -156.00804400 Ry
     Harris-Foulkes estimate   =  -17754.42795080 Ry
     estimated scf accuracy    <      26.32918608 Ry

     iteration # 63     ecut=    30.00 Ry     beta=0.70
     Davidson diagonalization with overlap
     ethr =  1.00E-02,  avg # of iterations =  7.0

     negative rho (up, down):  8.937E-01 0.000E+00

     total cpu time spent up to now is        8.8 secs

     total energy              =     -59.50134078 Ry
     Harris-Foulkes estimate   =   -2248.22440311 Ry
     estimated scf accuracy    <      18.40417177 Ry

     iteration # 64     ecut=    30.00 Ry     beta=0.70
     Davidson diagonalization with overlap
     ethr =  1.00E-02,  avg # of iterations =  9.0

     negative rho (up, down):  1.403E-01 0.000E+00

     total cpu time spent up to now is        9.0 secs

     total energy              =     106.08867479 Ry
     Harris-Foulkes estimate   =    -979.02299078 Ry
     estimated scf accuracy    <      20.05805572 Ry

     iteration # 65     ecut=    30.00 Ry     beta=0.70
     Davidson diagonalization with overlap
     ethr =  1.00E-02,  avg # of iterations =  8.0

     negative rho (up, down):  2.331E-03 0.000E+00

     total cpu time spent up to now is        9.2 secs

     total energy              =      27.70103769 Ry
     Harris-Foulkes estimate   =    -103.39005515 Ry
     estimated scf accuracy    <      26.02370335 Ry

     iteration # 66     ecut=    30.00 Ry     beta=0.70
     Davidson diagonalization with overlap
     ethr =  1.00E-02,  avg # of iterations =  8.0

     total cpu time spent up to now is        9.4 secs

     total energy              =       0.35408275 Ry
     Harris-Foulkes estimate   =    -450.10235425 Ry
     estimated scf accuracy    <      18.68953820 Ry

     iteration # 67     ecut=    30.00 Ry     beta=0.70
     Davidson diagonalization with overlap
     ethr =  1.00E-02,  avg # of iterations =  7.0

     negative rho (up, down):  1.935E-08 0.000E+00

     total cpu time spent up to now is        9.5 secs

     total energy              =     -40.56563662 Ry
     Harris-Foulkes estimate   =     -43.52935954 Ry
     estimated scf accuracy    <      19.33121310 Ry

     iteration # 68     ecut=    30.00 Ry     beta=0.70
     Davidson diagonalization with overlap
     ethr =  1.00E-02,  avg # of iterations =  1.0

     negative rho (up, down):  3.237E-03 0.000E+00

     total cpu time spent up to now is        9.6 secs

     total energy              =     -41.01917619 Ry
     Harris-Foulkes estimate   =     -41.33030181 Ry
     estimated scf accuracy    <      15.98017058 Ry

     iteration # 69     ecut=    30.00 Ry     beta=0.70
     Davidson diagonalization with overlap
     ethr =  1.00E-02,  avg # of iterations =  3.0

     negative rho (up, down):  1.759E-04 0.000E+00

     total cpu time spent up to now is        9.7 secs

     total energy              =      -2.65197242 Ry
     Harris-Foulkes estimate   =    -239.27987071 Ry
     estimated scf accuracy    <      13.12751790 Ry

     iteration # 70     ecut=    30.00 Ry     beta=0.70
     Davidson diagonalization with overlap
     ethr =  1.00E-02,  avg # of iterations =  4.0

     negative rho (up, down):  8.570E-04 0.000E+00

     total cpu time spent up to now is        9.8 secs

     total energy              =     -42.28528545 Ry
     Harris-Foulkes estimate   =     -41.72572935 Ry
     estimated scf accuracy    <      15.08358269 Ry

     iteration # 71     ecut=    30.00 Ry     beta=0.70
     Davidson diagonalization with overlap
     ethr =  1.00E-02,  avg # of iterations =  1.0

     negative rho (up, down):  1.160E-01 0.000E+00

     total cpu time spent up to now is        9.9 secs

     total energy              =     -42.69433092 Ry
     Harris-Foulkes estimate   =     -42.36487217 Ry
     estimated scf accuracy    <      16.96309367 Ry

     iteration # 72     ecut=    30.00 Ry     beta=0.70
     Davidson diagonalization with overlap
     ethr =  1.00E-02,  avg # of iterations =  8.0

     negative rho (up, down):  1.471E-03 0.000E+00

     total cpu time spent up to now is       10.1 secs

     total energy              =      26.50682663 Ry
     Harris-Foulkes estimate   =     -66.57018335 Ry
     estimated scf accuracy    <      20.14039453 Ry

     iteration # 73     ecut=    30.00 Ry     beta=0.70
     Davidson diagonalization with overlap
     ethr =  1.00E-02,  avg # of iterations =  4.0

     negative rho (up, down):  2.139E-01 0.000E+00

     total cpu time spent up to now is       10.2 secs

     total energy              =     -43.71736852 Ry
     Harris-Foulkes estimate   =     -40.44361447 Ry
     estimated scf accuracy    <      14.48624419 Ry

     iteration # 74     ecut=    30.00 Ry     beta=0.70
     Davidson diagonalization with overlap
     ethr =  1.00E-02,  avg # of iterations =  9.0

     negative rho (up, down):  1.253E-01 0.000E+00

     total cpu time spent up to now is       10.3 secs

     total energy              =      92.92786469 Ry
     Harris-Foulkes estimate   =    -597.35086985 Ry
     estimated scf accuracy    <      31.12797422 Ry

     iteration # 75     ecut=    30.00 Ry     beta=0.70
     Davidson diagonalization with overlap
     ethr =  1.00E-02,  avg # of iterations = 10.0

     negative rho (up, down):  9.644E-03 0.000E+00

     total cpu time spent up to now is       10.5 secs

     total energy              =      45.10590731 Ry
     Harris-Foulkes estimate   =    -394.81702559 Ry
     estimated scf accuracy    <      17.01389057 Ry

     iteration # 76     ecut=    30.00 Ry     beta=0.70
     Davidson diagonalization with overlap
     ethr =  1.00E-02,  avg # of iterations =  7.0

     total cpu time spent up to now is       10.7 secs

     total energy              =      28.64297757 Ry
     Harris-Foulkes estimate   =    -162.40791167 Ry
     estimated scf accuracy    <      14.34003376 Ry

     iteration # 77     ecut=    30.00 Ry     beta=0.70
     Davidson diagonalization with overlap
     ethr =  1.00E-02,  avg # of iterations =  6.0

     negative rho (up, down):  1.165E-03 0.000E+00

     total cpu time spent up to now is       10.8 secs

     total energy              =     -38.79182399 Ry
     Harris-Foulkes estimate   =     -39.65545179 Ry
     estimated scf accuracy    <      15.18767805 Ry

     iteration # 78     ecut=    30.00 Ry     beta=0.70
     Davidson diagonalization with overlap
     ethr =  1.00E-02,  avg # of iterations =  1.0

     negative rho (up, down):  1.164E-02 0.000E+00

     total cpu time spent up to now is       10.8 secs

     total energy              =     -38.93124004 Ry
     Harris-Foulkes estimate   =     -39.10643891 Ry
     estimated scf accuracy    <      11.97872873 Ry

     iteration # 79     ecut=    30.00 Ry     beta=0.70
     Davidson diagonalization with overlap
     ethr =  1.00E-02,  avg # of iterations =  6.0

     negative rho (up, down):  5.649E-03 0.000E+00

     total cpu time spent up to now is       11.0 secs

     total energy              =      47.35156080 Ry
     Harris-Foulkes estimate   =    -248.21595606 Ry
     estimated scf accuracy    <      22.80425279 Ry

     iteration # 80     ecut=    30.00 Ry     beta=0.70
     Davidson diagonalization with overlap
     ethr =  1.00E-02,  avg # of iterations =  6.0

     negative rho (up, down):  1.096E-05 0.000E+00

     total cpu time spent up to now is       11.2 secs

     total energy              =     -17.53475487 Ry
     Harris-Foulkes estimate   =     -48.12999952 Ry
     estimated scf accuracy    <      13.05578001 Ry

     iteration # 81     ecut=    30.00 Ry     beta=0.70
     Davidson diagonalization with overlap
     ethr =  1.00E-02,  avg # of iterations =  5.0

     negative rho (up, down):  5.581E-03 0.000E+00

     total cpu time spent up to now is       11.3 secs

     total energy              =     -37.78542945 Ry
     Harris-Foulkes estimate   =     -38.88501084 Ry
     estimated scf accuracy    <      12.67370007 Ry

     iteration # 82     ecut=    30.00 Ry     beta=0.70
     Davidson diagonalization with overlap
     ethr =  1.00E-02,  avg # of iterations =  2.0

     negative rho (up, down):  4.099E-02 0.000E+00

     total cpu time spent up to now is       11.4 secs

     total energy              =     -38.99512028 Ry
     Harris-Foulkes estimate   =     -38.19486428 Ry
     estimated scf accuracy    <      11.38939771 Ry

     iteration # 83     ecut=    30.00 Ry     beta=0.70
     Davidson diagonalization with overlap
     ethr =  1.00E-02,  avg # of iterations =  3.0

     negative rho (up, down):  2.179E-05 0.000E+00

     total cpu time spent up to now is       11.5 secs

     total energy              =       1.36099419 Ry
     Harris-Foulkes estimate   =    -707.82360248 Ry
     estimated scf accuracy    <      12.90740182 Ry

     iteration # 84     ecut=    30.00 Ry     beta=0.70
     Davidson diagonalization with overlap
     ethr =  1.00E-02,  avg # of iterations =  5.0

     negative rho (up, down):  2.500E-03 0.000E+00

     total cpu time spent up to now is       11.6 secs

     total energy              =     -35.94889500 Ry
     Harris-Foulkes estimate   =     -37.46061879 Ry
     estimated scf accuracy    <       9.94362539 Ry

     iteration # 85     ecut=    30.00 Ry     beta=0.70
     Davidson diagonalization with overlap
     ethr =  1.00E-02,  avg # of iterations =  1.0

     negative rho (up, down):  2.117E-02 0.000E+00

     total cpu time spent up to now is       11.7 secs

     total energy              =     -35.71777067 Ry
     Harris-Foulkes estimate   =     -36.05732403 Ry
     estimated scf accuracy    <       8.22249526 Ry

     iteration # 86     ecut=    30.00 Ry     beta=0.70
     Davidson diagonalization with overlap
     ethr =  1.00E-02,  avg # of iterations =  5.0

     negative rho (up, down):  1.530E-04 0.000E+00

     total cpu time spent up to now is       11.8 secs

     total energy              =      25.12613274 Ry
     Harris-Foulkes estimate   =     -91.28859908 Ry
     estimated scf accuracy    <      16.91249369 Ry

     iteration # 87     ecut=    30.00 Ry     beta=0.70
     Davidson diagonalization with overlap
     ethr =  1.00E-02,  avg # of iterations =  4.0

     negative rho (up, down):  9.641E-03 0.000E+00

     total cpu time spent up to now is       11.9 secs

     total energy              =     -35.50672840 Ry
     Harris-Foulkes estimate   =     -35.80838507 Ry
     estimated scf accuracy    <      11.30838258 Ry

     iteration # 88     ecut=    30.00 Ry     beta=0.70
     Davidson diagonalization with overlap
     ethr =  1.00E-02,  avg # of iterations =  3.0

     negative rho (up, down):  9.232E-06 0.000E+00

     total cpu time spent up to now is       12.0 secs

     total energy              =     -31.12899091 Ry
     Harris-Foulkes estimate   =     -35.98385745 Ry
     estimated scf accuracy    <       8.61872555 Ry

     iteration # 89     ecut=    30.00 Ry     beta=0.70
     Davidson diagonalization with overlap
     ethr =  1.00E-02,  avg # of iterations =  3.0

     negative rho (up, down):  3.329E-02 0.000E+00

     total cpu time spent up to now is       12.2 secs

     total energy              =     -34.97321848 Ry
     Harris-Foulkes estimate   =     -35.31169935 Ry
     estimated scf accuracy    <       9.18549423 Ry

     iteration # 90     ecut=    30.00 Ry     beta=0.70
     Davidson diagonalization with overlap
     ethr =  1.00E-02,  avg # of iterations = 12.0

     negative rho (up, down):  3.764E-03 0.000E+00

     total cpu time spent up to now is       12.4 secs

     total energy              =      74.95435871 Ry
     Harris-Foulkes estimate   =    -441.19468125 Ry
     estimated scf accuracy    <      33.38230307 Ry

     iteration # 91     ecut=    30.00 Ry     beta=0.70
     Davidson diagonalization with overlap
     ethr =  1.00E-02,  avg # of iterations =  7.0

     total cpu time spent up to now is       12.6 secs

     total energy              =      -3.80474772 Ry
     Harris-Foulkes estimate   =     -81.88336382 Ry
     estimated scf accuracy    <       7.40713790 Ry

     iteration # 92     ecut=    30.00 Ry     beta=0.70
     Davidson diagonalization with overlap
     ethr =  1.00E-02,  avg # of iterations =  5.0

     negative rho (up, down):  9.694E-03 0.000E+00

     total cpu time spent up to now is       12.7 secs

     total energy              =     -34.14925784 Ry
     Harris-Foulkes estimate   =     -34.41780979 Ry
     estimated scf accuracy    <       6.07834831 Ry

     iteration # 93     ecut=    30.00 Ry     beta=0.70
     Davidson diagonalization with overlap
     ethr =  1.00E-02,  avg # of iterations =  5.0

     negative rho (up, down):  1.441E-04 0.000E+00

     total cpu time spent up to now is       12.8 secs

     total energy              =     -13.87621111 Ry
     Harris-Foulkes estimate   =     -42.79998048 Ry
     estimated scf accuracy    <      13.95915806 Ry

     iteration # 94     ecut=    30.00 Ry     beta=0.70
     Davidson diagonalization with overlap
     ethr =  1.00E-02,  avg # of iterations =  4.0

     negative rho (up, down):  1.347E-03 0.000E+00

     total cpu time spent up to now is       12.9 secs

     total energy              =     -33.12808341 Ry
     Harris-Foulkes estimate   =     -33.79110217 Ry
     estimated scf accuracy    <       7.10954864 Ry

     iteration # 95     ecut=    30.00 Ry     beta=0.70
     Davidson diagonalization with overlap
     ethr =  1.00E-02,  avg # of iterations =  3.0

     negative rho (up, down):  7.300E-04 0.000E+00

     total cpu time spent up to now is       13.0 secs

     total energy              =     -11.19506398 Ry
     Harris-Foulkes estimate   =     -46.24303997 Ry
     estimated scf accuracy    <       7.54490668 Ry

     iteration # 96     ecut=    30.00 Ry     beta=0.70
     Davidson diagonalization with overlap
     ethr =  1.00E-02,  avg # of iterations =  4.0

     negative rho (up, down):  1.456E-04 0.000E+00

     total cpu time spent up to now is       13.1 secs

     total energy              =     -33.45800697 Ry
     Harris-Foulkes estimate   =     -33.48251324 Ry
     estimated scf accuracy    <       4.53108265 Ry

     iteration # 97     ecut=    30.00 Ry     beta=0.70
     Davidson diagonalization with overlap
     ethr =  1.00E-02,  avg # of iterations =  1.0

     negative rho (up, down):  1.805E-02 0.000E+00

     total cpu time spent up to now is       13.2 secs

     total energy              =     -33.34480373 Ry
     Harris-Foulkes estimate   =     -33.63979246 Ry
     estimated scf accuracy    <       4.38519918 Ry

     iteration # 98     ecut=    30.00 Ry     beta=0.70
     Davidson diagonalization with overlap
     ethr =  1.00E-02,  avg # of iterations =  4.0

     negative rho (up, down):  3.533E-02 0.000E+00

     total cpu time spent up to now is       13.3 secs

     total energy              =     -25.75435508 Ry
     Harris-Foulkes estimate   =     -51.45644398 Ry
     estimated scf accuracy    <       7.72811330 Ry

     iteration # 99     ecut=    30.00 Ry     beta=0.70
     Davidson diagonalization with overlap
     ethr =  1.00E-02,  avg # of iterations =  3.0

     negative rho (up, down):  6.540E-03 0.000E+00

     total cpu time spent up to now is       13.4 secs

     total energy              =      -6.71754951 Ry
     Harris-Foulkes estimate   =     -60.12765405 Ry
     estimated scf accuracy    <      14.45194088 Ry

     iteration #100     ecut=    30.00 Ry     beta=0.70
     Davidson diagonalization with overlap
     ethr =  1.00E-02,  avg # of iterations =  4.0

     negative rho (up, down):  2.581E-05 0.000E+00

     total cpu time spent up to now is       13.6 secs

     total energy              =     -11.83401439 Ry
     Harris-Foulkes estimate   =     -45.27687326 Ry
     estimated scf accuracy    <       6.57609153 Ry

     End of self-consistent calculation

     convergence NOT achieved after 100 iterations: stopping

     Writing output data file pwscf.save
 
     init_run     :      0.17s CPU      0.19s WALL (       1 calls)
     electrons    :     10.42s CPU     13.08s WALL (       2 calls)
     update_pot   :      0.12s CPU      0.16s WALL (       1 calls)
     forces       :      0.04s CPU      0.04s WALL (       1 calls)

     Called by init_run:
     wfcinit      :      0.01s CPU      0.02s WALL (       1 calls)
     potinit      :      0.05s CPU      0.05s WALL (       1 calls)

     Called by electrons:
     c_bands      :      6.19s CPU      7.21s WALL (     111 calls)
     sum_band     :      0.75s CPU      0.84s WALL (     111 calls)
     v_of_rho     :      1.96s CPU      2.23s WALL (     113 calls)
     mix_rho      :      1.17s CPU      2.06s WALL (     111 calls)

     Called by c_bands:
     init_us_2    :      0.02s CPU      0.02s WALL (     223 calls)
     cegterg      :      6.14s CPU      6.92s WALL (     111 calls)

     Called by sum_band:

     Called by *egterg:
     h_psi        :      4.77s CPU      5.37s WALL (     670 calls)
     g_psi        :      0.04s CPU      0.04s WALL (     558 calls)
     cdiaghg      :      0.65s CPU      0.78s WALL (     668 calls)

     Called by h_psi:
     h_psi:pot    :      4.75s CPU      5.35s WALL (     670 calls)
     h_psi:calbec :      0.42s CPU      0.51s WALL (     670 calls)
     vloc_psi     :      4.31s CPU      4.82s WALL (     670 calls)
     add_vuspsi   :      0.01s CPU      0.01s WALL (     670 calls)

     General routines
     calbec       :      0.42s CPU      0.51s WALL (     674 calls)
     fft          :      1.28s CPU      1.44s WALL (    1245 calls)
     fftw         :      4.54s CPU      5.13s WALL (    8290 calls)
     davcio       :      0.15s CPU      0.60s WALL (    2056 calls)
 
     Parallel routines
     fft_scatter  :      3.02s CPU      3.71s WALL (    9535 calls)
 
     PWSCF        :    10.97s CPU        13.98s WALL

 
   This run was terminated on:  14:59: 2  13Feb2018            

=------------------------------------------------------------------------------=
   JOB DONE.
=------------------------------------------------------------------------------=
