
     Program PWSCF v.6.0 (svn rev. 13079) starts on 13Feb2018 at 15: 3:38 

     This program is part of the open-source Quantum ESPRESSO suite
     for quantum simulation of materials; please cite
         "P. Giannozzi et al., J. Phys.:Condens. Matter 21 395502 (2009);
          URL http://www.quantum-espresso.org", 
     in publications or presentations arising from this work. More details at
     http://www.quantum-espresso.org/quote

     Parallel version (MPI), running on    28 processors
     R & G space division:  proc/nbgrp/npool/nimage =      28
     Reading input from inputs/MD-H2O-round1/385.in

     Current dimensions of program PWSCF are:
     Max number of different atomic species (ntypx) = 10
     Max number of k-points (npk) =  40000
     Max angular momentum in pseudopotentials (lmaxx) =  3

     Subspace diagonalization in iterative solution of the eigenvalue problem:
     a serial algorithm will be used

 
     Parallelization info
     --------------------
     sticks:   dense  smooth     PW     G-vecs:    dense   smooth      PW
     Min         136     136     33                 6338     6338     787
     Max         137     137     34                 6341     6341     792
     Sum        3809    3809    949               177509   177509   22119
 


     bravais-lattice index     =            1
     lattice parameter (alat)  =      20.0000  a.u.
     unit-cell volume          =    8000.0000 (a.u.)^3
     number of atoms/cell      =            3
     number of atomic types    =            2
     number of electrons       =         8.00
     number of Kohn-Sham states=            8
     kinetic-energy cutoff     =      30.0000  Ry
     charge density cutoff     =     120.0000  Ry
     convergence threshold     =      1.0E-08
     mixing beta               =       0.7000
     number of iterations used =            8  plain     mixing
     Exchange-correlation      = BLYP ( 1  3  1  3 0 0)
     nstep                     =         5000


     celldm(1)=  20.000000  celldm(2)=   0.000000  celldm(3)=   0.000000
     celldm(4)=   0.000000  celldm(5)=   0.000000  celldm(6)=   0.000000

     crystal axes: (cart. coord. in units of alat)
               a(1) = (   1.000000   0.000000   0.000000 )  
               a(2) = (   0.000000   1.000000   0.000000 )  
               a(3) = (   0.000000   0.000000   1.000000 )  

     reciprocal axes: (cart. coord. in units 2 pi/alat)
               b(1) = (  1.000000  0.000000  0.000000 )  
               b(2) = (  0.000000  1.000000  0.000000 )  
               b(3) = (  0.000000  0.000000  1.000000 )  


     PseudoPot. # 1 for  H read from file:
     ./H.blyp-hgh.UPF
     MD5 check sum: c576e69559cde411e611be972c763230
     Pseudo is Norm-conserving, Zval =  1.0
     Generated in analytical, separable form
     Using radial grid of  929 points,  0 beta functions with: 

     PseudoPot. # 2 for  O read from file:
     ./O.blyp-hgh.UPF
     MD5 check sum: d0b7156309aa9befef28faac7bc56342
     Pseudo is Norm-conserving, Zval =  6.0
     Generated in analytical, separable form
     Using radial grid of 1095 points,  1 beta functions with: 
                l(1) =   0

     atomic species   valence    mass     pseudopotential
        H              1.00     1.01000      H( 1.00)
        O              6.00    16.00000      O( 1.00)

     No symmetry found



   Cartesian axes

     site n.     atom                  positions (alat units)
         1           O   tau(   1) = (   0.5167525   0.1976285   0.5847216  )
         2           H   tau(   2) = (   0.0749274   0.6632304   0.6026612  )
         3           H   tau(   3) = (   0.4687507   0.2354331   0.6387496  )

     number of k points=     1  Marzari-Vanderbilt smearing, width (Ry)=  0.0250
                       cart. coord. in units 2pi/alat
        k(    1) = (   0.0000000   0.0000000   0.0000000), wk =   2.0000000

     Dense  grid:   177509 G-vectors     FFT dimensions: (  72,  72,  72)

     Estimated max dynamical RAM per process >       6.09Mb

     Estimated total allocated dynamical RAM >     170.64Mb

     Initial potential from superposition of free atoms
     Check: negative starting charge=   -0.351462

     starting charge    7.99998, renormalised to    8.00000

     negative rho (up, down):  3.515E-01 0.000E+00
     Starting wfc are    6 randomized atomic wfcs +    2 random wfc

     total cpu time spent up to now is        0.3 secs

     per-process dynamical memory:    18.8 Mb

     Self-consistent Calculation

     iteration #  1     ecut=    30.00 Ry     beta=0.70
     Davidson diagonalization with overlap
     ethr =  1.00E-02,  avg # of iterations =  5.0

     negative rho (up, down):  9.450E-02 0.000E+00

     total cpu time spent up to now is        0.4 secs

     total energy              =     -31.65739515 Ry
     Harris-Foulkes estimate   =     -32.09014824 Ry
     estimated scf accuracy    <       0.43148536 Ry

     iteration #  2     ecut=    30.00 Ry     beta=0.70
     Davidson diagonalization with overlap
     ethr =  5.39E-03,  avg # of iterations =  2.0

     negative rho (up, down):  7.492E-02 0.000E+00

     total cpu time spent up to now is        0.5 secs

     total energy              =     -31.64519749 Ry
     Harris-Foulkes estimate   =     -32.16329088 Ry
     estimated scf accuracy    <       1.86434973 Ry

     iteration #  3     ecut=    30.00 Ry     beta=0.70
     Davidson diagonalization with overlap
     ethr =  5.39E-03,  avg # of iterations =  2.0

     negative rho (up, down):  2.881E-02 0.000E+00

     total cpu time spent up to now is        0.5 secs

     total energy              =     -31.72610864 Ry
     Harris-Foulkes estimate   =     -31.89932437 Ry
     estimated scf accuracy    <       1.14732129 Ry

     iteration #  4     ecut=    30.00 Ry     beta=0.70
     Davidson diagonalization with overlap
     ethr =  5.39E-03,  avg # of iterations =  1.0

     negative rho (up, down):  8.855E-03 0.000E+00

     total cpu time spent up to now is        0.6 secs

     total energy              =     -31.69929681 Ry
     Harris-Foulkes estimate   =     -31.90844514 Ry
     estimated scf accuracy    <       1.31750816 Ry

     iteration #  5     ecut=    30.00 Ry     beta=0.70
     Davidson diagonalization with overlap
     ethr =  5.39E-03,  avg # of iterations =  1.0

     negative rho (up, down):  9.090E-04 0.000E+00

     total cpu time spent up to now is        0.6 secs

     total energy              =     -31.88823168 Ry
     Harris-Foulkes estimate   =     -31.96123968 Ry
     estimated scf accuracy    <       1.01551272 Ry

     iteration #  6     ecut=    30.00 Ry     beta=0.70
     Davidson diagonalization with overlap
     ethr =  5.39E-03,  avg # of iterations =  1.0

     negative rho (up, down):  6.663E-04 0.000E+00

     total cpu time spent up to now is        0.6 secs

     total energy              =     -31.83120360 Ry
     Harris-Foulkes estimate   =     -31.88866742 Ry
     estimated scf accuracy    <       0.89812931 Ry

     iteration #  7     ecut=    30.00 Ry     beta=0.70
     Davidson diagonalization with overlap
     ethr =  5.39E-03,  avg # of iterations =  1.0

     negative rho (up, down):  1.906E-04 0.000E+00

     total cpu time spent up to now is        0.7 secs

     total energy              =     -31.86221863 Ry
     Harris-Foulkes estimate   =     -31.85955731 Ry
     estimated scf accuracy    <       0.23792354 Ry

     iteration #  8     ecut=    30.00 Ry     beta=0.70
     Davidson diagonalization with overlap
     ethr =  2.97E-03,  avg # of iterations =  1.0

     negative rho (up, down):  2.289E-06 0.000E+00

     total cpu time spent up to now is        0.7 secs

     total energy              =     -31.83109982 Ry
     Harris-Foulkes estimate   =     -31.86282430 Ry
     estimated scf accuracy    <       0.49289722 Ry

     iteration #  9     ecut=    30.00 Ry     beta=0.70
     Davidson diagonalization with overlap
     ethr =  2.97E-03,  avg # of iterations =  1.0

     negative rho (up, down):  2.573E-08 0.000E+00

     total cpu time spent up to now is        0.8 secs

     total energy              =     -31.85533424 Ry
     Harris-Foulkes estimate   =     -31.86984854 Ry
     estimated scf accuracy    <       0.63826408 Ry

     iteration # 10     ecut=    30.00 Ry     beta=0.70
     Davidson diagonalization with overlap
     ethr =  2.97E-03,  avg # of iterations =  1.0

     total cpu time spent up to now is        0.8 secs

     total energy              =     -31.85749220 Ry
     Harris-Foulkes estimate   =     -31.85866456 Ry
     estimated scf accuracy    <       0.13749488 Ry

     iteration # 11     ecut=    30.00 Ry     beta=0.70
     Davidson diagonalization with overlap
     ethr =  1.72E-03,  avg # of iterations =  1.0

     negative rho (up, down):  7.092E-08 0.000E+00

     total cpu time spent up to now is        0.9 secs

     total energy              =     -31.85758045 Ry
     Harris-Foulkes estimate   =     -31.85765610 Ry
     estimated scf accuracy    <       0.07024710 Ry

     iteration # 12     ecut=    30.00 Ry     beta=0.70
     Davidson diagonalization with overlap
     ethr =  8.78E-04,  avg # of iterations =  1.0

     negative rho (up, down):  6.266E-08 0.000E+00

     total cpu time spent up to now is        0.9 secs

     total energy              =     -31.85715640 Ry
     Harris-Foulkes estimate   =     -31.85758221 Ry
     estimated scf accuracy    <       0.06507600 Ry

     iteration # 13     ecut=    30.00 Ry     beta=0.70
     Davidson diagonalization with overlap
     ethr =  8.13E-04,  avg # of iterations =  1.0

     total cpu time spent up to now is        1.0 secs

     total energy              =     -31.85600242 Ry
     Harris-Foulkes estimate   =     -31.85720488 Ry
     estimated scf accuracy    <       0.03837751 Ry

     iteration # 14     ecut=    30.00 Ry     beta=0.70
     Davidson diagonalization with overlap
     ethr =  4.80E-04,  avg # of iterations =  1.0

     total cpu time spent up to now is        1.0 secs

     total energy              =     -31.85668555 Ry
     Harris-Foulkes estimate   =     -31.85670496 Ry
     estimated scf accuracy    <       0.00145792 Ry

     iteration # 15     ecut=    30.00 Ry     beta=0.70
     Davidson diagonalization with overlap
     ethr =  1.82E-05,  avg # of iterations = 13.0

     total cpu time spent up to now is        1.1 secs

     total energy              =     -31.85669179 Ry
     Harris-Foulkes estimate   =     -31.85669055 Ry
     estimated scf accuracy    <       0.00034364 Ry

     iteration # 16     ecut=    30.00 Ry     beta=0.70
     Davidson diagonalization with overlap
     ethr =  4.30E-06,  avg # of iterations =  3.0

     total cpu time spent up to now is        1.2 secs

     total energy              =     -31.85668322 Ry
     Harris-Foulkes estimate   =     -31.85669186 Ry
     estimated scf accuracy    <       0.00042822 Ry

     iteration # 17     ecut=    30.00 Ry     beta=0.70
     Davidson diagonalization with overlap
     ethr =  4.30E-06,  avg # of iterations =  1.0

     total cpu time spent up to now is        1.2 secs

     total energy              =     -31.85668680 Ry
     Harris-Foulkes estimate   =     -31.85668679 Ry
     estimated scf accuracy    <       0.00001510 Ry

     iteration # 18     ecut=    30.00 Ry     beta=0.70
     Davidson diagonalization with overlap
     ethr =  1.89E-07,  avg # of iterations =  1.0

     total cpu time spent up to now is        1.2 secs

     total energy              =     -31.85668627 Ry
     Harris-Foulkes estimate   =     -31.85668680 Ry
     estimated scf accuracy    <       0.00001634 Ry

     iteration # 19     ecut=    30.00 Ry     beta=0.70
     Davidson diagonalization with overlap
     ethr =  1.89E-07,  avg # of iterations =  1.0

     total cpu time spent up to now is        1.3 secs

     total energy              =     -31.85668659 Ry
     Harris-Foulkes estimate   =     -31.85668658 Ry
     estimated scf accuracy    <       0.00000094 Ry

     iteration # 20     ecut=    30.00 Ry     beta=0.70
     Davidson diagonalization with overlap
     ethr =  1.18E-08,  avg # of iterations =  1.0

     total cpu time spent up to now is        1.3 secs

     total energy              =     -31.85668664 Ry
     Harris-Foulkes estimate   =     -31.85668662 Ry
     estimated scf accuracy    <       0.00000023 Ry

     iteration # 21     ecut=    30.00 Ry     beta=0.70
     Davidson diagonalization with overlap
     ethr =  2.89E-09,  avg # of iterations =  1.0

     total cpu time spent up to now is        1.4 secs

     total energy              =     -31.85668664 Ry
     Harris-Foulkes estimate   =     -31.85668665 Ry
     estimated scf accuracy    <       0.00000003 Ry

     iteration # 22     ecut=    30.00 Ry     beta=0.70
     Davidson diagonalization with overlap
     ethr =  3.40E-10,  avg # of iterations =  1.0

     total cpu time spent up to now is        1.4 secs

     End of self-consistent calculation

          k = 0.0000 0.0000 0.0000 ( 22119 PWs)   bands (ev):

   -26.0437 -11.0527  -7.1571  -7.1565  -7.0132  -0.4689   0.5295   0.8102

     the Fermi energy is    -6.9850 ev

!    total energy              =     -31.85668664 Ry
     Harris-Foulkes estimate   =     -31.85668664 Ry
     estimated scf accuracy    <          8.2E-11 Ry

     convergence has been achieved in  22 iterations

     Forces acting on atoms (Ry/au):

     atom    1 type  2   force =     0.32598205   -0.25417956   -0.36556015
     atom    2 type  1   force =    -0.00047468   -0.00062770   -0.00052622
     atom    3 type  1   force =    -0.32550737    0.25480726    0.36608636

     Total force =     0.780646     Total SCF correction =     0.000003

     Molecular Dynamics Calculation

     Starting temperature  =  1000.00 K

     temperature is controlled by Andersen thermostat
     Collision frequency = 1.0000/timestep
     mass H                =     1.01
     mass O                =    16.00
     Time step             =   100.00 a.u.,  4.8378 femto-seconds

     Entering Dynamics:    iteration =     1
                           time      =   0.0048 pico-seconds


     Andersen thermostat:    3 collisions

ATOMIC_POSITIONS (bohr)
O       10.433783724   3.827324871  11.580986092
H        1.387174959  13.560264343  11.704145106
H        7.922272610   6.397071071  14.921233787


     kinetic energy (Ekin) =     0.02145083 Ry
     temperature           =  1128.93782844 K 
     Ekin + Etot (const)   =   -31.83523582 Ry

     Linear momentum :    0.0000000000    0.0000000000   -0.0000000000

     Writing output data file pwscf.save
     Check: negative starting charge=   -0.351462
     NEW-OLD atomic charge density approx. for the potential
     Check: negative starting charge=   -0.344372

     negative rho (up, down):  3.939E-01 0.000E+00

     total cpu time spent up to now is        1.8 secs

     per-process dynamical memory:    20.4 Mb

     Self-consistent Calculation

     iteration #  1     ecut=    30.00 Ry     beta=0.70
     Davidson diagonalization with overlap
     c_bands:  1 eigenvalues not converged
     ethr =  1.00E-06,  avg # of iterations = 20.0

     negative rho (up, down):  9.469E-02 0.000E+00

     total cpu time spent up to now is        2.0 secs

     total energy              =     -28.16197698 Ry
     Harris-Foulkes estimate   =     -32.55381245 Ry
     estimated scf accuracy    <       3.20723480 Ry

     iteration #  2     ecut=    30.00 Ry     beta=0.70
     Davidson diagonalization with overlap
     ethr =  1.00E-02,  avg # of iterations =  4.0

     negative rho (up, down):  7.063E-02 0.000E+00

     total cpu time spent up to now is        2.0 secs

     total energy              =     -32.04387687 Ry
     Harris-Foulkes estimate   =     -36.04385124 Ry
     estimated scf accuracy    <      10.38154822 Ry

     iteration #  3     ecut=    30.00 Ry     beta=0.70
     Davidson diagonalization with overlap
     ethr =  1.00E-02,  avg # of iterations =  2.0

     negative rho (up, down):  5.979E-02 0.000E+00

     total cpu time spent up to now is        2.1 secs

     total energy              =     -31.68651950 Ry
     Harris-Foulkes estimate   =     -32.34241596 Ry
     estimated scf accuracy    <       3.84408016 Ry

     iteration #  4     ecut=    30.00 Ry     beta=0.70
     Davidson diagonalization with overlap
     ethr =  1.00E-02,  avg # of iterations =  1.0

     negative rho (up, down):  5.123E-02 0.000E+00

     total cpu time spent up to now is        2.1 secs

     total energy              =     -31.63516763 Ry
     Harris-Foulkes estimate   =     -31.72284441 Ry
     estimated scf accuracy    <       1.89198526 Ry

     iteration #  5     ecut=    30.00 Ry     beta=0.70
     Davidson diagonalization with overlap
     ethr =  1.00E-02,  avg # of iterations =  3.0

     negative rho (up, down):  1.418E-02 0.000E+00

     total cpu time spent up to now is        2.2 secs

     total energy              =     -30.70313348 Ry
     Harris-Foulkes estimate   =     -31.64139953 Ry
     estimated scf accuracy    <       2.21485342 Ry

     iteration #  6     ecut=    30.00 Ry     beta=0.70
     Davidson diagonalization with overlap
     ethr =  1.00E-02,  avg # of iterations =  2.0

     negative rho (up, down):  4.478E-03 0.000E+00

     total cpu time spent up to now is        2.2 secs

     total energy              =     -31.97691641 Ry
     Harris-Foulkes estimate   =     -33.01233862 Ry
     estimated scf accuracy    <       9.26022067 Ry

     iteration #  7     ecut=    30.00 Ry     beta=0.70
     Davidson diagonalization with overlap
     ethr =  1.00E-02,  avg # of iterations =  1.0

     negative rho (up, down):  1.945E-02 0.000E+00

     total cpu time spent up to now is        2.3 secs

     total energy              =     -32.19368162 Ry
     Harris-Foulkes estimate   =     -32.22682674 Ry
     estimated scf accuracy    <       4.22279226 Ry

     iteration #  8     ecut=    30.00 Ry     beta=0.70
     Davidson diagonalization with overlap
     ethr =  1.00E-02,  avg # of iterations =  1.0

     negative rho (up, down):  7.376E-02 0.000E+00

     total cpu time spent up to now is        2.3 secs

     total energy              =     -31.94679341 Ry
     Harris-Foulkes estimate   =     -32.19462316 Ry
     estimated scf accuracy    <       4.14407512 Ry

     iteration #  9     ecut=    30.00 Ry     beta=0.70
     Davidson diagonalization with overlap
     ethr =  1.00E-02,  avg # of iterations =  1.0

     negative rho (up, down):  8.425E-02 0.000E+00

     total cpu time spent up to now is        2.4 secs

     total energy              =     -31.92434841 Ry
     Harris-Foulkes estimate   =     -31.95193679 Ry
     estimated scf accuracy    <       3.44473128 Ry

     iteration # 10     ecut=    30.00 Ry     beta=0.70
     Davidson diagonalization with overlap
     ethr =  1.00E-02,  avg # of iterations =  1.0

     negative rho (up, down):  2.344E-01 0.000E+00

     total cpu time spent up to now is        2.4 secs

     total energy              =     -31.78054921 Ry
     Harris-Foulkes estimate   =     -31.92459436 Ry
     estimated scf accuracy    <       3.33507198 Ry

     iteration # 11     ecut=    30.00 Ry     beta=0.70
     Davidson diagonalization with overlap
     ethr =  1.00E-02,  avg # of iterations =  1.0

     negative rho (up, down):  4.437E-01 0.000E+00

     total cpu time spent up to now is        2.5 secs

     total energy              =     -31.01035250 Ry
     Harris-Foulkes estimate   =     -31.78584584 Ry
     estimated scf accuracy    <       2.88356850 Ry

     iteration # 12     ecut=    30.00 Ry     beta=0.70
     Davidson diagonalization with overlap
     ethr =  1.00E-02,  avg # of iterations =  2.0

     negative rho (up, down):  4.606E-01 0.000E+00

     total cpu time spent up to now is        2.5 secs

     total energy              =     -32.13010052 Ry
     Harris-Foulkes estimate   =     -32.08536038 Ry
     estimated scf accuracy    <       2.87073654 Ry

     iteration # 13     ecut=    30.00 Ry     beta=0.70
     Davidson diagonalization with overlap
     ethr =  1.00E-02,  avg # of iterations =  1.0

     negative rho (up, down):  4.251E-01 0.000E+00

     total cpu time spent up to now is        2.6 secs

     total energy              =     -32.00691448 Ry
     Harris-Foulkes estimate   =     -32.13089121 Ry
     estimated scf accuracy    <       2.94781086 Ry

     iteration # 14     ecut=    30.00 Ry     beta=0.70
     Davidson diagonalization with overlap
     ethr =  1.00E-02,  avg # of iterations =  1.0

     negative rho (up, down):  3.530E-01 0.000E+00

     total cpu time spent up to now is        2.6 secs

     total energy              =     -31.79026007 Ry
     Harris-Foulkes estimate   =     -32.00779400 Ry
     estimated scf accuracy    <       2.67486187 Ry

     iteration # 15     ecut=    30.00 Ry     beta=0.70
     Davidson diagonalization with overlap
     ethr =  1.00E-02,  avg # of iterations =  1.0

     negative rho (up, down):  1.175E-02 0.000E+00

     total cpu time spent up to now is        2.7 secs

     total energy              =     -31.19112460 Ry
     Harris-Foulkes estimate   =     -31.79333048 Ry
     estimated scf accuracy    <       2.12796897 Ry

     iteration # 16     ecut=    30.00 Ry     beta=0.70
     Davidson diagonalization with overlap
     ethr =  1.00E-02,  avg # of iterations =  2.0

     negative rho (up, down):  2.148E-02 0.000E+00

     total cpu time spent up to now is        2.7 secs

     total energy              =     -31.94930406 Ry
     Harris-Foulkes estimate   =     -31.97736260 Ry
     estimated scf accuracy    <       3.03328353 Ry

     iteration # 17     ecut=    30.00 Ry     beta=0.70
     Davidson diagonalization with overlap
     ethr =  1.00E-02,  avg # of iterations =  1.0

     negative rho (up, down):  3.868E-02 0.000E+00

     total cpu time spent up to now is        2.8 secs

     total energy              =     -31.70195002 Ry
     Harris-Foulkes estimate   =     -31.95109702 Ry
     estimated scf accuracy    <       2.87782587 Ry

     iteration # 18     ecut=    30.00 Ry     beta=0.70
     Davidson diagonalization with overlap
     ethr =  1.00E-02,  avg # of iterations =  1.0

     negative rho (up, down):  2.682E-02 0.000E+00

     total cpu time spent up to now is        2.8 secs

     total energy              =     -31.88121237 Ry
     Harris-Foulkes estimate   =     -31.71448367 Ry
     estimated scf accuracy    <       1.81522047 Ry

     iteration # 19     ecut=    30.00 Ry     beta=0.70
     Davidson diagonalization with overlap
     ethr =  1.00E-02,  avg # of iterations =  1.0

     negative rho (up, down):  1.213E-02 0.000E+00

     total cpu time spent up to now is        2.9 secs

     total energy              =     -31.95444679 Ry
     Harris-Foulkes estimate   =     -31.89814289 Ry
     estimated scf accuracy    <       3.06807927 Ry

     iteration # 20     ecut=    30.00 Ry     beta=0.70
     Davidson diagonalization with overlap
     ethr =  1.00E-02,  avg # of iterations =  1.0

     negative rho (up, down):  1.302E-02 0.000E+00

     total cpu time spent up to now is        2.9 secs

     total energy              =     -32.00387841 Ry
     Harris-Foulkes estimate   =     -31.95576768 Ry
     estimated scf accuracy    <       3.00240691 Ry

     iteration # 21     ecut=    30.00 Ry     beta=0.70
     Davidson diagonalization with overlap
     ethr =  1.00E-02,  avg # of iterations =  1.0

     negative rho (up, down):  1.231E-02 0.000E+00

     total cpu time spent up to now is        3.0 secs

     total energy              =     -31.99340654 Ry
     Harris-Foulkes estimate   =     -32.00418620 Ry
     estimated scf accuracy    <       3.08205032 Ry

     iteration # 22     ecut=    30.00 Ry     beta=0.70
     Davidson diagonalization with overlap
     ethr =  1.00E-02,  avg # of iterations =  1.0

     negative rho (up, down):  1.624E-02 0.000E+00

     total cpu time spent up to now is        3.0 secs

     total energy              =     -31.83496297 Ry
     Harris-Foulkes estimate   =     -31.99348107 Ry
     estimated scf accuracy    <       3.12218194 Ry

     iteration # 23     ecut=    30.00 Ry     beta=0.70
     Davidson diagonalization with overlap
     ethr =  1.00E-02,  avg # of iterations =  1.0

     negative rho (up, down):  3.522E-02 0.000E+00

     total cpu time spent up to now is        3.1 secs

     total energy              =     -31.11723684 Ry
     Harris-Foulkes estimate   =     -31.83696186 Ry
     estimated scf accuracy    <       2.65077212 Ry

     iteration # 24     ecut=    30.00 Ry     beta=0.70
     Davidson diagonalization with overlap
     ethr =  1.00E-02,  avg # of iterations =  2.0

     negative rho (up, down):  7.807E-03 0.000E+00

     total cpu time spent up to now is        3.1 secs

     total energy              =     -31.75980173 Ry
     Harris-Foulkes estimate   =     -31.96264587 Ry
     estimated scf accuracy    <       2.09600803 Ry

     iteration # 25     ecut=    30.00 Ry     beta=0.70
     Davidson diagonalization with overlap
     ethr =  1.00E-02,  avg # of iterations =  1.0

     negative rho (up, down):  7.697E-03 0.000E+00

     total cpu time spent up to now is        3.2 secs

     total energy              =     -31.74114163 Ry
     Harris-Foulkes estimate   =     -31.76597052 Ry
     estimated scf accuracy    <       1.39615416 Ry

     iteration # 26     ecut=    30.00 Ry     beta=0.70
     Davidson diagonalization with overlap
     ethr =  1.00E-02,  avg # of iterations =  1.0

     negative rho (up, down):  7.564E-03 0.000E+00

     total cpu time spent up to now is        3.2 secs

     total energy              =     -31.64061019 Ry
     Harris-Foulkes estimate   =     -31.74129807 Ry
     estimated scf accuracy    <       1.33008767 Ry

     iteration # 27     ecut=    30.00 Ry     beta=0.70
     Davidson diagonalization with overlap
     ethr =  1.00E-02,  avg # of iterations =  1.0

     negative rho (up, down):  6.281E-03 0.000E+00

     total cpu time spent up to now is        3.3 secs

     total energy              =     -31.61896227 Ry
     Harris-Foulkes estimate   =     -31.64091331 Ry
     estimated scf accuracy    <       1.14883164 Ry

     iteration # 28     ecut=    30.00 Ry     beta=0.70
     Davidson diagonalization with overlap
     ethr =  1.00E-02,  avg # of iterations =  1.0

     negative rho (up, down):  4.410E-04 0.000E+00

     total cpu time spent up to now is        3.3 secs

     total energy              =     -31.40001255 Ry
     Harris-Foulkes estimate   =     -31.61949654 Ry
     estimated scf accuracy    <       1.24863733 Ry

     iteration # 29     ecut=    30.00 Ry     beta=0.70
     Davidson diagonalization with overlap
     ethr =  1.00E-02,  avg # of iterations =  1.0

     negative rho (up, down):  7.493E-05 0.000E+00

     total cpu time spent up to now is        3.4 secs

     total energy              =     -31.64158516 Ry
     Harris-Foulkes estimate   =     -31.73321817 Ry
     estimated scf accuracy    <       1.40801927 Ry

     iteration # 30     ecut=    30.00 Ry     beta=0.70
     Davidson diagonalization with overlap
     ethr =  1.00E-02,  avg # of iterations =  1.0

     negative rho (up, down):  1.878E-07 0.000E+00

     total cpu time spent up to now is        3.4 secs

     total energy              =     -31.49720886 Ry
     Harris-Foulkes estimate   =     -31.64248272 Ry
     estimated scf accuracy    <       1.30148031 Ry

     iteration # 31     ecut=    30.00 Ry     beta=0.70
     Davidson diagonalization with overlap
     ethr =  1.00E-02,  avg # of iterations =  1.0

     negative rho (up, down):  3.926E-05 0.000E+00

     total cpu time spent up to now is        3.5 secs

     total energy              =     -31.59425131 Ry
     Harris-Foulkes estimate   =     -31.58760711 Ry
     estimated scf accuracy    <       0.87469306 Ry

     iteration # 32     ecut=    30.00 Ry     beta=0.70
     Davidson diagonalization with overlap
     ethr =  1.00E-02,  avg # of iterations =  1.0

     total cpu time spent up to now is        3.6 secs

     total energy              =     -31.53621377 Ry
     Harris-Foulkes estimate   =     -31.59431264 Ry
     estimated scf accuracy    <       0.90703901 Ry

     iteration # 33     ecut=    30.00 Ry     beta=0.70
     Davidson diagonalization with overlap
     ethr =  1.00E-02,  avg # of iterations =  1.0

     negative rho (up, down):  5.608E-06 0.000E+00

     total cpu time spent up to now is        3.6 secs

     total energy              =     -31.55209722 Ry
     Harris-Foulkes estimate   =     -31.55938030 Ry
     estimated scf accuracy    <       0.10704935 Ry

     iteration # 34     ecut=    30.00 Ry     beta=0.70
     Davidson diagonalization with overlap
     ethr =  1.34E-03,  avg # of iterations =  1.0

     total cpu time spent up to now is        3.6 secs

     total energy              =     -31.53237371 Ry
     Harris-Foulkes estimate   =     -31.56227592 Ry
     estimated scf accuracy    <       0.27438760 Ry

     iteration # 35     ecut=    30.00 Ry     beta=0.70
     Davidson diagonalization with overlap
     ethr =  1.34E-03,  avg # of iterations =  1.0

     total cpu time spent up to now is        3.7 secs

     total energy              =     -31.58324181 Ry
     Harris-Foulkes estimate   =     -31.59322850 Ry
     estimated scf accuracy    <       1.62067838 Ry

     iteration # 36     ecut=    30.00 Ry     beta=0.70
     Davidson diagonalization with overlap
     ethr =  1.34E-03,  avg # of iterations =  1.0

     total cpu time spent up to now is        3.7 secs

     total energy              =     -31.59820409 Ry
     Harris-Foulkes estimate   =     -31.58334073 Ry
     estimated scf accuracy    <       1.50495444 Ry

     iteration # 37     ecut=    30.00 Ry     beta=0.70
     Davidson diagonalization with overlap
     ethr =  1.34E-03,  avg # of iterations =  1.0

     total cpu time spent up to now is        3.8 secs

     total energy              =     -31.64822953 Ry
     Harris-Foulkes estimate   =     -31.59857866 Ry
     estimated scf accuracy    <       1.58685309 Ry

     iteration # 38     ecut=    30.00 Ry     beta=0.70
     Davidson diagonalization with overlap
     ethr =  1.34E-03,  avg # of iterations =  1.0

     total cpu time spent up to now is        3.8 secs

     total energy              =     -31.70760825 Ry
     Harris-Foulkes estimate   =     -31.64430874 Ry
     estimated scf accuracy    <       1.32267782 Ry

     iteration # 39     ecut=    30.00 Ry     beta=0.70
     Davidson diagonalization with overlap
     ethr =  1.34E-03,  avg # of iterations =  1.0

     negative rho (up, down):  2.190E-08 0.000E+00

     total cpu time spent up to now is        3.9 secs

     total energy              =     -31.48507102 Ry
     Harris-Foulkes estimate   =     -31.70796294 Ry
     estimated scf accuracy    <       1.45547642 Ry

     iteration # 40     ecut=    30.00 Ry     beta=0.70
     Davidson diagonalization with overlap
     ethr =  1.34E-03,  avg # of iterations =  1.0

     total cpu time spent up to now is        3.9 secs

     total energy              =     -31.54774712 Ry
     Harris-Foulkes estimate   =     -31.59679983 Ry
     estimated scf accuracy    <       0.96313616 Ry

     iteration # 41     ecut=    30.00 Ry     beta=0.70
     Davidson diagonalization with overlap
     ethr =  1.34E-03,  avg # of iterations =  1.0

     total cpu time spent up to now is        4.0 secs

     total energy              =     -31.56219068 Ry
     Harris-Foulkes estimate   =     -31.55850954 Ry
     estimated scf accuracy    <       0.03556179 Ry

     iteration # 42     ecut=    30.00 Ry     beta=0.70
     Davidson diagonalization with overlap
     ethr =  4.45E-04,  avg # of iterations =  1.0

     total cpu time spent up to now is        4.0 secs

     total energy              =     -31.56946740 Ry
     Harris-Foulkes estimate   =     -31.56793217 Ry
     estimated scf accuracy    <       0.55003071 Ry

     iteration # 43     ecut=    30.00 Ry     beta=0.70
     Davidson diagonalization with overlap
     ethr =  4.45E-04,  avg # of iterations =  1.0

     total cpu time spent up to now is        4.1 secs

     total energy              =     -31.56372545 Ry
     Harris-Foulkes estimate   =     -31.56950826 Ry
     estimated scf accuracy    <       0.60972684 Ry

     iteration # 44     ecut=    30.00 Ry     beta=0.70
     Davidson diagonalization with overlap
     ethr =  4.45E-04,  avg # of iterations =  1.0

     total cpu time spent up to now is        4.1 secs

     total energy              =     -31.56209306 Ry
     Harris-Foulkes estimate   =     -31.56426281 Ry
     estimated scf accuracy    <       0.38793350 Ry

     iteration # 45     ecut=    30.00 Ry     beta=0.70
     Davidson diagonalization with overlap
     ethr =  4.45E-04,  avg # of iterations =  1.0

     total cpu time spent up to now is        4.2 secs

     total energy              =     -31.56030287 Ry
     Harris-Foulkes estimate   =     -31.56225096 Ry
     estimated scf accuracy    <       0.27933414 Ry

     iteration # 46     ecut=    30.00 Ry     beta=0.70
     Davidson diagonalization with overlap
     ethr =  4.45E-04,  avg # of iterations =  1.0

     total cpu time spent up to now is        4.2 secs

     total energy              =     -31.54205014 Ry
     Harris-Foulkes estimate   =     -31.56050326 Ry
     estimated scf accuracy    <       0.17266449 Ry

     iteration # 47     ecut=    30.00 Ry     beta=0.70
     Davidson diagonalization with overlap
     ethr =  4.45E-04,  avg # of iterations =  1.0

     total cpu time spent up to now is        4.3 secs

     total energy              =     -31.52629900 Ry
     Harris-Foulkes estimate   =     -31.58201504 Ry
     estimated scf accuracy    <       1.47395511 Ry

     iteration # 48     ecut=    30.00 Ry     beta=0.70
     Davidson diagonalization with overlap
     ethr =  4.45E-04,  avg # of iterations =  1.0

     total cpu time spent up to now is        4.3 secs

     total energy              =     -31.55628541 Ry
     Harris-Foulkes estimate   =     -31.56048500 Ry
     estimated scf accuracy    <       0.17049519 Ry

     iteration # 49     ecut=    30.00 Ry     beta=0.70
     Davidson diagonalization with overlap
     ethr =  4.45E-04,  avg # of iterations =  1.0

     total cpu time spent up to now is        4.4 secs

     total energy              =     -31.55781580 Ry
     Harris-Foulkes estimate   =     -31.55809392 Ry
     estimated scf accuracy    <       0.00194428 Ry

     iteration # 50     ecut=    30.00 Ry     beta=0.70
     Davidson diagonalization with overlap
     ethr =  2.43E-05,  avg # of iterations =  1.0

     total cpu time spent up to now is        4.4 secs

     total energy              =     -31.55806951 Ry
     Harris-Foulkes estimate   =     -31.55884580 Ry
     estimated scf accuracy    <       0.06114707 Ry

     iteration # 51     ecut=    30.00 Ry     beta=0.70
     Davidson diagonalization with overlap
     ethr =  2.43E-05,  avg # of iterations =  1.0

     total cpu time spent up to now is        4.5 secs

     total energy              =     -31.55798073 Ry
     Harris-Foulkes estimate   =     -31.55826537 Ry
     estimated scf accuracy    <       0.01434785 Ry

     iteration # 52     ecut=    30.00 Ry     beta=0.70
     Davidson diagonalization with overlap
     ethr =  2.43E-05,  avg # of iterations =  1.0

     total cpu time spent up to now is        4.5 secs

     total energy              =     -31.55804782 Ry
     Harris-Foulkes estimate   =     -31.55808658 Ry
     estimated scf accuracy    <       0.00077783 Ry

     iteration # 53     ecut=    30.00 Ry     beta=0.70
     Davidson diagonalization with overlap
     ethr =  9.72E-06,  avg # of iterations =  1.0

     total cpu time spent up to now is        4.6 secs

     total energy              =     -31.55805887 Ry
     Harris-Foulkes estimate   =     -31.55808140 Ry
     estimated scf accuracy    <       0.00065783 Ry

     iteration # 54     ecut=    30.00 Ry     beta=0.70
     Davidson diagonalization with overlap
     ethr =  8.22E-06,  avg # of iterations =  1.0

     total cpu time spent up to now is        4.6 secs

     total energy              =     -31.55807187 Ry
     Harris-Foulkes estimate   =     -31.55807687 Ry
     estimated scf accuracy    <       0.00021539 Ry

     iteration # 55     ecut=    30.00 Ry     beta=0.70
     Davidson diagonalization with overlap
     ethr =  2.69E-06,  avg # of iterations = 16.0

     total cpu time spent up to now is        4.7 secs

     total energy              =     -31.55807664 Ry
     Harris-Foulkes estimate   =     -31.55807301 Ry
     estimated scf accuracy    <       0.00004484 Ry

     iteration # 56     ecut=    30.00 Ry     beta=0.70
     Davidson diagonalization with overlap
     ethr =  5.60E-07,  avg # of iterations =  1.0

     total cpu time spent up to now is        4.8 secs

     total energy              =     -31.55806161 Ry
     Harris-Foulkes estimate   =     -31.55807766 Ry
     estimated scf accuracy    <       0.00015921 Ry

     iteration # 57     ecut=    30.00 Ry     beta=0.70
     Davidson diagonalization with overlap
     ethr =  5.60E-07,  avg # of iterations =  1.0

     total cpu time spent up to now is        4.8 secs

     total energy              =     -31.55806729 Ry
     Harris-Foulkes estimate   =     -31.55807504 Ry
     estimated scf accuracy    <       0.00031745 Ry

     iteration # 58     ecut=    30.00 Ry     beta=0.70
     Davidson diagonalization with overlap
     ethr =  5.60E-07,  avg # of iterations =  1.0

     total cpu time spent up to now is        4.8 secs

     total energy              =     -31.55806975 Ry
     Harris-Foulkes estimate   =     -31.55806997 Ry
     estimated scf accuracy    <       0.00000952 Ry

     iteration # 59     ecut=    30.00 Ry     beta=0.70
     Davidson diagonalization with overlap
     ethr =  1.19E-07,  avg # of iterations =  1.0

     total cpu time spent up to now is        4.9 secs

     total energy              =     -31.55807009 Ry
     Harris-Foulkes estimate   =     -31.55806988 Ry
     estimated scf accuracy    <       0.00000004 Ry

     iteration # 60     ecut=    30.00 Ry     beta=0.70
     Davidson diagonalization with overlap
     ethr =  5.37E-10,  avg # of iterations =  2.0

     total cpu time spent up to now is        5.0 secs

     total energy              =     -31.55807010 Ry
     Harris-Foulkes estimate   =     -31.55807010 Ry
     estimated scf accuracy    <       0.00000008 Ry

     iteration # 61     ecut=    30.00 Ry     beta=0.70
     Davidson diagonalization with overlap
     ethr =  5.37E-10,  avg # of iterations =  1.0

     total cpu time spent up to now is        5.0 secs

     End of self-consistent calculation

          k = 0.0000 0.0000 0.0000 ( 22119 PWs)   bands (ev):

   -23.6263  -7.6929  -6.9590  -6.9585  -6.8298  -6.4324  -0.1591   0.6909

     the Fermi energy is    -6.7966 ev

!    total energy              =     -31.55807005 Ry
     Harris-Foulkes estimate   =     -31.55807010 Ry
     estimated scf accuracy    <          2.1E-09 Ry

     convergence has been achieved in  61 iterations

     Forces acting on atoms (Ry/au):

     atom    1 type  2   force =    -0.03216295    0.03234011    0.04213107
     atom    2 type  1   force =    -0.00002549    0.00028023    0.00019146
     atom    3 type  1   force =     0.03218844   -0.03262034   -0.04232253

     Total force =     0.088016     Total SCF correction =     0.000073

     Entering Dynamics:    iteration =     2
                           time      =   0.0097 pico-seconds


     Andersen thermostat:    3 collisions

ATOMIC_POSITIONS (bohr)
O       10.415833755   3.852650177  11.618463968
H        1.225110435  13.443737192  11.702317586
H        8.368693068   6.112405250  14.329352388


     kinetic energy (Ekin) =     0.01348743 Ry
     temperature           =   709.83130976 K 
     Ekin + Etot (const)   =   -31.54458262 Ry
     Message from routine dynamics:
     Total linear momentum <> 0

     Linear momentum :    0.1072894158   -0.1227132876    0.2542037473

     Writing output data file pwscf.save

     first order wave-functions extrapolation
     Check: negative starting charge=   -0.344372
     first order charge density extrapolation
     Check: negative starting charge=   -0.344028

     negative rho (up, down):  5.053E-01 0.000E+00

     total cpu time spent up to now is        5.4 secs

     per-process dynamical memory:    20.4 Mb

     Self-consistent Calculation

     iteration #  1     ecut=    30.00 Ry     beta=0.70
     Davidson diagonalization with overlap
     ethr =  1.00E-06,  avg # of iterations = 10.0

     negative rho (up, down):  1.063E-01 0.000E+00

     total cpu time spent up to now is        5.6 secs

     total energy              =      38.27157463 Ry
     Harris-Foulkes estimate   =    -308.34296646 Ry
     estimated scf accuracy    <      13.82171953 Ry

     iteration #  2     ecut=    30.00 Ry     beta=0.70
     Davidson diagonalization with overlap
     ethr =  1.00E-02,  avg # of iterations =  5.0

     negative rho (up, down):  6.567E-02 0.000E+00

     total cpu time spent up to now is        5.6 secs

     total energy              =     -20.07611904 Ry
     Harris-Foulkes estimate   =     -43.00248450 Ry
     estimated scf accuracy    <      13.30480021 Ry

     iteration #  3     ecut=    30.00 Ry     beta=0.70
     Davidson diagonalization with overlap
     ethr =  1.00E-02,  avg # of iterations =  3.0

     negative rho (up, down):  5.443E-02 0.000E+00

     total cpu time spent up to now is        5.7 secs

     total energy              =     -33.24571549 Ry
     Harris-Foulkes estimate   =     -37.12384556 Ry
     estimated scf accuracy    <      11.60941311 Ry

     iteration #  4     ecut=    30.00 Ry     beta=0.70
     Davidson diagonalization with overlap
     ethr =  1.00E-02,  avg # of iterations =  2.0

     negative rho (up, down):  4.841E-02 0.000E+00

     total cpu time spent up to now is        5.7 secs

     total energy              =     -32.75496989 Ry
     Harris-Foulkes estimate   =     -33.84065132 Ry
     estimated scf accuracy    <       4.84572974 Ry

     iteration #  5     ecut=    30.00 Ry     beta=0.70
     Davidson diagonalization with overlap
     ethr =  1.00E-02,  avg # of iterations =  1.0

     negative rho (up, down):  3.438E-02 0.000E+00

     total cpu time spent up to now is        5.8 secs

     total energy              =     -31.57616482 Ry
     Harris-Foulkes estimate   =     -32.88866939 Ry
     estimated scf accuracy    <       4.53941127 Ry

     iteration #  6     ecut=    30.00 Ry     beta=0.70
     Davidson diagonalization with overlap
     ethr =  1.00E-02,  avg # of iterations =  1.0

     negative rho (up, down):  4.559E-02 0.000E+00

     total cpu time spent up to now is        5.8 secs

     total energy              =     -31.54470909 Ry
     Harris-Foulkes estimate   =     -32.12988763 Ry
     estimated scf accuracy    <       2.40054418 Ry

     iteration #  7     ecut=    30.00 Ry     beta=0.70
     Davidson diagonalization with overlap
     ethr =  1.00E-02,  avg # of iterations =  7.0

     negative rho (up, down):  4.096E-02 0.000E+00

     total cpu time spent up to now is        5.9 secs

     total energy              =       9.40203039 Ry
     Harris-Foulkes estimate   =     -52.48426997 Ry
     estimated scf accuracy    <      26.26855167 Ry

     iteration #  8     ecut=    30.00 Ry     beta=0.70
     Davidson diagonalization with overlap
     ethr =  1.00E-02,  avg # of iterations =  5.0

     negative rho (up, down):  2.221E-02 0.000E+00

     total cpu time spent up to now is        5.9 secs

     total energy              =     -31.20631251 Ry
     Harris-Foulkes estimate   =     -32.47179509 Ry
     estimated scf accuracy    <       4.49188699 Ry

     iteration #  9     ecut=    30.00 Ry     beta=0.70
     Davidson diagonalization with overlap
     ethr =  1.00E-02,  avg # of iterations =  2.0

     negative rho (up, down):  2.203E-02 0.000E+00

     total cpu time spent up to now is        6.0 secs

     total energy              =     -31.73248398 Ry
     Harris-Foulkes estimate   =     -31.75384471 Ry
     estimated scf accuracy    <       1.92262994 Ry

     iteration # 10     ecut=    30.00 Ry     beta=0.70
     Davidson diagonalization with overlap
     ethr =  1.00E-02,  avg # of iterations =  1.0

     negative rho (up, down):  1.736E-01 0.000E+00

     total cpu time spent up to now is        6.1 secs

     total energy              =     -33.10957083 Ry
     Harris-Foulkes estimate   =     -31.73432821 Ry
     estimated scf accuracy    <       1.83335026 Ry

     iteration # 11     ecut=    30.00 Ry     beta=0.70
     Davidson diagonalization with overlap
     ethr =  1.00E-02,  avg # of iterations =  5.0

     negative rho (up, down):  1.666E-01 0.000E+00

     total cpu time spent up to now is        6.1 secs

     total energy              =      -4.51476808 Ry
     Harris-Foulkes estimate   =    -108.22894851 Ry
     estimated scf accuracy    <      39.90993487 Ry

     iteration # 12     ecut=    30.00 Ry     beta=0.70
     Davidson diagonalization with overlap
     ethr =  1.00E-02,  avg # of iterations =  5.0

     negative rho (up, down):  1.827E-01 0.000E+00

     total cpu time spent up to now is        6.2 secs

     total energy              =     -27.94963463 Ry
     Harris-Foulkes estimate   =     -42.95417147 Ry
     estimated scf accuracy    <      23.70964167 Ry

     iteration # 13     ecut=    30.00 Ry     beta=0.70
     Davidson diagonalization with overlap
     ethr =  1.00E-02,  avg # of iterations =  5.0

     negative rho (up, down):  5.600E-03 0.000E+00

     total cpu time spent up to now is        6.3 secs

     total energy              =       0.09573563 Ry
     Harris-Foulkes estimate   =     -71.59748689 Ry
     estimated scf accuracy    <      24.10800198 Ry

     iteration # 14     ecut=    30.00 Ry     beta=0.70
     Davidson diagonalization with overlap
     ethr =  1.00E-02,  avg # of iterations =  4.0

     negative rho (up, down):  2.665E-03 0.000E+00

     total cpu time spent up to now is        6.3 secs

     total energy              =     -31.79124136 Ry
     Harris-Foulkes estimate   =     -32.08334370 Ry
     estimated scf accuracy    <       2.69941773 Ry

     iteration # 15     ecut=    30.00 Ry     beta=0.70
     Davidson diagonalization with overlap
     ethr =  1.00E-02,  avg # of iterations =  1.0

     negative rho (up, down):  1.808E-02 0.000E+00

     total cpu time spent up to now is        6.4 secs

     total energy              =     -30.81931127 Ry
     Harris-Foulkes estimate   =     -31.82121330 Ry
     estimated scf accuracy    <       1.48293254 Ry

     iteration # 16     ecut=    30.00 Ry     beta=0.70
     Davidson diagonalization with overlap
     ethr =  1.00E-02,  avg # of iterations =  2.0

     negative rho (up, down):  5.368E-02 0.000E+00

     total cpu time spent up to now is        6.4 secs

     total energy              =     -32.61669240 Ry
     Harris-Foulkes estimate   =     -31.67646665 Ry
     estimated scf accuracy    <       0.85111675 Ry

     iteration # 17     ecut=    30.00 Ry     beta=0.70
     Davidson diagonalization with overlap
     ethr =  1.00E-02,  avg # of iterations =  5.0

     negative rho (up, down):  5.062E-02 0.000E+00

     total cpu time spent up to now is        6.5 secs

     total energy              =      19.04217135 Ry
     Harris-Foulkes estimate   =    -135.52833184 Ry
     estimated scf accuracy    <      38.22976884 Ry

     iteration # 18     ecut=    30.00 Ry     beta=0.70
     Davidson diagonalization with overlap
     ethr =  1.00E-02,  avg # of iterations =  5.0

     negative rho (up, down):  1.179E-02 0.000E+00

     total cpu time spent up to now is        6.6 secs

     total energy              =     -33.89719934 Ry
     Harris-Foulkes estimate   =     -32.30220709 Ry
     estimated scf accuracy    <       1.58276024 Ry

     iteration # 19     ecut=    30.00 Ry     beta=0.70
     Davidson diagonalization with overlap
     ethr =  1.00E-02,  avg # of iterations =  4.0

     negative rho (up, down):  1.436E-01 0.000E+00

     total cpu time spent up to now is        6.6 secs

     total energy              =     -38.61282503 Ry
     Harris-Foulkes estimate   =     -62.18891740 Ry
     estimated scf accuracy    <      17.56661917 Ry

     iteration # 20     ecut=    30.00 Ry     beta=0.70
     Davidson diagonalization with overlap
     ethr =  1.00E-02,  avg # of iterations =  7.0

     negative rho (up, down):  1.080E-01 0.000E+00

     total cpu time spent up to now is        6.7 secs

     total energy              =      84.83485887 Ry
     Harris-Foulkes estimate   =    -852.64452462 Ry
     estimated scf accuracy    <      62.09018090 Ry

     iteration # 21     ecut=    30.00 Ry     beta=0.70
     Davidson diagonalization with overlap
     ethr =  1.00E-02,  avg # of iterations =  5.0

     negative rho (up, down):  1.021E-01 0.000E+00

     total cpu time spent up to now is        6.8 secs

     total energy              =      25.37210975 Ry
     Harris-Foulkes estimate   =    -358.86669575 Ry
     estimated scf accuracy    <      39.21991317 Ry

     iteration # 22     ecut=    30.00 Ry     beta=0.70
     Davidson diagonalization with overlap
     ethr =  1.00E-02,  avg # of iterations =  9.0

     negative rho (up, down):  1.180E-01 0.000E+00

     total cpu time spent up to now is        6.9 secs

     total energy              =      14.81173693 Ry
     Harris-Foulkes estimate   =    -109.18586886 Ry
     estimated scf accuracy    <      34.67099653 Ry

     iteration # 23     ecut=    30.00 Ry     beta=0.70
     Davidson diagonalization with overlap
     ethr =  1.00E-02,  avg # of iterations =  5.0

     negative rho (up, down):  1.711E-01 0.000E+00

     total cpu time spent up to now is        6.9 secs

     total energy              =      34.62982415 Ry
     Harris-Foulkes estimate   =    -337.53716890 Ry
     estimated scf accuracy    <      40.26044962 Ry

     iteration # 24     ecut=    30.00 Ry     beta=0.70
     Davidson diagonalization with overlap
     ethr =  1.00E-02,  avg # of iterations =  5.0

     negative rho (up, down):  2.035E-01 0.000E+00

     total cpu time spent up to now is        7.0 secs

     total energy              =    -745.54761282 Ry
     Harris-Foulkes estimate   =    -296.63736964 Ry
     estimated scf accuracy    <      67.67717580 Ry

     iteration # 25     ecut=    30.00 Ry     beta=0.70
     Davidson diagonalization with overlap
     ethr =  1.00E-02,  avg # of iterations =  8.0

     negative rho (up, down):  3.180E-01 0.000E+00

     total cpu time spent up to now is        7.1 secs

     total energy              =     -59.83837203 Ry
     Harris-Foulkes estimate   =   -1194.41485090 Ry
     estimated scf accuracy    <      67.57563055 Ry

     iteration # 26     ecut=    30.00 Ry     beta=0.70
     Davidson diagonalization with overlap
     ethr =  1.00E-02,  avg # of iterations =  7.0

     negative rho (up, down):  2.385E-01 0.000E+00

     total cpu time spent up to now is        7.2 secs

     total energy              =    -217.65517899 Ry
     Harris-Foulkes estimate   =   -1015.33183806 Ry
     estimated scf accuracy    <      60.13870482 Ry

     iteration # 27     ecut=    30.00 Ry     beta=0.70
     Davidson diagonalization with overlap
     ethr =  1.00E-02,  avg # of iterations =  5.0

     negative rho (up, down):  1.591E+00 0.000E+00

     total cpu time spent up to now is        7.3 secs

     total energy              =     143.71208742 Ry
     Harris-Foulkes estimate   =    -937.29663674 Ry
     estimated scf accuracy    <      65.03111468 Ry

     iteration # 28     ecut=    30.00 Ry     beta=0.70
     Davidson diagonalization with overlap
     ethr =  1.00E-02,  avg # of iterations =  8.0

     negative rho (up, down):  2.107E+00 0.000E+00

     total cpu time spent up to now is        7.3 secs

     total energy              =     -47.23170119 Ry
     Harris-Foulkes estimate   =    -833.59327449 Ry
     estimated scf accuracy    <      49.05924488 Ry

     iteration # 29     ecut=    30.00 Ry     beta=0.70
     Davidson diagonalization with overlap
     ethr =  1.00E-02,  avg # of iterations =  7.0

     negative rho (up, down):  3.058E+00 0.000E+00

     total cpu time spent up to now is        7.4 secs

     total energy              =    -774.99778904 Ry
     Harris-Foulkes estimate   =   -2850.44099582 Ry
     estimated scf accuracy    <      52.93058397 Ry

     iteration # 30     ecut=    30.00 Ry     beta=0.70
     Davidson diagonalization with overlap
     ethr =  1.00E-02,  avg # of iterations =  9.0

     negative rho (up, down):  3.309E+00 0.000E+00

     total cpu time spent up to now is        7.5 secs

     total energy              =      75.21926351 Ry
     Harris-Foulkes estimate   =  -67644.70892813 Ry
     estimated scf accuracy    <      39.67404267 Ry

     iteration # 31     ecut=    30.00 Ry     beta=0.70
     Davidson diagonalization with overlap
     ethr =  1.00E-02,  avg # of iterations = 10.0

     negative rho (up, down):  2.201E+00 0.000E+00

     total cpu time spent up to now is        7.6 secs

     total energy              =      -5.05456660 Ry
     Harris-Foulkes estimate   =   -1133.69856434 Ry
     estimated scf accuracy    <      47.89972462 Ry

     iteration # 32     ecut=    30.00 Ry     beta=0.70
     Davidson diagonalization with overlap
     ethr =  1.00E-02,  avg # of iterations =  6.0

     negative rho (up, down):  2.227E+00 0.000E+00

     total cpu time spent up to now is        7.7 secs

     total energy              =   -1152.22930276 Ry
     Harris-Foulkes estimate   =   -2258.02380205 Ry
     estimated scf accuracy    <      35.25282328 Ry

     iteration # 33     ecut=    30.00 Ry     beta=0.70
     Davidson diagonalization with overlap
     ethr =  1.00E-02,  avg # of iterations =  8.0

     negative rho (up, down):  1.709E+00 0.000E+00

     total cpu time spent up to now is        7.8 secs

     total energy              =      38.06879363 Ry
     Harris-Foulkes estimate   =  -75439.76868434 Ry
     estimated scf accuracy    <      31.99779225 Ry

     iteration # 34     ecut=    30.00 Ry     beta=0.70
     Davidson diagonalization with overlap
     ethr =  1.00E-02,  avg # of iterations = 10.0

     negative rho (up, down):  8.700E-01 0.000E+00

     total cpu time spent up to now is        7.9 secs

     total energy              =       4.85907387 Ry
     Harris-Foulkes estimate   =   -1284.07621298 Ry
     estimated scf accuracy    <      33.29051354 Ry

     iteration # 35     ecut=    30.00 Ry     beta=0.70
     Davidson diagonalization with overlap
     ethr =  1.00E-02,  avg # of iterations =  6.0

     negative rho (up, down):  7.357E-01 0.000E+00

     total cpu time spent up to now is        8.0 secs

     total energy              =     105.38363138 Ry
     Harris-Foulkes estimate   =   -3704.45853958 Ry
     estimated scf accuracy    <      22.98939726 Ry

     iteration # 36     ecut=    30.00 Ry     beta=0.70
     Davidson diagonalization with overlap
     ethr =  1.00E-02,  avg # of iterations =  9.0

     negative rho (up, down):  4.833E-01 0.000E+00

     total cpu time spent up to now is        8.1 secs

     total energy              =      -2.61914538 Ry
     Harris-Foulkes estimate   =   -1468.25029775 Ry
     estimated scf accuracy    <      23.99252106 Ry

     iteration # 37     ecut=    30.00 Ry     beta=0.70
     Davidson diagonalization with overlap
     ethr =  1.00E-02,  avg # of iterations =  6.0

     negative rho (up, down):  5.962E-01 0.000E+00

     total cpu time spent up to now is        8.2 secs

     total energy              =    -401.93586549 Ry
     Harris-Foulkes estimate   =   -4443.46319118 Ry
     estimated scf accuracy    <      22.13013136 Ry

     iteration # 38     ecut=    30.00 Ry     beta=0.70
     Davidson diagonalization with overlap
     ethr =  1.00E-02,  avg # of iterations = 14.0

     negative rho (up, down):  6.505E-01 0.000E+00

     total cpu time spent up to now is        8.3 secs

     total energy              =   -3709.72335866 Ry
     Harris-Foulkes estimate   =   -3038.77735637 Ry
     estimated scf accuracy    <      20.04596125 Ry

     iteration # 39     ecut=    30.00 Ry     beta=0.70
     Davidson diagonalization with overlap
     ethr =  1.00E-02,  avg # of iterations =  8.0

     negative rho (up, down):  5.539E-01 0.000E+00

     total cpu time spent up to now is        8.4 secs

     total energy              =      28.32944401 Ry
     Harris-Foulkes estimate   =  -15305.72679369 Ry
     estimated scf accuracy    <      30.19164070 Ry

     iteration # 40     ecut=    30.00 Ry     beta=0.70
     Davidson diagonalization with overlap
     ethr =  1.00E-02,  avg # of iterations = 10.0

     negative rho (up, down):  4.192E-02 0.000E+00

     total cpu time spent up to now is        8.6 secs

     total energy              =      64.98816026 Ry
     Harris-Foulkes estimate   =    -252.00581240 Ry
     estimated scf accuracy    <      26.84189772 Ry

     iteration # 41     ecut=    30.00 Ry     beta=0.70
     Davidson diagonalization with overlap
     ethr =  1.00E-02,  avg # of iterations =  7.0

     negative rho (up, down):  6.486E-03 0.000E+00

     total cpu time spent up to now is        8.7 secs

     total energy              =      65.87832019 Ry
     Harris-Foulkes estimate   =    -982.16578309 Ry
     estimated scf accuracy    <      15.34260867 Ry

     iteration # 42     ecut=    30.00 Ry     beta=0.70
     Davidson diagonalization with overlap
     ethr =  1.00E-02,  avg # of iterations =  5.0

     negative rho (up, down):  9.494E-04 0.000E+00

     total cpu time spent up to now is        8.8 secs

     total energy              =      86.81207977 Ry
     Harris-Foulkes estimate   =    -639.16290678 Ry
     estimated scf accuracy    <      19.33663594 Ry

     iteration # 43     ecut=    30.00 Ry     beta=0.70
     Davidson diagonalization with overlap
     ethr =  1.00E-02,  avg # of iterations =  8.0

     negative rho (up, down):  5.510E-04 0.000E+00

     total cpu time spent up to now is        8.9 secs

     total energy              =     -76.37283453 Ry
     Harris-Foulkes estimate   =     -76.15941926 Ry
     estimated scf accuracy    <      60.89955875 Ry

     iteration # 44     ecut=    30.00 Ry     beta=0.70
     Davidson diagonalization with overlap
     ethr =  1.00E-02,  avg # of iterations =  1.0

     negative rho (up, down):  1.032E-01 0.000E+00

     total cpu time spent up to now is        8.9 secs

     total energy              =     -79.56089512 Ry
     Harris-Foulkes estimate   =     -76.37288896 Ry
     estimated scf accuracy    <      61.20209478 Ry

     iteration # 45     ecut=    30.00 Ry     beta=0.70
     Davidson diagonalization with overlap
     ethr =  1.00E-02,  avg # of iterations =  6.0

     negative rho (up, down):  1.966E-03 0.000E+00

     total cpu time spent up to now is        9.0 secs

     total energy              =     132.39929070 Ry
     Harris-Foulkes estimate   =    -874.32919567 Ry
     estimated scf accuracy    <      28.00855801 Ry

     iteration # 46     ecut=    30.00 Ry     beta=0.70
     Davidson diagonalization with overlap
     ethr =  1.00E-02,  avg # of iterations =  9.0

     negative rho (up, down):  1.772E-01 0.000E+00

     total cpu time spent up to now is        9.1 secs

     total energy              =     -93.81259921 Ry
     Harris-Foulkes estimate   =     -79.00852666 Ry
     estimated scf accuracy    <      64.80620957 Ry

     iteration # 47     ecut=    30.00 Ry     beta=0.70
     Davidson diagonalization with overlap
     ethr =  1.00E-02,  avg # of iterations = 12.0

     negative rho (up, down):  1.888E-01 0.000E+00

     total cpu time spent up to now is        9.2 secs

     total energy              =     -40.01982946 Ry
     Harris-Foulkes estimate   =   -1188.90674609 Ry
     estimated scf accuracy    <      33.81731788 Ry

     iteration # 48     ecut=    30.00 Ry     beta=0.70
     Davidson diagonalization with overlap
     ethr =  1.00E-02,  avg # of iterations =  6.0

     negative rho (up, down):  2.499E-01 0.000E+00

     total cpu time spent up to now is        9.3 secs

     total energy              =     -37.23940680 Ry
     Harris-Foulkes estimate   =    -424.88080260 Ry
     estimated scf accuracy    <      24.81046744 Ry

     iteration # 49     ecut=    30.00 Ry     beta=0.70
     Davidson diagonalization with overlap
     ethr =  1.00E-02,  avg # of iterations =  9.0

     negative rho (up, down):  6.448E-02 0.000E+00

     total cpu time spent up to now is        9.4 secs

     total energy              =      75.36239883 Ry
     Harris-Foulkes estimate   =    -853.80667374 Ry
     estimated scf accuracy    <      25.65178855 Ry

     iteration # 50     ecut=    30.00 Ry     beta=0.70
     Davidson diagonalization with overlap
     ethr =  1.00E-02,  avg # of iterations =  9.0

     negative rho (up, down):  2.675E-01 0.000E+00

     total cpu time spent up to now is        9.5 secs

     total energy              =    -131.40626536 Ry
     Harris-Foulkes estimate   =   -1217.62490940 Ry
     estimated scf accuracy    <      39.15491155 Ry

     iteration # 51     ecut=    30.00 Ry     beta=0.70
     Davidson diagonalization with overlap
     ethr =  1.00E-02,  avg # of iterations =  7.0

     negative rho (up, down):  1.510E-01 0.000E+00

     total cpu time spent up to now is        9.5 secs

     total energy              =      61.56089203 Ry
     Harris-Foulkes estimate   =    -824.74002570 Ry
     estimated scf accuracy    <      34.20508595 Ry

     iteration # 52     ecut=    30.00 Ry     beta=0.70
     Davidson diagonalization with overlap
     ethr =  1.00E-02,  avg # of iterations =  5.0

     negative rho (up, down):  4.820E-01 0.000E+00

     total cpu time spent up to now is        9.6 secs

     total energy              =      88.27789084 Ry
     Harris-Foulkes estimate   =   -3831.04422399 Ry
     estimated scf accuracy    <      32.87235419 Ry

     iteration # 53     ecut=    30.00 Ry     beta=0.70
     Davidson diagonalization with overlap
     ethr =  1.00E-02,  avg # of iterations =  9.0

     negative rho (up, down):  4.200E-01 0.000E+00

     total cpu time spent up to now is        9.7 secs

     total energy              =     100.68318959 Ry
     Harris-Foulkes estimate   =    -755.99565839 Ry
     estimated scf accuracy    <      31.59315143 Ry

     iteration # 54     ecut=    30.00 Ry     beta=0.70
     Davidson diagonalization with overlap
     ethr =  1.00E-02,  avg # of iterations =  6.0

     negative rho (up, down):  4.808E-01 0.000E+00

     total cpu time spent up to now is        9.8 secs

     total energy              =      76.31467863 Ry
     Harris-Foulkes estimate   =   -1142.14999661 Ry
     estimated scf accuracy    <      24.28769802 Ry

     iteration # 55     ecut=    30.00 Ry     beta=0.70
     Davidson diagonalization with overlap
     ethr =  1.00E-02,  avg # of iterations =  8.0

     negative rho (up, down):  4.725E-01 0.000E+00

     total cpu time spent up to now is        9.9 secs

     total energy              =      78.43308662 Ry
     Harris-Foulkes estimate   =   -2112.27225306 Ry
     estimated scf accuracy    <      26.03116743 Ry

     iteration # 56     ecut=    30.00 Ry     beta=0.70
     Davidson diagonalization with overlap
     ethr =  1.00E-02,  avg # of iterations =  8.0

     negative rho (up, down):  3.430E-01 0.000E+00

     total cpu time spent up to now is       10.0 secs

     total energy              =      95.32739543 Ry
     Harris-Foulkes estimate   =    -640.41635472 Ry
     estimated scf accuracy    <      22.55467342 Ry

     iteration # 57     ecut=    30.00 Ry     beta=0.70
     Davidson diagonalization with overlap
     ethr =  1.00E-02,  avg # of iterations = 12.0

     negative rho (up, down):  5.054E-01 0.000E+00

     total cpu time spent up to now is       10.1 secs

     total energy              =      51.12355113 Ry
     Harris-Foulkes estimate   =   -1147.37602265 Ry
     estimated scf accuracy    <      31.79457484 Ry

     iteration # 58     ecut=    30.00 Ry     beta=0.70
     Davidson diagonalization with overlap
     ethr =  1.00E-02,  avg # of iterations =  9.0

     negative rho (up, down):  5.757E-01 0.000E+00

     total cpu time spent up to now is       10.2 secs

     total energy              =      -3.70597061 Ry
     Harris-Foulkes estimate   =    -479.54621344 Ry
     estimated scf accuracy    <      30.33043368 Ry

     iteration # 59     ecut=    30.00 Ry     beta=0.70
     Davidson diagonalization with overlap
     ethr =  1.00E-02,  avg # of iterations =  6.0

     negative rho (up, down):  5.781E-02 0.000E+00

     total cpu time spent up to now is       10.3 secs

     total energy              =      72.30584656 Ry
     Harris-Foulkes estimate   =   -4846.85138917 Ry
     estimated scf accuracy    <      28.14746106 Ry

     iteration # 60     ecut=    30.00 Ry     beta=0.70
     Davidson diagonalization with overlap
     ethr =  1.00E-02,  avg # of iterations =  8.0

     negative rho (up, down):  7.338E-02 0.000E+00

     total cpu time spent up to now is       10.4 secs

     total energy              =    -140.65263880 Ry
     Harris-Foulkes estimate   =     -61.48044548 Ry
     estimated scf accuracy    <      41.49399886 Ry

     iteration # 61     ecut=    30.00 Ry     beta=0.70
     Davidson diagonalization with overlap
     ethr =  1.00E-02,  avg # of iterations =  5.0

     negative rho (up, down):  3.116E-01 0.000E+00

     total cpu time spent up to now is       10.4 secs

     total energy              =     -83.38826218 Ry
     Harris-Foulkes estimate   =    -516.68180942 Ry
     estimated scf accuracy    <      50.78675524 Ry

     iteration # 62     ecut=    30.00 Ry     beta=0.70
     Davidson diagonalization with overlap
     ethr =  1.00E-02,  avg # of iterations =  8.0

     negative rho (up, down):  5.687E-01 0.000E+00

     total cpu time spent up to now is       10.5 secs

     total energy              =     -72.24975569 Ry
     Harris-Foulkes estimate   =   -1638.24951427 Ry
     estimated scf accuracy    <      53.18734598 Ry

     iteration # 63     ecut=    30.00 Ry     beta=0.70
     Davidson diagonalization with overlap
     ethr =  1.00E-02,  avg # of iterations =  8.0

     negative rho (up, down):  7.367E-01 0.000E+00

     total cpu time spent up to now is       10.6 secs

     total energy              =     -38.69692564 Ry
     Harris-Foulkes estimate   =   -2327.85423209 Ry
     estimated scf accuracy    <      58.01071407 Ry

     iteration # 64     ecut=    30.00 Ry     beta=0.70
     Davidson diagonalization with overlap
     ethr =  1.00E-02,  avg # of iterations =  8.0

     negative rho (up, down):  1.009E+00 0.000E+00

     total cpu time spent up to now is       10.7 secs

     total energy              =     -28.86021599 Ry
     Harris-Foulkes estimate   =   -7292.52586925 Ry
     estimated scf accuracy    <      54.43846176 Ry

     iteration # 65     ecut=    30.00 Ry     beta=0.70
     Davidson diagonalization with overlap
     ethr =  1.00E-02,  avg # of iterations =  7.0

     negative rho (up, down):  1.740E+00 0.000E+00

     total cpu time spent up to now is       10.8 secs

     total energy              =    -115.11466287 Ry
     Harris-Foulkes estimate   =   -1607.51058118 Ry
     estimated scf accuracy    <      47.98731414 Ry

     iteration # 66     ecut=    30.00 Ry     beta=0.70
     Davidson diagonalization with overlap
     ethr =  1.00E-02,  avg # of iterations =  7.0

     negative rho (up, down):  1.622E+00 0.000E+00

     total cpu time spent up to now is       10.9 secs

     total energy              =   -2837.65375295 Ry
     Harris-Foulkes estimate   =   -3901.16407256 Ry
     estimated scf accuracy    <      58.13988292 Ry

     iteration # 67     ecut=    30.00 Ry     beta=0.70
     Davidson diagonalization with overlap
     ethr =  1.00E-02,  avg # of iterations =  8.0

     negative rho (up, down):  1.330E+00 0.000E+00

     total cpu time spent up to now is       11.0 secs

     total energy              =       6.30667959 Ry
     Harris-Foulkes estimate   =  -11932.64052233 Ry
     estimated scf accuracy    <      43.76351967 Ry

     iteration # 68     ecut=    30.00 Ry     beta=0.70
     Davidson diagonalization with overlap
     ethr =  1.00E-02,  avg # of iterations =  7.0

     negative rho (up, down):  2.914E-01 0.000E+00

     total cpu time spent up to now is       11.1 secs

     total energy              =      -0.99992353 Ry
     Harris-Foulkes estimate   =   -2802.55491039 Ry
     estimated scf accuracy    <      35.58284231 Ry

     iteration # 69     ecut=    30.00 Ry     beta=0.70
     Davidson diagonalization with overlap
     ethr =  1.00E-02,  avg # of iterations =  8.0

     negative rho (up, down):  8.045E-01 0.000E+00

     total cpu time spent up to now is       11.1 secs

     total energy              =     117.91432558 Ry
     Harris-Foulkes estimate   =   -1281.90910341 Ry
     estimated scf accuracy    <      27.58590945 Ry

     iteration # 70     ecut=    30.00 Ry     beta=0.70
     Davidson diagonalization with overlap
     ethr =  1.00E-02,  avg # of iterations =  8.0

     negative rho (up, down):  7.730E-01 0.000E+00

     total cpu time spent up to now is       11.2 secs

     total energy              =      -3.73015729 Ry
     Harris-Foulkes estimate   =   -1227.80775945 Ry
     estimated scf accuracy    <      26.89821990 Ry

     iteration # 71     ecut=    30.00 Ry     beta=0.70
     Davidson diagonalization with overlap
     ethr =  1.00E-02,  avg # of iterations =  9.0

     negative rho (up, down):  2.394E-01 0.000E+00

     total cpu time spent up to now is       11.3 secs

     total energy              =      71.33914716 Ry
     Harris-Foulkes estimate   =   -1117.59233757 Ry
     estimated scf accuracy    <      28.96630009 Ry

     iteration # 72     ecut=    30.00 Ry     beta=0.70
     Davidson diagonalization with overlap
     ethr =  1.00E-02,  avg # of iterations =  7.0

     negative rho (up, down):  1.903E-01 0.000E+00

     total cpu time spent up to now is       11.4 secs

     total energy              =    -267.93176686 Ry
     Harris-Foulkes estimate   =    -693.97044561 Ry
     estimated scf accuracy    <      23.02553491 Ry

     iteration # 73     ecut=    30.00 Ry     beta=0.70
     Davidson diagonalization with overlap
     ethr =  1.00E-02,  avg # of iterations =  8.0

     negative rho (up, down):  1.060E-01 0.000E+00

     total cpu time spent up to now is       11.5 secs

     total energy              =      67.03365802 Ry
     Harris-Foulkes estimate   =   -1548.64665473 Ry
     estimated scf accuracy    <      19.70159716 Ry

     iteration # 74     ecut=    30.00 Ry     beta=0.70
     Davidson diagonalization with overlap
     ethr =  1.00E-02,  avg # of iterations = 11.0

     negative rho (up, down):  1.045E-01 0.000E+00

     total cpu time spent up to now is       11.6 secs

     total energy              =    -132.41306291 Ry
     Harris-Foulkes estimate   =    -652.54583282 Ry
     estimated scf accuracy    <      30.32274173 Ry

     iteration # 75     ecut=    30.00 Ry     beta=0.70
     Davidson diagonalization with overlap
     ethr =  1.00E-02,  avg # of iterations =  4.0

     negative rho (up, down):  1.053E-01 0.000E+00

     total cpu time spent up to now is       11.7 secs

     total energy              =      43.19475380 Ry
     Harris-Foulkes estimate   =    -676.35601537 Ry
     estimated scf accuracy    <      25.97319595 Ry

     iteration # 76     ecut=    30.00 Ry     beta=0.70
     Davidson diagonalization with overlap
     ethr =  1.00E-02,  avg # of iterations =  6.0

     negative rho (up, down):  4.319E-02 0.000E+00

     total cpu time spent up to now is       11.8 secs

     total energy              =    -866.94507822 Ry
     Harris-Foulkes estimate   =    -212.06166423 Ry
     estimated scf accuracy    <      22.55603873 Ry

     iteration # 77     ecut=    30.00 Ry     beta=0.70
     Davidson diagonalization with overlap
     ethr =  1.00E-02,  avg # of iterations =  5.0

     negative rho (up, down):  9.541E-02 0.000E+00

     total cpu time spent up to now is       11.8 secs

     total energy              =       0.70724797 Ry
     Harris-Foulkes estimate   =   -1626.73630101 Ry
     estimated scf accuracy    <      31.64439918 Ry

     iteration # 78     ecut=    30.00 Ry     beta=0.70
     Davidson diagonalization with overlap
     ethr =  1.00E-02,  avg # of iterations =  6.0

     negative rho (up, down):  1.396E-01 0.000E+00

     total cpu time spent up to now is       11.9 secs

     total energy              =     -33.76059726 Ry
     Harris-Foulkes estimate   =    -464.27222549 Ry
     estimated scf accuracy    <      26.42452199 Ry

     iteration # 79     ecut=    30.00 Ry     beta=0.70
     Davidson diagonalization with overlap
     ethr =  1.00E-02,  avg # of iterations =  8.0

     negative rho (up, down):  2.155E-01 0.000E+00

     total cpu time spent up to now is       12.0 secs

     total energy              =      85.30643463 Ry
     Harris-Foulkes estimate   =    -521.97497003 Ry
     estimated scf accuracy    <      41.37292964 Ry

     iteration # 80     ecut=    30.00 Ry     beta=0.70
     Davidson diagonalization with overlap
     ethr =  1.00E-02,  avg # of iterations =  8.0

     negative rho (up, down):  5.869E-01 0.000E+00

     total cpu time spent up to now is       12.1 secs

     total energy              =    1079.15574243 Ry
     Harris-Foulkes estimate   =    -872.74067706 Ry
     estimated scf accuracy    <      21.75522616 Ry

     iteration # 81     ecut=    30.00 Ry     beta=0.70
     Davidson diagonalization with overlap
     ethr =  1.00E-02,  avg # of iterations =  5.0

     negative rho (up, down):  7.234E-01 0.000E+00

     total cpu time spent up to now is       12.2 secs

     total energy              =    -450.24539422 Ry
     Harris-Foulkes estimate   =    -488.84827420 Ry
     estimated scf accuracy    <      18.12146621 Ry

     iteration # 82     ecut=    30.00 Ry     beta=0.70
     Davidson diagonalization with overlap
     ethr =  1.00E-02,  avg # of iterations =  8.0

     negative rho (up, down):  1.042E+00 0.000E+00

     total cpu time spent up to now is       12.3 secs

     total energy              =      47.88730612 Ry
     Harris-Foulkes estimate   =   -3975.53258655 Ry
     estimated scf accuracy    <      29.07765717 Ry

     iteration # 83     ecut=    30.00 Ry     beta=0.70
     Davidson diagonalization with overlap
     ethr =  1.00E-02,  avg # of iterations =  7.0

     negative rho (up, down):  4.858E-01 0.000E+00

     total cpu time spent up to now is       12.4 secs

     total energy              =      90.53221680 Ry
     Harris-Foulkes estimate   =  -93598.68833757 Ry
     estimated scf accuracy    <      22.90618286 Ry

     iteration # 84     ecut=    30.00 Ry     beta=0.70
     Davidson diagonalization with overlap
     ethr =  1.00E-02,  avg # of iterations =  9.0

     negative rho (up, down):  6.959E-01 0.000E+00

     total cpu time spent up to now is       12.5 secs

     total energy              =     -27.20923639 Ry
     Harris-Foulkes estimate   =   -1394.69868588 Ry
     estimated scf accuracy    <      27.57723837 Ry

     iteration # 85     ecut=    30.00 Ry     beta=0.70
     Davidson diagonalization with overlap
     ethr =  1.00E-02,  avg # of iterations =  6.0

     negative rho (up, down):  5.704E-01 0.000E+00

     total cpu time spent up to now is       12.5 secs

     total energy              =      80.91222282 Ry
     Harris-Foulkes estimate   =   -9183.09579054 Ry
     estimated scf accuracy    <      18.93695169 Ry

     iteration # 86     ecut=    30.00 Ry     beta=0.70
     Davidson diagonalization with overlap
     ethr =  1.00E-02,  avg # of iterations =  8.0

     negative rho (up, down):  3.449E-02 0.000E+00

     total cpu time spent up to now is       12.6 secs

     total energy              =      68.22245507 Ry
     Harris-Foulkes estimate   =    -388.59676579 Ry
     estimated scf accuracy    <      17.81908550 Ry

     iteration # 87     ecut=    30.00 Ry     beta=0.70
     Davidson diagonalization with overlap
     ethr =  1.00E-02,  avg # of iterations =  7.0

     negative rho (up, down):  1.543E-02 0.000E+00

     total cpu time spent up to now is       12.7 secs

     total energy              =     -17.03806404 Ry
     Harris-Foulkes estimate   =     -55.34697447 Ry
     estimated scf accuracy    <      18.38290345 Ry

     iteration # 88     ecut=    30.00 Ry     beta=0.70
     Davidson diagonalization with overlap
     ethr =  1.00E-02,  avg # of iterations =  5.0

     negative rho (up, down):  1.027E-04 0.000E+00

     total cpu time spent up to now is       12.8 secs

     total energy              =      49.55239071 Ry
     Harris-Foulkes estimate   =    -141.75487025 Ry
     estimated scf accuracy    <      13.32685356 Ry

     iteration # 89     ecut=    30.00 Ry     beta=0.70
     Davidson diagonalization with overlap
     ethr =  1.00E-02,  avg # of iterations =  7.0

     negative rho (up, down):  3.374E-04 0.000E+00

     total cpu time spent up to now is       12.9 secs

     total energy              =     -37.62175316 Ry
     Harris-Foulkes estimate   =     -39.38748636 Ry
     estimated scf accuracy    <      14.33539401 Ry

     iteration # 90     ecut=    30.00 Ry     beta=0.70
     Davidson diagonalization with overlap
     ethr =  1.00E-02,  avg # of iterations =  4.0

     total cpu time spent up to now is       12.9 secs

     total energy              =     -14.03949585 Ry
     Harris-Foulkes estimate   =     -43.35503673 Ry
     estimated scf accuracy    <       8.44007099 Ry

     iteration # 91     ecut=    30.00 Ry     beta=0.70
     Davidson diagonalization with overlap
     ethr =  1.00E-02,  avg # of iterations =  4.0

     total cpu time spent up to now is       13.0 secs

     total energy              =     -37.17129514 Ry
     Harris-Foulkes estimate   =     -38.21900300 Ry
     estimated scf accuracy    <      12.29089445 Ry

     iteration # 92     ecut=    30.00 Ry     beta=0.70
     Davidson diagonalization with overlap
     ethr =  1.00E-02,  avg # of iterations =  1.0

     negative rho (up, down):  1.482E-01 0.000E+00

     total cpu time spent up to now is       13.1 secs

     total energy              =     -40.90617586 Ry
     Harris-Foulkes estimate   =     -37.96068929 Ry
     estimated scf accuracy    <      11.60263920 Ry

     iteration # 93     ecut=    30.00 Ry     beta=0.70
     Davidson diagonalization with overlap
     ethr =  1.00E-02,  avg # of iterations =  7.0

     negative rho (up, down):  1.482E-01 0.000E+00

     total cpu time spent up to now is       13.1 secs

     total energy              =      35.40876748 Ry
     Harris-Foulkes estimate   =    -408.57409716 Ry
     estimated scf accuracy    <      16.81469820 Ry

     iteration # 94     ecut=    30.00 Ry     beta=0.70
     Davidson diagonalization with overlap
     ethr =  1.00E-02,  avg # of iterations =  5.0

     negative rho (up, down):  1.053E-01 0.000E+00

     total cpu time spent up to now is       13.2 secs

     total energy              =     -47.52454442 Ry
     Harris-Foulkes estimate   =    -182.39621526 Ry
     estimated scf accuracy    <      12.11429916 Ry

     iteration # 95     ecut=    30.00 Ry     beta=0.70
     Davidson diagonalization with overlap
     ethr =  1.00E-02,  avg # of iterations =  4.0

     negative rho (up, down):  4.391E-02 0.000E+00

     total cpu time spent up to now is       13.3 secs

     total energy              =    -200.90473117 Ry
     Harris-Foulkes estimate   =    -491.94699838 Ry
     estimated scf accuracy    <      10.51715381 Ry

     iteration # 96     ecut=    30.00 Ry     beta=0.70
     Davidson diagonalization with overlap
     ethr =  1.00E-02,  avg # of iterations =  5.0

     negative rho (up, down):  3.068E-04 0.000E+00

     total cpu time spent up to now is       13.3 secs

     total energy              =      41.00361468 Ry
     Harris-Foulkes estimate   =    -540.60597222 Ry
     estimated scf accuracy    <      15.24311623 Ry

     iteration # 97     ecut=    30.00 Ry     beta=0.70
     Davidson diagonalization with overlap
     ethr =  1.00E-02,  avg # of iterations =  4.0

     negative rho (up, down):  3.259E-04 0.000E+00

     total cpu time spent up to now is       13.4 secs

     total energy              =     -33.98460109 Ry
     Harris-Foulkes estimate   =     -35.31378847 Ry
     estimated scf accuracy    <       7.00373652 Ry

     iteration # 98     ecut=    30.00 Ry     beta=0.70
     Davidson diagonalization with overlap
     ethr =  1.00E-02,  avg # of iterations =  1.0

     negative rho (up, down):  1.225E-03 0.000E+00

     total cpu time spent up to now is       13.4 secs

     total energy              =     -33.94792086 Ry
     Harris-Foulkes estimate   =     -34.35567168 Ry
     estimated scf accuracy    <       5.69588721 Ry

     iteration # 99     ecut=    30.00 Ry     beta=0.70
     Davidson diagonalization with overlap
     ethr =  1.00E-02,  avg # of iterations =  1.0

     negative rho (up, down):  4.618E-02 0.000E+00

     total cpu time spent up to now is       13.5 secs

     total energy              =     -32.83690738 Ry
     Harris-Foulkes estimate   =     -34.08286510 Ry
     estimated scf accuracy    <       5.25644350 Ry

     iteration #100     ecut=    30.00 Ry     beta=0.70
     Davidson diagonalization with overlap
     ethr =  1.00E-02,  avg # of iterations =  4.0

     negative rho (up, down):  1.859E-05 0.000E+00

     total cpu time spent up to now is       13.6 secs

     total energy              =       6.94633599 Ry
     Harris-Foulkes estimate   =     -63.82927439 Ry
     estimated scf accuracy    <      11.86623283 Ry

     End of self-consistent calculation

     convergence NOT achieved after 100 iterations: stopping

     Writing output data file pwscf.save
 
     init_run     :      0.17s CPU      0.19s WALL (       1 calls)
     electrons    :     10.94s CPU     12.62s WALL (       3 calls)
     update_pot   :      0.32s CPU      0.41s WALL (       2 calls)
     forces       :      0.09s CPU      0.09s WALL (       2 calls)

     Called by init_run:
     wfcinit      :      0.01s CPU      0.02s WALL (       1 calls)
     potinit      :      0.05s CPU      0.05s WALL (       1 calls)

     Called by electrons:
     c_bands      :      6.10s CPU      6.33s WALL (     183 calls)
     sum_band     :      0.95s CPU      0.99s WALL (     183 calls)
     v_of_rho     :      2.30s CPU      2.39s WALL (     186 calls)
     mix_rho      :      1.38s CPU      2.50s WALL (     183 calls)

     Called by c_bands:
     init_us_2    :      0.03s CPU      0.04s WALL (     367 calls)
     cegterg      :      6.05s CPU      6.22s WALL (     183 calls)

     Called by sum_band:

     Called by *egterg:
     h_psi        :      5.14s CPU      5.27s WALL (     965 calls)
     g_psi        :      0.06s CPU      0.06s WALL (     781 calls)
     cdiaghg      :      0.35s CPU      0.36s WALL (     962 calls)

     Called by h_psi:
     h_psi:pot    :      5.11s CPU      5.24s WALL (     965 calls)
     h_psi:calbec :      0.06s CPU      0.08s WALL (     965 calls)
     vloc_psi     :      5.03s CPU      5.13s WALL (     965 calls)
     add_vuspsi   :      0.01s CPU      0.01s WALL (     965 calls)

     General routines
     calbec       :      0.06s CPU      0.08s WALL (     974 calls)
     fft          :      1.50s CPU      1.57s WALL (    2050 calls)
     fftw         :      5.21s CPU      5.33s WALL (   12810 calls)
     davcio       :      0.24s CPU      1.06s WALL (    3406 calls)
 
     Parallel routines
     fft_scatter  :      2.15s CPU      2.25s WALL (   14860 calls)
 
     PWSCF        :    11.74s CPU        13.67s WALL

 
   This run was terminated on:  15: 3:52  13Feb2018            

=------------------------------------------------------------------------------=
   JOB DONE.
=------------------------------------------------------------------------------=
