
     Program PWSCF v.6.0 (svn rev. 13079) starts on 13Feb2018 at 15: 4:39 

     This program is part of the open-source Quantum ESPRESSO suite
     for quantum simulation of materials; please cite
         "P. Giannozzi et al., J. Phys.:Condens. Matter 21 395502 (2009);
          URL http://www.quantum-espresso.org", 
     in publications or presentations arising from this work. More details at
     http://www.quantum-espresso.org/quote

     Parallel version (MPI), running on    28 processors
     R & G space division:  proc/nbgrp/npool/nimage =      28
     Reading input from inputs/MD-H2O-round1/388.in

     Current dimensions of program PWSCF are:
     Max number of different atomic species (ntypx) = 10
     Max number of k-points (npk) =  40000
     Max angular momentum in pseudopotentials (lmaxx) =  3

     Subspace diagonalization in iterative solution of the eigenvalue problem:
     a serial algorithm will be used

 
     Parallelization info
     --------------------
     sticks:   dense  smooth     PW     G-vecs:    dense   smooth      PW
     Min         136     136     33                 6338     6338     787
     Max         137     137     34                 6341     6341     792
     Sum        3809    3809    949               177509   177509   22119
 


     bravais-lattice index     =            1
     lattice parameter (alat)  =      20.0000  a.u.
     unit-cell volume          =    8000.0000 (a.u.)^3
     number of atoms/cell      =            3
     number of atomic types    =            2
     number of electrons       =         8.00
     number of Kohn-Sham states=            8
     kinetic-energy cutoff     =      30.0000  Ry
     charge density cutoff     =     120.0000  Ry
     convergence threshold     =      1.0E-08
     mixing beta               =       0.7000
     number of iterations used =            8  plain     mixing
     Exchange-correlation      = BLYP ( 1  3  1  3 0 0)
     nstep                     =         5000


     celldm(1)=  20.000000  celldm(2)=   0.000000  celldm(3)=   0.000000
     celldm(4)=   0.000000  celldm(5)=   0.000000  celldm(6)=   0.000000

     crystal axes: (cart. coord. in units of alat)
               a(1) = (   1.000000   0.000000   0.000000 )  
               a(2) = (   0.000000   1.000000   0.000000 )  
               a(3) = (   0.000000   0.000000   1.000000 )  

     reciprocal axes: (cart. coord. in units 2 pi/alat)
               b(1) = (  1.000000  0.000000  0.000000 )  
               b(2) = (  0.000000  1.000000  0.000000 )  
               b(3) = (  0.000000  0.000000  1.000000 )  


     PseudoPot. # 1 for  H read from file:
     ./H.blyp-hgh.UPF
     MD5 check sum: c576e69559cde411e611be972c763230
     Pseudo is Norm-conserving, Zval =  1.0
     Generated in analytical, separable form
     Using radial grid of  929 points,  0 beta functions with: 

     PseudoPot. # 2 for  O read from file:
     ./O.blyp-hgh.UPF
     MD5 check sum: d0b7156309aa9befef28faac7bc56342
     Pseudo is Norm-conserving, Zval =  6.0
     Generated in analytical, separable form
     Using radial grid of 1095 points,  1 beta functions with: 
                l(1) =   0

     atomic species   valence    mass     pseudopotential
        H              1.00     1.01000      H( 1.00)
        O              6.00    16.00000      O( 1.00)

     No symmetry found



   Cartesian axes

     site n.     atom                  positions (alat units)
         1           O   tau(   1) = (   0.2067025   0.1751160   0.2405083  )
         2           H   tau(   2) = (   0.8167472   0.7301434   0.2624958  )
         3           H   tau(   3) = (   0.1748792   0.2387269   0.2774119  )

     number of k points=     1  Marzari-Vanderbilt smearing, width (Ry)=  0.0250
                       cart. coord. in units 2pi/alat
        k(    1) = (   0.0000000   0.0000000   0.0000000), wk =   2.0000000

     Dense  grid:   177509 G-vectors     FFT dimensions: (  72,  72,  72)

     Estimated max dynamical RAM per process >       6.09Mb

     Estimated total allocated dynamical RAM >     170.64Mb

     Initial potential from superposition of free atoms
     Check: negative starting charge=   -0.352240

     starting charge    7.99998, renormalised to    8.00000

     negative rho (up, down):  3.522E-01 0.000E+00
     Starting wfc are    6 randomized atomic wfcs +    2 random wfc

     total cpu time spent up to now is        0.4 secs

     per-process dynamical memory:    18.8 Mb

     Self-consistent Calculation

     iteration #  1     ecut=    30.00 Ry     beta=0.70
     Davidson diagonalization with overlap
     ethr =  1.00E-02,  avg # of iterations =  8.0

     negative rho (up, down):  9.487E-02 0.000E+00

     total cpu time spent up to now is        0.4 secs

     total energy              =     -31.55227594 Ry
     Harris-Foulkes estimate   =     -32.07284395 Ry
     estimated scf accuracy    <       0.55193701 Ry

     iteration #  2     ecut=    30.00 Ry     beta=0.70
     Davidson diagonalization with overlap
     ethr =  6.90E-03,  avg # of iterations =  3.0

     negative rho (up, down):  7.328E-02 0.000E+00

     total cpu time spent up to now is        0.5 secs

     total energy              =     -31.71905485 Ry
     Harris-Foulkes estimate   =     -32.41106667 Ry
     estimated scf accuracy    <       2.32545546 Ry

     iteration #  3     ecut=    30.00 Ry     beta=0.70
     Davidson diagonalization with overlap
     ethr =  6.90E-03,  avg # of iterations =  2.0

     negative rho (up, down):  2.712E-02 0.000E+00

     total cpu time spent up to now is        0.5 secs

     total energy              =     -31.75709945 Ry
     Harris-Foulkes estimate   =     -31.79099191 Ry
     estimated scf accuracy    <       0.25370433 Ry

     iteration #  4     ecut=    30.00 Ry     beta=0.70
     Davidson diagonalization with overlap
     ethr =  3.17E-03,  avg # of iterations =  1.0

     negative rho (up, down):  1.080E-02 0.000E+00

     total cpu time spent up to now is        0.6 secs

     total energy              =     -31.61930247 Ry
     Harris-Foulkes estimate   =     -31.93472530 Ry
     estimated scf accuracy    <       1.38518897 Ry

     iteration #  5     ecut=    30.00 Ry     beta=0.70
     Davidson diagonalization with overlap
     ethr =  3.17E-03,  avg # of iterations =  1.0

     negative rho (up, down):  5.730E-04 0.000E+00

     total cpu time spent up to now is        0.6 secs

     total energy              =     -31.91413584 Ry
     Harris-Foulkes estimate   =     -32.00423412 Ry
     estimated scf accuracy    <       1.10398349 Ry

     iteration #  6     ecut=    30.00 Ry     beta=0.70
     Davidson diagonalization with overlap
     ethr =  3.17E-03,  avg # of iterations =  1.0

     negative rho (up, down):  5.933E-04 0.000E+00

     total cpu time spent up to now is        0.7 secs

     total energy              =     -31.85392246 Ry
     Harris-Foulkes estimate   =     -31.91486459 Ry
     estimated scf accuracy    <       0.97171910 Ry

     iteration #  7     ecut=    30.00 Ry     beta=0.70
     Davidson diagonalization with overlap
     ethr =  3.17E-03,  avg # of iterations =  1.0

     negative rho (up, down):  6.579E-04 0.000E+00

     total cpu time spent up to now is        0.7 secs

     total energy              =     -31.82094616 Ry
     Harris-Foulkes estimate   =     -31.85517714 Ry
     estimated scf accuracy    <       0.67594489 Ry

     iteration #  8     ecut=    30.00 Ry     beta=0.70
     Davidson diagonalization with overlap
     ethr =  3.17E-03,  avg # of iterations =  1.0

     negative rho (up, down):  2.490E-04 0.000E+00

     total cpu time spent up to now is        0.8 secs

     total energy              =     -31.83795987 Ry
     Harris-Foulkes estimate   =     -31.84296672 Ry
     estimated scf accuracy    <       0.21193222 Ry

     iteration #  9     ecut=    30.00 Ry     beta=0.70
     Davidson diagonalization with overlap
     ethr =  2.65E-03,  avg # of iterations =  1.0

     negative rho (up, down):  7.224E-05 0.000E+00

     total cpu time spent up to now is        0.8 secs

     total energy              =     -31.84022274 Ry
     Harris-Foulkes estimate   =     -31.84037123 Ry
     estimated scf accuracy    <       0.00053880 Ry

     iteration # 10     ecut=    30.00 Ry     beta=0.70
     Davidson diagonalization with overlap
     ethr =  6.74E-06,  avg # of iterations = 12.0

     negative rho (up, down):  4.908E-06 0.000E+00

     total cpu time spent up to now is        0.9 secs

     total energy              =     -31.84874475 Ry
     Harris-Foulkes estimate   =     -31.84151333 Ry
     estimated scf accuracy    <       0.08148002 Ry

     iteration # 11     ecut=    30.00 Ry     beta=0.70
     Davidson diagonalization with overlap
     ethr =  6.74E-06,  avg # of iterations =  2.0

     negative rho (up, down):  1.461E-07 0.000E+00

     total cpu time spent up to now is        1.0 secs

     total energy              =     -31.85181611 Ry
     Harris-Foulkes estimate   =     -31.85666788 Ry
     estimated scf accuracy    <       0.71713693 Ry

     iteration # 12     ecut=    30.00 Ry     beta=0.70
     Davidson diagonalization with overlap
     ethr =  6.74E-06,  avg # of iterations =  1.0

     negative rho (up, down):  2.883E-08 0.000E+00

     total cpu time spent up to now is        1.0 secs

     total energy              =     -31.83920323 Ry
     Harris-Foulkes estimate   =     -31.85202228 Ry
     estimated scf accuracy    <       0.58867617 Ry

     iteration # 13     ecut=    30.00 Ry     beta=0.70
     Davidson diagonalization with overlap
     ethr =  6.74E-06,  avg # of iterations =  2.0

     negative rho (up, down):  2.589E-07 0.000E+00

     total cpu time spent up to now is        1.1 secs

     total energy              =     -31.83866243 Ry
     Harris-Foulkes estimate   =     -31.84220146 Ry
     estimated scf accuracy    <       0.12624977 Ry

     iteration # 14     ecut=    30.00 Ry     beta=0.70
     Davidson diagonalization with overlap
     ethr =  6.74E-06,  avg # of iterations =  1.0

     negative rho (up, down):  2.079E-07 0.000E+00

     total cpu time spent up to now is        1.1 secs

     total energy              =     -31.84036493 Ry
     Harris-Foulkes estimate   =     -31.84038207 Ry
     estimated scf accuracy    <       0.00002125 Ry

     iteration # 15     ecut=    30.00 Ry     beta=0.70
     Davidson diagonalization with overlap
     ethr =  2.66E-07,  avg # of iterations =  2.0

     total cpu time spent up to now is        1.2 secs

     total energy              =     -31.84032792 Ry
     Harris-Foulkes estimate   =     -31.84073549 Ry
     estimated scf accuracy    <       0.02651773 Ry

     iteration # 16     ecut=    30.00 Ry     beta=0.70
     Davidson diagonalization with overlap
     ethr =  2.66E-07,  avg # of iterations =  2.0

     total cpu time spent up to now is        1.2 secs

     total energy              =     -31.84039756 Ry
     Harris-Foulkes estimate   =     -31.84044293 Ry
     estimated scf accuracy    <       0.00483037 Ry

     iteration # 17     ecut=    30.00 Ry     beta=0.70
     Davidson diagonalization with overlap
     ethr =  2.66E-07,  avg # of iterations =  1.0

     total cpu time spent up to now is        1.3 secs

     total energy              =     -31.84037906 Ry
     Harris-Foulkes estimate   =     -31.84040531 Ry
     estimated scf accuracy    <       0.00203110 Ry

     iteration # 18     ecut=    30.00 Ry     beta=0.70
     Davidson diagonalization with overlap
     ethr =  2.66E-07,  avg # of iterations =  1.0

     total cpu time spent up to now is        1.3 secs

     total energy              =     -31.84037309 Ry
     Harris-Foulkes estimate   =     -31.84038558 Ry
     estimated scf accuracy    <       0.00050790 Ry

     iteration # 19     ecut=    30.00 Ry     beta=0.70
     Davidson diagonalization with overlap
     ethr =  2.66E-07,  avg # of iterations =  1.0

     total cpu time spent up to now is        1.4 secs

     total energy              =     -31.84037929 Ry
     Harris-Foulkes estimate   =     -31.84037936 Ry
     estimated scf accuracy    <       0.00000013 Ry

     iteration # 20     ecut=    30.00 Ry     beta=0.70
     Davidson diagonalization with overlap
     ethr =  1.61E-09,  avg # of iterations =  1.0

     total cpu time spent up to now is        1.4 secs

     total energy              =     -31.84037923 Ry
     Harris-Foulkes estimate   =     -31.84037936 Ry
     estimated scf accuracy    <       0.00000643 Ry

     iteration # 21     ecut=    30.00 Ry     beta=0.70
     Davidson diagonalization with overlap
     ethr =  1.61E-09,  avg # of iterations =  1.0

     total cpu time spent up to now is        1.5 secs

     total energy              =     -31.84037920 Ry
     Harris-Foulkes estimate   =     -31.84037929 Ry
     estimated scf accuracy    <       0.00000015 Ry

     iteration # 22     ecut=    30.00 Ry     beta=0.70
     Davidson diagonalization with overlap
     ethr =  1.61E-09,  avg # of iterations =  1.0

     total cpu time spent up to now is        1.5 secs

     End of self-consistent calculation

          k = 0.0000 0.0000 0.0000 ( 22119 PWs)   bands (ev):

   -26.1724 -11.0754  -7.1601  -7.1595  -7.0154  -0.4557   0.5480   0.7934

     the Fermi energy is    -6.9877 ev

!    total energy              =     -31.84037920 Ry
     Harris-Foulkes estimate   =     -31.84037920 Ry
     estimated scf accuracy    <          6.5E-10 Ry

     convergence has been achieved in  22 iterations

     Forces acting on atoms (Ry/au):

     atom    1 type  2   force =     0.24460638   -0.49242446   -0.28377352
     atom    2 type  1   force =     0.00025723    0.00050647   -0.00038738
     atom    3 type  1   force =    -0.24486362    0.49191799    0.28416090

     Total force =     0.874946     Total SCF correction =     0.000008

     Molecular Dynamics Calculation

     Starting temperature  =  1000.00 K

     temperature is controlled by Andersen thermostat
     Collision frequency = 1.0000/timestep
     mass H                =     1.01
     mass O                =    16.00
     Time step             =   100.00 a.u.,  4.8378 femto-seconds

     Entering Dynamics:    iteration =     1
                           time      =   0.0048 pico-seconds


     Andersen thermostat:    3 collisions

ATOMIC_POSITIONS (bohr)
O        4.205406125   3.326056833   4.691139461
H       16.337873851  14.786072063   5.150476961
H        2.364243241   7.383638572   7.533246977


     kinetic energy (Ekin) =     0.01337019 Ry
     temperature           =   703.66124461 K 
     Ekin + Etot (const)   =   -31.82700901 Ry

     Linear momentum :   -0.0000000000   -0.0000000000    0.0000000000

     Writing output data file pwscf.save
     Check: negative starting charge=   -0.352240
     NEW-OLD atomic charge density approx. for the potential
     Check: negative starting charge=   -0.341781

     negative rho (up, down):  4.501E-01 0.000E+00

     total cpu time spent up to now is        1.9 secs

     per-process dynamical memory:    20.4 Mb

     Self-consistent Calculation

     iteration #  1     ecut=    30.00 Ry     beta=0.70
     Davidson diagonalization with overlap
     c_bands:  1 eigenvalues not converged
     ethr =  1.00E-06,  avg # of iterations = 20.0

     negative rho (up, down):  1.025E-01 0.000E+00

     total cpu time spent up to now is        2.1 secs

     total energy              =     -28.55537795 Ry
     Harris-Foulkes estimate   =     -32.25035252 Ry
     estimated scf accuracy    <       3.50077889 Ry

     iteration #  2     ecut=    30.00 Ry     beta=0.70
     Davidson diagonalization with overlap
     ethr =  1.00E-02,  avg # of iterations =  4.0

     negative rho (up, down):  7.621E-02 0.000E+00

     total cpu time spent up to now is        2.2 secs

     total energy              =     -32.29698280 Ry
     Harris-Foulkes estimate   =     -36.64416781 Ry
     estimated scf accuracy    <      11.13727686 Ry

     iteration #  3     ecut=    30.00 Ry     beta=0.70
     Davidson diagonalization with overlap
     ethr =  1.00E-02,  avg # of iterations =  2.0

     negative rho (up, down):  6.619E-02 0.000E+00

     total cpu time spent up to now is        2.3 secs

     total energy              =     -31.95191309 Ry
     Harris-Foulkes estimate   =     -32.60518480 Ry
     estimated scf accuracy    <       4.24700331 Ry

     iteration #  4     ecut=    30.00 Ry     beta=0.70
     Davidson diagonalization with overlap
     ethr =  1.00E-02,  avg # of iterations =  1.0

     negative rho (up, down):  5.848E-02 0.000E+00

     total cpu time spent up to now is        2.3 secs

     total energy              =     -31.64581618 Ry
     Harris-Foulkes estimate   =     -31.95912049 Ry
     estimated scf accuracy    <       3.13253152 Ry

     iteration #  5     ecut=    30.00 Ry     beta=0.70
     Davidson diagonalization with overlap
     ethr =  1.00E-02,  avg # of iterations =  3.0

     negative rho (up, down):  4.667E-02 0.000E+00

     total cpu time spent up to now is        2.4 secs

     total energy              =     -31.32356074 Ry
     Harris-Foulkes estimate   =     -31.65456185 Ry
     estimated scf accuracy    <       2.26801017 Ry

     iteration #  6     ecut=    30.00 Ry     beta=0.70
     Davidson diagonalization with overlap
     ethr =  1.00E-02,  avg # of iterations =  1.0

     negative rho (up, down):  2.496E-02 0.000E+00

     total cpu time spent up to now is        2.4 secs

     total energy              =     -31.57023649 Ry
     Harris-Foulkes estimate   =     -31.62330631 Ry
     estimated scf accuracy    <       2.32813762 Ry

     iteration #  7     ecut=    30.00 Ry     beta=0.70
     Davidson diagonalization with overlap
     ethr =  1.00E-02,  avg # of iterations =  1.0

     negative rho (up, down):  6.018E-03 0.000E+00

     total cpu time spent up to now is        2.5 secs

     total energy              =     -31.86457824 Ry
     Harris-Foulkes estimate   =     -31.57150298 Ry
     estimated scf accuracy    <       2.44631598 Ry

     iteration #  8     ecut=    30.00 Ry     beta=0.70
     Davidson diagonalization with overlap
     ethr =  1.00E-02,  avg # of iterations =  1.0

     negative rho (up, down):  5.232E-03 0.000E+00

     total cpu time spent up to now is        2.5 secs

     total energy              =     -31.70277535 Ry
     Harris-Foulkes estimate   =     -31.90852685 Ry
     estimated scf accuracy    <       3.87799161 Ry

     iteration #  9     ecut=    30.00 Ry     beta=0.70
     Davidson diagonalization with overlap
     ethr =  1.00E-02,  avg # of iterations =  1.0

     negative rho (up, down):  1.415E-03 0.000E+00

     total cpu time spent up to now is        2.5 secs

     total energy              =     -31.02048639 Ry
     Harris-Foulkes estimate   =     -31.70758815 Ry
     estimated scf accuracy    <       3.27971711 Ry

     iteration # 10     ecut=    30.00 Ry     beta=0.70
     Davidson diagonalization with overlap
     ethr =  1.00E-02,  avg # of iterations =  1.0

     negative rho (up, down):  5.846E-06 0.000E+00

     total cpu time spent up to now is        2.6 secs

     total energy              =     -31.65500603 Ry
     Harris-Foulkes estimate   =     -31.93999021 Ry
     estimated scf accuracy    <       2.87378036 Ry

     iteration # 11     ecut=    30.00 Ry     beta=0.70
     Davidson diagonalization with overlap
     ethr =  1.00E-02,  avg # of iterations =  1.0

     negative rho (up, down):  2.291E-04 0.000E+00

     total cpu time spent up to now is        2.6 secs

     total energy              =     -31.57864839 Ry
     Harris-Foulkes estimate   =     -31.67029206 Ry
     estimated scf accuracy    <       1.78592482 Ry

     iteration # 12     ecut=    30.00 Ry     beta=0.70
     Davidson diagonalization with overlap
     ethr =  1.00E-02,  avg # of iterations =  1.0

     negative rho (up, down):  1.257E-04 0.000E+00

     total cpu time spent up to now is        2.7 secs

     total energy              =     -31.63224885 Ry
     Harris-Foulkes estimate   =     -31.58803637 Ry
     estimated scf accuracy    <       0.98772437 Ry

     iteration # 13     ecut=    30.00 Ry     beta=0.70
     Davidson diagonalization with overlap
     ethr =  1.00E-02,  avg # of iterations =  1.0

     negative rho (up, down):  8.117E-05 0.000E+00

     total cpu time spent up to now is        2.7 secs

     total energy              =     -31.64301565 Ry
     Harris-Foulkes estimate   =     -31.63554521 Ry
     estimated scf accuracy    <       1.38553793 Ry

     iteration # 14     ecut=    30.00 Ry     beta=0.70
     Davidson diagonalization with overlap
     ethr =  1.00E-02,  avg # of iterations =  1.0

     negative rho (up, down):  1.261E-05 0.000E+00

     total cpu time spent up to now is        2.8 secs

     total energy              =     -31.64927667 Ry
     Harris-Foulkes estimate   =     -31.64338417 Ry
     estimated scf accuracy    <       1.52454853 Ry

     iteration # 15     ecut=    30.00 Ry     beta=0.70
     Davidson diagonalization with overlap
     ethr =  1.00E-02,  avg # of iterations =  1.0

     negative rho (up, down):  6.634E-04 0.000E+00

     total cpu time spent up to now is        2.8 secs

     total energy              =     -31.56574054 Ry
     Harris-Foulkes estimate   =     -31.64941270 Ry
     estimated scf accuracy    <       1.61137332 Ry

     iteration # 16     ecut=    30.00 Ry     beta=0.70
     Davidson diagonalization with overlap
     ethr =  1.00E-02,  avg # of iterations =  1.0

     negative rho (up, down):  2.030E-05 0.000E+00

     total cpu time spent up to now is        2.9 secs

     total energy              =     -31.59423765 Ry
     Harris-Foulkes estimate   =     -31.57766978 Ry
     estimated scf accuracy    <       0.83513412 Ry

     iteration # 17     ecut=    30.00 Ry     beta=0.70
     Davidson diagonalization with overlap
     ethr =  1.00E-02,  avg # of iterations =  1.0

     negative rho (up, down):  3.456E-04 0.000E+00

     total cpu time spent up to now is        2.9 secs

     total energy              =     -31.51927947 Ry
     Harris-Foulkes estimate   =     -31.60614297 Ry
     estimated scf accuracy    <       0.84127682 Ry

     iteration # 18     ecut=    30.00 Ry     beta=0.70
     Davidson diagonalization with overlap
     ethr =  1.00E-02,  avg # of iterations =  1.0

     negative rho (up, down):  1.672E-06 0.000E+00

     total cpu time spent up to now is        3.0 secs

     total energy              =     -31.51996951 Ry
     Harris-Foulkes estimate   =     -31.54102715 Ry
     estimated scf accuracy    <       0.10165120 Ry

     iteration # 19     ecut=    30.00 Ry     beta=0.70
     Davidson diagonalization with overlap
     ethr =  1.27E-03,  avg # of iterations =  1.0

     negative rho (up, down):  1.864E-04 0.000E+00

     total cpu time spent up to now is        3.0 secs

     total energy              =     -31.49990978 Ry
     Harris-Foulkes estimate   =     -31.61262418 Ry
     estimated scf accuracy    <       1.60837344 Ry

     iteration # 20     ecut=    30.00 Ry     beta=0.70
     Davidson diagonalization with overlap
     ethr =  1.27E-03,  avg # of iterations =  1.0

     negative rho (up, down):  4.004E-05 0.000E+00

     total cpu time spent up to now is        3.1 secs

     total energy              =     -31.53503155 Ry
     Harris-Foulkes estimate   =     -31.54227808 Ry
     estimated scf accuracy    <       0.34470249 Ry

     iteration # 21     ecut=    30.00 Ry     beta=0.70
     Davidson diagonalization with overlap
     ethr =  1.27E-03,  avg # of iterations =  1.0

     negative rho (up, down):  1.839E-05 0.000E+00

     total cpu time spent up to now is        3.1 secs

     total energy              =     -31.53899487 Ry
     Harris-Foulkes estimate   =     -31.53837836 Ry
     estimated scf accuracy    <       0.00250904 Ry

     iteration # 22     ecut=    30.00 Ry     beta=0.70
     Davidson diagonalization with overlap
     ethr =  3.14E-05,  avg # of iterations = 18.0

     negative rho (up, down):  2.547E-05 0.000E+00

     total cpu time spent up to now is        3.2 secs

     total energy              =     -31.54085663 Ry
     Harris-Foulkes estimate   =     -31.54172806 Ry
     estimated scf accuracy    <       0.27773317 Ry

     iteration # 23     ecut=    30.00 Ry     beta=0.70
     Davidson diagonalization with overlap
     ethr =  3.14E-05,  avg # of iterations =  1.0

     negative rho (up, down):  2.396E-05 0.000E+00

     total cpu time spent up to now is        3.3 secs

     total energy              =     -31.53760257 Ry
     Harris-Foulkes estimate   =     -31.54091059 Ry
     estimated scf accuracy    <       0.21295725 Ry

     iteration # 24     ecut=    30.00 Ry     beta=0.70
     Davidson diagonalization with overlap
     ethr =  3.14E-05,  avg # of iterations =  1.0

     negative rho (up, down):  2.565E-05 0.000E+00

     total cpu time spent up to now is        3.3 secs

     total energy              =     -31.53756826 Ry
     Harris-Foulkes estimate   =     -31.53865529 Ry
     estimated scf accuracy    <       0.02788940 Ry

     iteration # 25     ecut=    30.00 Ry     beta=0.70
     Davidson diagonalization with overlap
     ethr =  3.14E-05,  avg # of iterations =  1.0

     negative rho (up, down):  6.523E-06 0.000E+00

     total cpu time spent up to now is        3.4 secs

     total energy              =     -31.53862756 Ry
     Harris-Foulkes estimate   =     -31.53847460 Ry
     estimated scf accuracy    <       0.01094645 Ry

     iteration # 26     ecut=    30.00 Ry     beta=0.70
     Davidson diagonalization with overlap
     ethr =  3.14E-05,  avg # of iterations =  1.0

     negative rho (up, down):  2.770E-05 0.000E+00

     total cpu time spent up to now is        3.4 secs

     total energy              =     -31.53822723 Ry
     Harris-Foulkes estimate   =     -31.53866395 Ry
     estimated scf accuracy    <       0.02351275 Ry

     iteration # 27     ecut=    30.00 Ry     beta=0.70
     Davidson diagonalization with overlap
     ethr =  3.14E-05,  avg # of iterations =  1.0

     negative rho (up, down):  3.900E-06 0.000E+00

     total cpu time spent up to now is        3.5 secs

     total energy              =     -31.53837077 Ry
     Harris-Foulkes estimate   =     -31.53834393 Ry
     estimated scf accuracy    <       0.00435392 Ry

     iteration # 28     ecut=    30.00 Ry     beta=0.70
     Davidson diagonalization with overlap
     ethr =  3.14E-05,  avg # of iterations =  1.0

     negative rho (up, down):  5.971E-08 0.000E+00

     total cpu time spent up to now is        3.5 secs

     total energy              =     -31.53814348 Ry
     Harris-Foulkes estimate   =     -31.53840904 Ry
     estimated scf accuracy    <       0.01143486 Ry

     iteration # 29     ecut=    30.00 Ry     beta=0.70
     Davidson diagonalization with overlap
     ethr =  3.14E-05,  avg # of iterations =  1.0

     total cpu time spent up to now is        3.6 secs

     total energy              =     -31.53826786 Ry
     Harris-Foulkes estimate   =     -31.53826856 Ry
     estimated scf accuracy    <       0.00002621 Ry

     iteration # 30     ecut=    30.00 Ry     beta=0.70
     Davidson diagonalization with overlap
     ethr =  3.28E-07,  avg # of iterations =  8.0

     total cpu time spent up to now is        3.6 secs

     total energy              =     -31.53826788 Ry
     Harris-Foulkes estimate   =     -31.53826798 Ry
     estimated scf accuracy    <       0.00000798 Ry

     iteration # 31     ecut=    30.00 Ry     beta=0.70
     Davidson diagonalization with overlap
     ethr =  9.97E-08,  avg # of iterations =  1.0

     total cpu time spent up to now is        3.7 secs

     total energy              =     -31.53826777 Ry
     Harris-Foulkes estimate   =     -31.53826795 Ry
     estimated scf accuracy    <       0.00000471 Ry

     iteration # 32     ecut=    30.00 Ry     beta=0.70
     Davidson diagonalization with overlap
     ethr =  5.88E-08,  avg # of iterations =  1.0

     total cpu time spent up to now is        3.7 secs

     total energy              =     -31.53826768 Ry
     Harris-Foulkes estimate   =     -31.53826780 Ry
     estimated scf accuracy    <       0.00000078 Ry

     iteration # 33     ecut=    30.00 Ry     beta=0.70
     Davidson diagonalization with overlap
     ethr =  9.74E-09,  avg # of iterations =  1.0

     total cpu time spent up to now is        3.8 secs

     total energy              =     -31.53826774 Ry
     Harris-Foulkes estimate   =     -31.53826769 Ry
     estimated scf accuracy    <       0.00000001 Ry

     iteration # 34     ecut=    30.00 Ry     beta=0.70
     Davidson diagonalization with overlap
     ethr =  1.74E-10,  avg # of iterations =  1.0

     total cpu time spent up to now is        3.8 secs

     End of self-consistent calculation

          k = 0.0000 0.0000 0.0000 ( 22119 PWs)   bands (ev):

   -23.6450  -7.5035  -7.0080  -7.0074  -6.8904  -6.5420  -0.1632   0.6512

     the Fermi energy is    -6.8587 ev

!    total energy              =     -31.53826774 Ry
     Harris-Foulkes estimate   =     -31.53826774 Ry
     estimated scf accuracy    <          1.5E-10 Ry

     convergence has been achieved in  34 iterations

     Forces acting on atoms (Ry/au):

     atom    1 type  2   force =    -0.01451259    0.03520074    0.02322090
     atom    2 type  1   force =    -0.00076913    0.00009965    0.00051212
     atom    3 type  1   force =     0.01528172   -0.03530040   -0.02373303

     Total force =     0.063503     Total SCF correction =     0.000014

     Entering Dynamics:    iteration =     2
                           time      =   0.0097 pico-seconds


     Andersen thermostat:    3 collisions

ATOMIC_POSITIONS (bohr)
O        4.197964075   3.334516341   4.702965305
H       16.373314955  14.661609743   5.300170405
H        2.446696009   7.374088877   7.196213419


     kinetic energy (Ekin) =     0.00737627 Ry
     temperature           =   388.20666583 K 
     Ekin + Etot (const)   =   -31.53089146 Ry
     Message from routine dynamics:
     Total linear momentum <> 0

     Linear momentum :    0.0316409203    0.3676783473    0.1781879288

     Writing output data file pwscf.save

     first order wave-functions extrapolation
     Check: negative starting charge=   -0.341781
     first order charge density extrapolation
     Check: negative starting charge=   -0.342437

     negative rho (up, down):  4.377E-01 0.000E+00

     total cpu time spent up to now is        4.3 secs

     per-process dynamical memory:    20.4 Mb

     Self-consistent Calculation

     iteration #  1     ecut=    30.00 Ry     beta=0.70
     Davidson diagonalization with overlap
     c_bands:  1 eigenvalues not converged
     ethr =  1.00E-06,  avg # of iterations = 20.0

     negative rho (up, down):  1.208E-01 0.000E+00

     total cpu time spent up to now is        4.5 secs

     total energy              =     -23.48261962 Ry
     Harris-Foulkes estimate   =     -36.67484639 Ry
     estimated scf accuracy    <       4.16515539 Ry

     iteration #  2     ecut=    30.00 Ry     beta=0.70
     Davidson diagonalization with overlap
     ethr =  1.00E-02,  avg # of iterations =  5.0

     negative rho (up, down):  3.079E-02 0.000E+00

     total cpu time spent up to now is        4.5 secs

     total energy              =     -30.40970377 Ry
     Harris-Foulkes estimate   =     -36.94485542 Ry
     estimated scf accuracy    <      19.04839092 Ry

     iteration #  3     ecut=    30.00 Ry     beta=0.70
     Davidson diagonalization with overlap
     ethr =  1.00E-02,  avg # of iterations =  7.0

     negative rho (up, down):  4.204E-02 0.000E+00

     total cpu time spent up to now is        4.6 secs

     total energy              =     -31.25575017 Ry
     Harris-Foulkes estimate   =     -32.27852440 Ry
     estimated scf accuracy    <       4.84362379 Ry

     iteration #  4     ecut=    30.00 Ry     beta=0.70
     Davidson diagonalization with overlap
     ethr =  1.00E-02,  avg # of iterations =  1.0

     negative rho (up, down):  3.708E-02 0.000E+00

     total cpu time spent up to now is        4.7 secs

     total energy              =     -31.30035658 Ry
     Harris-Foulkes estimate   =     -31.52909625 Ry
     estimated scf accuracy    <       1.20721966 Ry

     iteration #  5     ecut=    30.00 Ry     beta=0.70
     Davidson diagonalization with overlap
     ethr =  1.00E-02,  avg # of iterations =  1.0

     negative rho (up, down):  2.122E-02 0.000E+00

     total cpu time spent up to now is        4.7 secs

     total energy              =     -31.40175792 Ry
     Harris-Foulkes estimate   =     -31.58271290 Ry
     estimated scf accuracy    <       1.51722488 Ry

     iteration #  6     ecut=    30.00 Ry     beta=0.70
     Davidson diagonalization with overlap
     ethr =  1.00E-02,  avg # of iterations =  1.0

     negative rho (up, down):  6.678E-02 0.000E+00

     total cpu time spent up to now is        4.8 secs

     total energy              =     -31.13706148 Ry
     Harris-Foulkes estimate   =     -31.52562562 Ry
     estimated scf accuracy    <       2.08494424 Ry

     iteration #  7     ecut=    30.00 Ry     beta=0.70
     Davidson diagonalization with overlap
     ethr =  1.00E-02,  avg # of iterations =  1.0

     negative rho (up, down):  1.141E-01 0.000E+00

     total cpu time spent up to now is        4.8 secs

     total energy              =     -31.36253339 Ry
     Harris-Foulkes estimate   =     -31.39890834 Ry
     estimated scf accuracy    <       0.73002424 Ry

     iteration #  8     ecut=    30.00 Ry     beta=0.70
     Davidson diagonalization with overlap
     ethr =  9.13E-03,  avg # of iterations =  1.0

     negative rho (up, down):  9.989E-02 0.000E+00

     total cpu time spent up to now is        4.9 secs

     total energy              =     -31.41121199 Ry
     Harris-Foulkes estimate   =     -31.46754020 Ry
     estimated scf accuracy    <       0.92189589 Ry

     iteration #  9     ecut=    30.00 Ry     beta=0.70
     Davidson diagonalization with overlap
     ethr =  9.13E-03,  avg # of iterations =  4.0

     negative rho (up, down):  6.209E-02 0.000E+00

     total cpu time spent up to now is        4.9 secs

     total energy              =     -32.02372066 Ry
     Harris-Foulkes estimate   =     -32.19679065 Ry
     estimated scf accuracy    <       3.59677150 Ry

     iteration # 10     ecut=    30.00 Ry     beta=0.70
     Davidson diagonalization with overlap
     ethr =  9.13E-03,  avg # of iterations =  1.0

     negative rho (up, down):  9.468E-02 0.000E+00

     total cpu time spent up to now is        5.0 secs

     total energy              =     -32.17013181 Ry
     Harris-Foulkes estimate   =     -32.02497215 Ry
     estimated scf accuracy    <       3.25456378 Ry

     iteration # 11     ecut=    30.00 Ry     beta=0.70
     Davidson diagonalization with overlap
     ethr =  9.13E-03,  avg # of iterations =  1.0

     negative rho (up, down):  8.109E-03 0.000E+00

     total cpu time spent up to now is        5.0 secs

     total energy              =     -31.73593260 Ry
     Harris-Foulkes estimate   =     -32.17108750 Ry
     estimated scf accuracy    <       3.52858335 Ry

     iteration # 12     ecut=    30.00 Ry     beta=0.70
     Davidson diagonalization with overlap
     ethr =  9.13E-03,  avg # of iterations =  1.0

     negative rho (up, down):  1.171E-03 0.000E+00

     total cpu time spent up to now is        5.1 secs

     total energy              =     -31.59693367 Ry
     Harris-Foulkes estimate   =     -31.74648414 Ry
     estimated scf accuracy    <       2.50883816 Ry

     iteration # 13     ecut=    30.00 Ry     beta=0.70
     Davidson diagonalization with overlap
     ethr =  9.13E-03,  avg # of iterations =  1.0

     negative rho (up, down):  3.138E-04 0.000E+00

     total cpu time spent up to now is        5.1 secs

     total energy              =     -31.64171116 Ry
     Harris-Foulkes estimate   =     -31.65196981 Ry
     estimated scf accuracy    <       0.82581554 Ry

     iteration # 14     ecut=    30.00 Ry     beta=0.70
     Davidson diagonalization with overlap
     ethr =  9.13E-03,  avg # of iterations =  1.0

     negative rho (up, down):  1.648E-03 0.000E+00

     total cpu time spent up to now is        5.2 secs

     total energy              =     -31.62069249 Ry
     Harris-Foulkes estimate   =     -31.64222480 Ry
     estimated scf accuracy    <       0.69180532 Ry

     iteration # 15     ecut=    30.00 Ry     beta=0.70
     Davidson diagonalization with overlap
     ethr =  8.65E-03,  avg # of iterations =  1.0

     negative rho (up, down):  6.419E-03 0.000E+00

     total cpu time spent up to now is        5.2 secs

     total energy              =     -31.69689693 Ry
     Harris-Foulkes estimate   =     -31.69511229 Ry
     estimated scf accuracy    <       2.28269699 Ry

     iteration # 16     ecut=    30.00 Ry     beta=0.70
     Davidson diagonalization with overlap
     ethr =  8.65E-03,  avg # of iterations =  1.0

     negative rho (up, down):  1.545E-07 0.000E+00

     total cpu time spent up to now is        5.2 secs

     total energy              =     -30.95234033 Ry
     Harris-Foulkes estimate   =     -31.69723404 Ry
     estimated scf accuracy    <       2.21715119 Ry

     iteration # 17     ecut=    30.00 Ry     beta=0.70
     Davidson diagonalization with overlap
     ethr =  8.65E-03,  avg # of iterations =  1.0

     negative rho (up, down):  1.241E-06 0.000E+00

     total cpu time spent up to now is        5.3 secs

     total energy              =     -31.83037127 Ry
     Harris-Foulkes estimate   =     -32.37830715 Ry
     estimated scf accuracy    <       4.69563563 Ry

     iteration # 18     ecut=    30.00 Ry     beta=0.70
     Davidson diagonalization with overlap
     ethr =  8.65E-03,  avg # of iterations =  1.0

     negative rho (up, down):  6.701E-06 0.000E+00

     total cpu time spent up to now is        5.3 secs

     total energy              =     -31.81883046 Ry
     Harris-Foulkes estimate   =     -31.85581997 Ry
     estimated scf accuracy    <       3.66530857 Ry

     iteration # 19     ecut=    30.00 Ry     beta=0.70
     Davidson diagonalization with overlap
     ethr =  8.65E-03,  avg # of iterations =  1.0

     negative rho (up, down):  2.568E-06 0.000E+00

     total cpu time spent up to now is        5.4 secs

     total energy              =     -31.63982683 Ry
     Harris-Foulkes estimate   =     -31.83595075 Ry
     estimated scf accuracy    <       3.02764163 Ry

     iteration # 20     ecut=    30.00 Ry     beta=0.70
     Davidson diagonalization with overlap
     ethr =  8.65E-03,  avg # of iterations =  1.0

     negative rho (up, down):  1.598E-03 0.000E+00

     total cpu time spent up to now is        5.4 secs

     total energy              =     -31.60297399 Ry
     Harris-Foulkes estimate   =     -31.69617318 Ry
     estimated scf accuracy    <       1.30539667 Ry

     iteration # 21     ecut=    30.00 Ry     beta=0.70
     Davidson diagonalization with overlap
     ethr =  8.65E-03,  avg # of iterations =  1.0

     negative rho (up, down):  1.400E-03 0.000E+00

     total cpu time spent up to now is        5.5 secs

     total energy              =     -31.60201218 Ry
     Harris-Foulkes estimate   =     -31.61124876 Ry
     estimated scf accuracy    <       1.03495495 Ry

     iteration # 22     ecut=    30.00 Ry     beta=0.70
     Davidson diagonalization with overlap
     ethr =  8.65E-03,  avg # of iterations =  1.0

     negative rho (up, down):  1.245E-06 0.000E+00

     total cpu time spent up to now is        5.5 secs

     total energy              =     -31.52932718 Ry
     Harris-Foulkes estimate   =     -31.60225471 Ry
     estimated scf accuracy    <       0.91963922 Ry

     iteration # 23     ecut=    30.00 Ry     beta=0.70
     Davidson diagonalization with overlap
     ethr =  8.65E-03,  avg # of iterations =  1.0

     negative rho (up, down):  3.804E-05 0.000E+00

     total cpu time spent up to now is        5.6 secs

     total energy              =     -31.55405082 Ry
     Harris-Foulkes estimate   =     -31.56679744 Ry
     estimated scf accuracy    <       0.92177206 Ry

     iteration # 24     ecut=    30.00 Ry     beta=0.70
     Davidson diagonalization with overlap
     ethr =  8.65E-03,  avg # of iterations =  1.0

     negative rho (up, down):  2.876E-05 0.000E+00

     total cpu time spent up to now is        5.6 secs

     total energy              =     -31.60301427 Ry
     Harris-Foulkes estimate   =     -31.61694250 Ry
     estimated scf accuracy    <       0.88266552 Ry

     iteration # 25     ecut=    30.00 Ry     beta=0.70
     Davidson diagonalization with overlap
     ethr =  8.65E-03,  avg # of iterations =  1.0

     negative rho (up, down):  7.983E-06 0.000E+00

     total cpu time spent up to now is        5.7 secs

     total energy              =     -31.57537932 Ry
     Harris-Foulkes estimate   =     -31.61969435 Ry
     estimated scf accuracy    <       0.94560793 Ry

     iteration # 26     ecut=    30.00 Ry     beta=0.70
     Davidson diagonalization with overlap
     ethr =  8.65E-03,  avg # of iterations =  1.0

     total cpu time spent up to now is        5.7 secs

     total energy              =     -31.52986780 Ry
     Harris-Foulkes estimate   =     -31.58059681 Ry
     estimated scf accuracy    <       0.46394847 Ry

     iteration # 27     ecut=    30.00 Ry     beta=0.70
     Davidson diagonalization with overlap
     ethr =  5.80E-03,  avg # of iterations =  1.0

     negative rho (up, down):  1.428E-08 0.000E+00

     total cpu time spent up to now is        5.8 secs

     total energy              =     -31.54167701 Ry
     Harris-Foulkes estimate   =     -31.57342679 Ry
     estimated scf accuracy    <       1.61569411 Ry

     iteration # 28     ecut=    30.00 Ry     beta=0.70
     Davidson diagonalization with overlap
     ethr =  5.80E-03,  avg # of iterations =  1.0

     negative rho (up, down):  4.330E-08 0.000E+00

     total cpu time spent up to now is        5.8 secs

     total energy              =     -31.54998233 Ry
     Harris-Foulkes estimate   =     -31.55143784 Ry
     estimated scf accuracy    <       0.16977790 Ry

     iteration # 29     ecut=    30.00 Ry     beta=0.70
     Davidson diagonalization with overlap
     ethr =  2.12E-03,  avg # of iterations =  1.0

     negative rho (up, down):  3.444E-07 0.000E+00

     total cpu time spent up to now is        5.9 secs

     total energy              =     -31.54919121 Ry
     Harris-Foulkes estimate   =     -31.55025753 Ry
     estimated scf accuracy    <       0.06987935 Ry

     iteration # 30     ecut=    30.00 Ry     beta=0.70
     Davidson diagonalization with overlap
     ethr =  8.73E-04,  avg # of iterations =  1.0

     negative rho (up, down):  3.207E-07 0.000E+00

     total cpu time spent up to now is        5.9 secs

     total energy              =     -31.54938083 Ry
     Harris-Foulkes estimate   =     -31.54969012 Ry
     estimated scf accuracy    <       0.01162894 Ry

     iteration # 31     ecut=    30.00 Ry     beta=0.70
     Davidson diagonalization with overlap
     ethr =  1.45E-04,  avg # of iterations =  1.0

     negative rho (up, down):  3.028E-07 0.000E+00

     total cpu time spent up to now is        6.0 secs

     total energy              =     -31.54944024 Ry
     Harris-Foulkes estimate   =     -31.54942358 Ry
     estimated scf accuracy    <       0.00726773 Ry

     iteration # 32     ecut=    30.00 Ry     beta=0.70
     Davidson diagonalization with overlap
     ethr =  9.08E-05,  avg # of iterations =  1.0

     negative rho (up, down):  1.724E-07 0.000E+00

     total cpu time spent up to now is        6.0 secs

     total energy              =     -31.54943083 Ry
     Harris-Foulkes estimate   =     -31.54954132 Ry
     estimated scf accuracy    <       0.00973937 Ry

     iteration # 33     ecut=    30.00 Ry     beta=0.70
     Davidson diagonalization with overlap
     ethr =  9.08E-05,  avg # of iterations =  1.0

     negative rho (up, down):  1.461E-06 0.000E+00

     total cpu time spent up to now is        6.1 secs

     total energy              =     -31.54837656 Ry
     Harris-Foulkes estimate   =     -31.54944734 Ry
     estimated scf accuracy    <       0.00789537 Ry

     iteration # 34     ecut=    30.00 Ry     beta=0.70
     Davidson diagonalization with overlap
     ethr =  9.08E-05,  avg # of iterations =  1.0

     negative rho (up, down):  1.542E-08 0.000E+00

     total cpu time spent up to now is        6.1 secs

     total energy              =     -31.54894531 Ry
     Harris-Foulkes estimate   =     -31.54919555 Ry
     estimated scf accuracy    <       0.00775435 Ry

     iteration # 35     ecut=    30.00 Ry     beta=0.70
     Davidson diagonalization with overlap
     ethr =  9.08E-05,  avg # of iterations =  1.0

     total cpu time spent up to now is        6.2 secs

     total energy              =     -31.54903996 Ry
     Harris-Foulkes estimate   =     -31.54904848 Ry
     estimated scf accuracy    <       0.00022017 Ry

     iteration # 36     ecut=    30.00 Ry     beta=0.70
     Davidson diagonalization with overlap
     ethr =  2.75E-06,  avg # of iterations = 10.0

     total cpu time spent up to now is        6.2 secs

     total energy              =     -31.54904430 Ry
     Harris-Foulkes estimate   =     -31.54904525 Ry
     estimated scf accuracy    <       0.00002540 Ry

     iteration # 37     ecut=    30.00 Ry     beta=0.70
     Davidson diagonalization with overlap
     ethr =  3.18E-07,  avg # of iterations =  1.0

     total cpu time spent up to now is        6.3 secs

     total energy              =     -31.54904466 Ry
     Harris-Foulkes estimate   =     -31.54904468 Ry
     estimated scf accuracy    <       0.00000006 Ry

     iteration # 38     ecut=    30.00 Ry     beta=0.70
     Davidson diagonalization with overlap
     ethr =  7.85E-10,  avg # of iterations =  2.0

     total cpu time spent up to now is        6.3 secs

     End of self-consistent calculation

          k = 0.0000 0.0000 0.0000 ( 22119 PWs)   bands (ev):

   -23.6421  -7.6202  -6.9836  -6.9830  -6.8587  -6.4952  -0.1579   0.6587

     the Fermi energy is    -6.8259 ev

!    total energy              =     -31.54904467 Ry
     Harris-Foulkes estimate   =     -31.54904467 Ry
     estimated scf accuracy    <          9.0E-09 Ry

     convergence has been achieved in  38 iterations

     Forces acting on atoms (Ry/au):

     atom    1 type  2   force =    -0.01685067    0.04296159    0.02504446
     atom    2 type  1   force =    -0.00075583   -0.00009839    0.00034573
     atom    3 type  1   force =     0.01760650   -0.04286320   -0.02539019

     Total force =     0.074495     Total SCF correction =     0.000011

     Entering Dynamics:    iteration =     3
                           time      =   0.0145 pico-seconds


     Andersen thermostat:    3 collisions

ATOMIC_POSITIONS (bohr)
O        4.171127448   3.370383613   4.718020558
H       16.493075736  14.746702677   5.593564991
H        2.752069903   6.720801549   6.664319786


     kinetic energy (Ekin) =     0.02664961 Ry
     temperature           =  1402.54526763 K 
     Ekin + Etot (const)   =   -31.52239506 Ry
     Message from routine dynamics:
     Total linear momentum <> 0

     Linear momentum :    0.3679424336   -0.4059240373    0.0655390169

     Writing output data file pwscf.save

     second order wave-functions extrapolation
     Check: negative starting charge=   -0.342437
     second order charge density extrapolation
     Check: negative starting charge=   -0.342618

     negative rho (up, down):  8.832E-02 0.000E+00

     total cpu time spent up to now is        6.8 secs

     per-process dynamical memory:    20.4 Mb

     Self-consistent Calculation

     iteration #  1     ecut=    30.00 Ry     beta=0.70
     Davidson diagonalization with overlap
     c_bands:  1 eigenvalues not converged
     ethr =  1.00E-06,  avg # of iterations = 20.0

     negative rho (up, down):  2.162E-02 0.000E+00

     total cpu time spent up to now is        7.0 secs

     total energy              =     -31.16203063 Ry
     Harris-Foulkes estimate   =     -31.68262764 Ry
     estimated scf accuracy    <       0.52759451 Ry

     iteration #  2     ecut=    30.00 Ry     beta=0.70
     Davidson diagonalization with overlap
     ethr =  6.59E-03,  avg # of iterations =  3.0

     negative rho (up, down):  1.531E-03 0.000E+00

     total cpu time spent up to now is        7.0 secs

     total energy              =     -30.40552359 Ry
     Harris-Foulkes estimate   =     -32.90198732 Ry
     estimated scf accuracy    <      11.94459165 Ry

     iteration #  3     ecut=    30.00 Ry     beta=0.70
     Davidson diagonalization with overlap
     ethr =  6.59E-03,  avg # of iterations =  2.0

     negative rho (up, down):  1.432E-03 0.000E+00

     total cpu time spent up to now is        7.1 secs

     total energy              =     -31.50419378 Ry
     Harris-Foulkes estimate   =     -31.52904967 Ry
     estimated scf accuracy    <       0.88457751 Ry

     iteration #  4     ecut=    30.00 Ry     beta=0.70
     Davidson diagonalization with overlap
     ethr =  6.59E-03,  avg # of iterations =  3.0

     negative rho (up, down):  7.776E-04 0.000E+00

     total cpu time spent up to now is        7.1 secs

     total energy              =     -29.21564419 Ry
     Harris-Foulkes estimate   =     -33.52158807 Ry
     estimated scf accuracy    <       3.12636835 Ry

     iteration #  5     ecut=    30.00 Ry     beta=0.70
     Davidson diagonalization with overlap
     ethr =  6.59E-03,  avg # of iterations =  3.0

     negative rho (up, down):  6.653E-04 0.000E+00

     total cpu time spent up to now is        7.2 secs

     total energy              =     -31.62840013 Ry
     Harris-Foulkes estimate   =     -31.67072630 Ry
     estimated scf accuracy    <       0.52200262 Ry

     iteration #  6     ecut=    30.00 Ry     beta=0.70
     Davidson diagonalization with overlap
     ethr =  6.53E-03,  avg # of iterations =  1.0

     negative rho (up, down):  4.374E-03 0.000E+00

     total cpu time spent up to now is        7.2 secs

     total energy              =     -31.61745485 Ry
     Harris-Foulkes estimate   =     -31.65327146 Ry
     estimated scf accuracy    <       1.12097788 Ry

     iteration #  7     ecut=    30.00 Ry     beta=0.70
     Davidson diagonalization with overlap
     ethr =  6.53E-03,  avg # of iterations =  1.0

     negative rho (up, down):  2.589E-02 0.000E+00

     total cpu time spent up to now is        7.3 secs

     total energy              =     -31.59860541 Ry
     Harris-Foulkes estimate   =     -31.62557791 Ry
     estimated scf accuracy    <       0.18517733 Ry

     iteration #  8     ecut=    30.00 Ry     beta=0.70
     Davidson diagonalization with overlap
     ethr =  2.31E-03,  avg # of iterations =  1.0

     negative rho (up, down):  4.201E-03 0.000E+00

     total cpu time spent up to now is        7.3 secs

     total energy              =     -31.62063037 Ry
     Harris-Foulkes estimate   =     -31.61877805 Ry
     estimated scf accuracy    <       0.19981270 Ry

     iteration #  9     ecut=    30.00 Ry     beta=0.70
     Davidson diagonalization with overlap
     ethr =  2.31E-03,  avg # of iterations =  1.0

     negative rho (up, down):  7.530E-05 0.000E+00

     total cpu time spent up to now is        7.4 secs

     total energy              =     -31.62365073 Ry
     Harris-Foulkes estimate   =     -31.62359444 Ry
     estimated scf accuracy    <       0.00445339 Ry

     iteration # 10     ecut=    30.00 Ry     beta=0.70
     Davidson diagonalization with overlap
     ethr =  5.57E-05,  avg # of iterations = 11.0

     total cpu time spent up to now is        7.5 secs

     total energy              =     -31.62384833 Ry
     Harris-Foulkes estimate   =     -31.62380028 Ry
     estimated scf accuracy    <       0.00048104 Ry

     iteration # 11     ecut=    30.00 Ry     beta=0.70
     Davidson diagonalization with overlap
     ethr =  6.01E-06,  avg # of iterations = 11.0

     negative rho (up, down):  2.585E-06 0.000E+00

     total cpu time spent up to now is        7.5 secs

     total energy              =     -31.62382066 Ry
     Harris-Foulkes estimate   =     -31.62385630 Ry
     estimated scf accuracy    <       0.00139979 Ry

     iteration # 12     ecut=    30.00 Ry     beta=0.70
     Davidson diagonalization with overlap
     ethr =  6.01E-06,  avg # of iterations =  1.0

     negative rho (up, down):  3.394E-07 0.000E+00

     total cpu time spent up to now is        7.6 secs

     total energy              =     -31.62385886 Ry
     Harris-Foulkes estimate   =     -31.62383318 Ry
     estimated scf accuracy    <       0.00040175 Ry

     iteration # 13     ecut=    30.00 Ry     beta=0.70
     Davidson diagonalization with overlap
     ethr =  5.02E-06,  avg # of iterations =  1.0

     total cpu time spent up to now is        7.6 secs

     total energy              =     -31.62391091 Ry
     Harris-Foulkes estimate   =     -31.62386655 Ry
     estimated scf accuracy    <       0.00021383 Ry

     iteration # 14     ecut=    30.00 Ry     beta=0.70
     Davidson diagonalization with overlap
     ethr =  2.67E-06,  avg # of iterations =  1.0

     negative rho (up, down):  9.476E-06 0.000E+00

     total cpu time spent up to now is        7.7 secs

     total energy              =     -31.62391295 Ry
     Harris-Foulkes estimate   =     -31.62391821 Ry
     estimated scf accuracy    <       0.00000793 Ry

     iteration # 15     ecut=    30.00 Ry     beta=0.70
     Davidson diagonalization with overlap
     ethr =  9.91E-08,  avg # of iterations =  1.0

     negative rho (up, down):  1.972E-06 0.000E+00

     total cpu time spent up to now is        7.7 secs

     total energy              =     -31.62391434 Ry
     Harris-Foulkes estimate   =     -31.62391410 Ry
     estimated scf accuracy    <       0.00002047 Ry

     iteration # 16     ecut=    30.00 Ry     beta=0.70
     Davidson diagonalization with overlap
     ethr =  9.91E-08,  avg # of iterations =  1.0

     negative rho (up, down):  2.339E-08 0.000E+00

     total cpu time spent up to now is        7.8 secs

     total energy              =     -31.62391716 Ry
     Harris-Foulkes estimate   =     -31.62391472 Ry
     estimated scf accuracy    <       0.00000012 Ry

     iteration # 17     ecut=    30.00 Ry     beta=0.70
     Davidson diagonalization with overlap
     ethr =  1.45E-09,  avg # of iterations =  2.0

     total cpu time spent up to now is        7.8 secs

     total energy              =     -31.62391756 Ry
     Harris-Foulkes estimate   =     -31.62391720 Ry
     estimated scf accuracy    <       0.00000006 Ry

     iteration # 18     ecut=    30.00 Ry     beta=0.70
     Davidson diagonalization with overlap
     ethr =  7.16E-10,  avg # of iterations =  1.0

     total cpu time spent up to now is        7.9 secs

     End of self-consistent calculation

          k = 0.0000 0.0000 0.0000 ( 22119 PWs)   bands (ev):

   -23.6071  -8.1173  -6.9269  -6.9263  -6.7921  -5.7719  -0.1344   0.6907

     the Fermi energy is    -6.7579 ev

!    total energy              =     -31.62391793 Ry
     Harris-Foulkes estimate   =     -31.62391757 Ry
     estimated scf accuracy    <          5.9E-09 Ry

     convergence has been achieved in  18 iterations

     Forces acting on atoms (Ry/au):

     atom    1 type  2   force =    -0.03326107    0.08084781    0.04721378
     atom    2 type  1   force =    -0.00063656    0.00020486   -0.00006029
     atom    3 type  1   force =     0.03389763   -0.08105267   -0.04715350

     Total force =     0.140763     Total SCF correction =     0.002829

     Entering Dynamics:    iteration =     4
                           time      =   0.0194 pico-seconds


     Andersen thermostat:    3 collisions

ATOMIC_POSITIONS (bohr)
O        4.115839509   3.406468574   4.773021482
H       16.379842158  14.511464045   5.388397828
H        3.741152031   6.384397227   5.998185182


     kinetic energy (Ekin) =     0.04754058 Ry
     temperature           =  2502.01809427 K 
     Ekin + Etot (const)   =   -31.57637735 Ry
     Message from routine dynamics:
     Total linear momentum <> 0

     Linear momentum :    0.2868737536    0.0527050046   -0.2617939527

     Writing output data file pwscf.save

     second order wave-functions extrapolation
     Check: negative starting charge=   -0.342618
     second order charge density extrapolation
     Check: negative starting charge=   -0.345850

     negative rho (up, down):  1.703E-01 0.000E+00

     total cpu time spent up to now is        8.4 secs

     per-process dynamical memory:    20.4 Mb

     Self-consistent Calculation

     iteration #  1     ecut=    30.00 Ry     beta=0.70
     Davidson diagonalization with overlap
     ethr =  1.00E-06,  avg # of iterations =  9.0

     negative rho (up, down):  3.145E-02 0.000E+00

     total cpu time spent up to now is        8.5 secs

     total energy              =      -0.66352488 Ry
     Harris-Foulkes estimate   =     -39.65432276 Ry
     estimated scf accuracy    <      14.36073651 Ry

     iteration #  2     ecut=    30.00 Ry     beta=0.70
     Davidson diagonalization with overlap
     ethr =  1.00E-02,  avg # of iterations =  4.0

     negative rho (up, down):  2.017E-02 0.000E+00

     total cpu time spent up to now is        8.6 secs

     total energy              =     -32.76654194 Ry
     Harris-Foulkes estimate   =     -40.44846632 Ry
     estimated scf accuracy    <      15.08690972 Ry

     iteration #  3     ecut=    30.00 Ry     beta=0.70
     Davidson diagonalization with overlap
     ethr =  1.00E-02,  avg # of iterations =  2.0

     negative rho (up, down):  1.589E-02 0.000E+00

     total cpu time spent up to now is        8.7 secs

     total energy              =     -33.04225977 Ry
     Harris-Foulkes estimate   =     -34.52781615 Ry
     estimated scf accuracy    <       5.37867559 Ry

     iteration #  4     ecut=    30.00 Ry     beta=0.70
     Davidson diagonalization with overlap
     ethr =  1.00E-02,  avg # of iterations =  1.0

     negative rho (up, down):  1.148E-02 0.000E+00

     total cpu time spent up to now is        8.8 secs

     total energy              =     -32.15279681 Ry
     Harris-Foulkes estimate   =     -33.23578767 Ry
     estimated scf accuracy    <       4.13171552 Ry

     iteration #  5     ecut=    30.00 Ry     beta=0.70
     Davidson diagonalization with overlap
     ethr =  1.00E-02,  avg # of iterations =  1.0

     negative rho (up, down):  1.036E-02 0.000E+00

     total cpu time spent up to now is        8.8 secs

     total energy              =     -32.36337612 Ry
     Harris-Foulkes estimate   =     -32.56221760 Ry
     estimated scf accuracy    <       2.32388633 Ry

     iteration #  6     ecut=    30.00 Ry     beta=0.70
     Davidson diagonalization with overlap
     ethr =  1.00E-02,  avg # of iterations =  1.0

     negative rho (up, down):  6.909E-03 0.000E+00

     total cpu time spent up to now is        8.9 secs

     total energy              =     -31.84889602 Ry
     Harris-Foulkes estimate   =     -32.36983611 Ry
     estimated scf accuracy    <       2.01787978 Ry

     iteration #  7     ecut=    30.00 Ry     beta=0.70
     Davidson diagonalization with overlap
     ethr =  1.00E-02,  avg # of iterations =  1.0

     negative rho (up, down):  5.006E-03 0.000E+00

     total cpu time spent up to now is        8.9 secs

     total energy              =     -31.86928519 Ry
     Harris-Foulkes estimate   =     -32.05810222 Ry
     estimated scf accuracy    <       2.07434974 Ry

     iteration #  8     ecut=    30.00 Ry     beta=0.70
     Davidson diagonalization with overlap
     ethr =  1.00E-02,  avg # of iterations =  2.0

     negative rho (up, down):  5.525E-03 0.000E+00

     total cpu time spent up to now is        9.0 secs

     total energy              =     -31.88514697 Ry
     Harris-Foulkes estimate   =     -31.88456765 Ry
     estimated scf accuracy    <       1.49289020 Ry

     iteration #  9     ecut=    30.00 Ry     beta=0.70
     Davidson diagonalization with overlap
     ethr =  1.00E-02,  avg # of iterations =  1.0

     negative rho (up, down):  3.968E-03 0.000E+00

     total cpu time spent up to now is        9.0 secs

     total energy              =     -31.74377967 Ry
     Harris-Foulkes estimate   =     -31.88866630 Ry
     estimated scf accuracy    <       1.25674417 Ry

     iteration # 10     ecut=    30.00 Ry     beta=0.70
     Davidson diagonalization with overlap
     ethr =  1.00E-02,  avg # of iterations =  1.0

     negative rho (up, down):  8.347E-04 0.000E+00

     total cpu time spent up to now is        9.1 secs

     total energy              =     -31.99943311 Ry
     Harris-Foulkes estimate   =     -31.83533994 Ry
     estimated scf accuracy    <       1.56600609 Ry

     iteration # 11     ecut=    30.00 Ry     beta=0.70
     Davidson diagonalization with overlap
     ethr =  1.00E-02,  avg # of iterations =  1.0

     negative rho (up, down):  3.447E-04 0.000E+00

     total cpu time spent up to now is        9.1 secs

     total energy              =     -32.39970811 Ry
     Harris-Foulkes estimate   =     -32.09718268 Ry
     estimated scf accuracy    <       2.49267547 Ry

     iteration # 12     ecut=    30.00 Ry     beta=0.70
     Davidson diagonalization with overlap
     ethr =  1.00E-02,  avg # of iterations =  1.0

     negative rho (up, down):  1.950E-03 0.000E+00

     total cpu time spent up to now is        9.2 secs

     total energy              =     -32.46563366 Ry
     Harris-Foulkes estimate   =     -32.40863892 Ry
     estimated scf accuracy    <       3.18607413 Ry

     iteration # 13     ecut=    30.00 Ry     beta=0.70
     Davidson diagonalization with overlap
     ethr =  1.00E-02,  avg # of iterations =  1.0

     negative rho (up, down):  2.754E-02 0.000E+00

     total cpu time spent up to now is        9.3 secs

     total energy              =     -32.40067632 Ry
     Harris-Foulkes estimate   =     -32.46650364 Ry
     estimated scf accuracy    <       3.27005882 Ry

     iteration # 14     ecut=    30.00 Ry     beta=0.70
     Davidson diagonalization with overlap
     ethr =  1.00E-02,  avg # of iterations =  1.0

     negative rho (up, down):  5.884E-02 0.000E+00

     total cpu time spent up to now is        9.3 secs

     total energy              =     -32.54509402 Ry
     Harris-Foulkes estimate   =     -32.43531072 Ry
     estimated scf accuracy    <       2.57493355 Ry

     iteration # 15     ecut=    30.00 Ry     beta=0.70
     Davidson diagonalization with overlap
     ethr =  1.00E-02,  avg # of iterations =  1.0

     negative rho (up, down):  1.298E-01 0.000E+00

     total cpu time spent up to now is        9.4 secs

     total energy              =     -32.77983532 Ry
     Harris-Foulkes estimate   =     -32.54647052 Ry
     estimated scf accuracy    <       2.74293897 Ry

     iteration # 16     ecut=    30.00 Ry     beta=0.70
     Davidson diagonalization with overlap
     ethr =  1.00E-02,  avg # of iterations =  1.0

     negative rho (up, down):  1.492E-01 0.000E+00

     total cpu time spent up to now is        9.4 secs

     total energy              =     -32.84699460 Ry
     Harris-Foulkes estimate   =     -32.78429909 Ry
     estimated scf accuracy    <       3.21487400 Ry

     iteration # 17     ecut=    30.00 Ry     beta=0.70
     Davidson diagonalization with overlap
     ethr =  1.00E-02,  avg # of iterations =  1.0

     negative rho (up, down):  1.277E-01 0.000E+00

     total cpu time spent up to now is        9.5 secs

     total energy              =     -32.83212750 Ry
     Harris-Foulkes estimate   =     -32.85026670 Ry
     estimated scf accuracy    <       3.39259975 Ry

     iteration # 18     ecut=    30.00 Ry     beta=0.70
     Davidson diagonalization with overlap
     ethr =  1.00E-02,  avg # of iterations =  1.0

     negative rho (up, down):  1.430E-01 0.000E+00

     total cpu time spent up to now is        9.5 secs

     total energy              =     -30.60839727 Ry
     Harris-Foulkes estimate   =     -32.83454952 Ry
     estimated scf accuracy    <       3.33659328 Ry

     iteration # 19     ecut=    30.00 Ry     beta=0.70
     Davidson diagonalization with overlap
     ethr =  1.00E-02,  avg # of iterations =  3.0

     negative rho (up, down):  1.944E-02 0.000E+00

     total cpu time spent up to now is        9.6 secs

     total energy              =     -31.87391916 Ry
     Harris-Foulkes estimate   =     -33.33969616 Ry
     estimated scf accuracy    <       3.45118876 Ry

     iteration # 20     ecut=    30.00 Ry     beta=0.70
     Davidson diagonalization with overlap
     ethr =  1.00E-02,  avg # of iterations =  4.0

     negative rho (up, down):  3.692E-03 0.000E+00

     total cpu time spent up to now is        9.6 secs

     total energy              =     -31.64932830 Ry
     Harris-Foulkes estimate   =     -31.92060681 Ry
     estimated scf accuracy    <       1.16625442 Ry

     iteration # 21     ecut=    30.00 Ry     beta=0.70
     Davidson diagonalization with overlap
     ethr =  1.00E-02,  avg # of iterations =  2.0

     negative rho (up, down):  6.805E-03 0.000E+00

     total cpu time spent up to now is        9.7 secs

     total energy              =     -31.50869364 Ry
     Harris-Foulkes estimate   =     -31.82991734 Ry
     estimated scf accuracy    <       1.29593851 Ry

     iteration # 22     ecut=    30.00 Ry     beta=0.70
     Davidson diagonalization with overlap
     ethr =  1.00E-02,  avg # of iterations =  1.0

     negative rho (up, down):  2.395E-03 0.000E+00

     total cpu time spent up to now is        9.7 secs

     total energy              =     -31.78457440 Ry
     Harris-Foulkes estimate   =     -31.96469117 Ry
     estimated scf accuracy    <       1.24693151 Ry

     iteration # 23     ecut=    30.00 Ry     beta=0.70
     Davidson diagonalization with overlap
     ethr =  1.00E-02,  avg # of iterations =  1.0

     negative rho (up, down):  1.051E-03 0.000E+00

     total cpu time spent up to now is        9.8 secs

     total energy              =     -31.71351440 Ry
     Harris-Foulkes estimate   =     -31.78587570 Ry
     estimated scf accuracy    <       0.97214396 Ry

     iteration # 24     ecut=    30.00 Ry     beta=0.70
     Davidson diagonalization with overlap
     ethr =  1.00E-02,  avg # of iterations =  1.0

     negative rho (up, down):  1.770E-03 0.000E+00

     total cpu time spent up to now is        9.8 secs

     total energy              =     -31.66864886 Ry
     Harris-Foulkes estimate   =     -31.75336656 Ry
     estimated scf accuracy    <       0.54908883 Ry

     iteration # 25     ecut=    30.00 Ry     beta=0.70
     Davidson diagonalization with overlap
     ethr =  6.86E-03,  avg # of iterations =  1.0

     negative rho (up, down):  5.175E-07 0.000E+00

     total cpu time spent up to now is        9.9 secs

     total energy              =     -31.72063804 Ry
     Harris-Foulkes estimate   =     -31.83219676 Ry
     estimated scf accuracy    <       1.05040680 Ry

     iteration # 26     ecut=    30.00 Ry     beta=0.70
     Davidson diagonalization with overlap
     ethr =  6.86E-03,  avg # of iterations =  1.0

     negative rho (up, down):  4.507E-07 0.000E+00

     total cpu time spent up to now is        9.9 secs

     total energy              =     -31.73798763 Ry
     Harris-Foulkes estimate   =     -31.74867268 Ry
     estimated scf accuracy    <       0.18113539 Ry

     iteration # 27     ecut=    30.00 Ry     beta=0.70
     Davidson diagonalization with overlap
     ethr =  2.26E-03,  avg # of iterations =  1.0

     total cpu time spent up to now is       10.0 secs

     total energy              =     -31.75660871 Ry
     Harris-Foulkes estimate   =     -31.75052464 Ry
     estimated scf accuracy    <       0.26631482 Ry

     iteration # 28     ecut=    30.00 Ry     beta=0.70
     Davidson diagonalization with overlap
     ethr =  2.26E-03,  avg # of iterations =  1.0

     total cpu time spent up to now is       10.0 secs

     total energy              =     -31.75295166 Ry
     Harris-Foulkes estimate   =     -31.75826921 Ry
     estimated scf accuracy    <       0.61591447 Ry

     iteration # 29     ecut=    30.00 Ry     beta=0.70
     Davidson diagonalization with overlap
     ethr =  2.26E-03,  avg # of iterations =  1.0

     total cpu time spent up to now is       10.1 secs

     total energy              =     -31.74865757 Ry
     Harris-Foulkes estimate   =     -31.75338562 Ry
     estimated scf accuracy    <       0.41620917 Ry

     iteration # 30     ecut=    30.00 Ry     beta=0.70
     Davidson diagonalization with overlap
     ethr =  2.26E-03,  avg # of iterations =  1.0

     total cpu time spent up to now is       10.1 secs

     total energy              =     -31.74398602 Ry
     Harris-Foulkes estimate   =     -31.74935090 Ry
     estimated scf accuracy    <       0.19656426 Ry

     iteration # 31     ecut=    30.00 Ry     beta=0.70
     Davidson diagonalization with overlap
     ethr =  2.26E-03,  avg # of iterations =  1.0

     total cpu time spent up to now is       10.1 secs

     total energy              =     -31.74643874 Ry
     Harris-Foulkes estimate   =     -31.74647223 Ry
     estimated scf accuracy    <       0.00012310 Ry

     iteration # 32     ecut=    30.00 Ry     beta=0.70
     Davidson diagonalization with overlap
     ethr =  1.54E-06,  avg # of iterations = 16.0

     total cpu time spent up to now is       10.2 secs

     total energy              =     -31.74647765 Ry
     Harris-Foulkes estimate   =     -31.74664953 Ry
     estimated scf accuracy    <       0.01434925 Ry

     iteration # 33     ecut=    30.00 Ry     beta=0.70
     Davidson diagonalization with overlap
     ethr =  1.54E-06,  avg # of iterations =  1.0

     total cpu time spent up to now is       10.3 secs

     total energy              =     -31.74637810 Ry
     Harris-Foulkes estimate   =     -31.74651791 Ry
     estimated scf accuracy    <       0.00393788 Ry

     iteration # 34     ecut=    30.00 Ry     beta=0.70
     Davidson diagonalization with overlap
     ethr =  1.54E-06,  avg # of iterations =  1.0

     total cpu time spent up to now is       10.3 secs

     total energy              =     -31.74646539 Ry
     Harris-Foulkes estimate   =     -31.74647632 Ry
     estimated scf accuracy    <       0.00066507 Ry

     iteration # 35     ecut=    30.00 Ry     beta=0.70
     Davidson diagonalization with overlap
     ethr =  1.54E-06,  avg # of iterations =  1.0

     total cpu time spent up to now is       10.4 secs

     total energy              =     -31.74646730 Ry
     Harris-Foulkes estimate   =     -31.74646896 Ry
     estimated scf accuracy    <       0.00008179 Ry

     iteration # 36     ecut=    30.00 Ry     beta=0.70
     Davidson diagonalization with overlap
     ethr =  1.02E-06,  avg # of iterations =  1.0

     total cpu time spent up to now is       10.4 secs

     total energy              =     -31.74646795 Ry
     Harris-Foulkes estimate   =     -31.74646797 Ry
     estimated scf accuracy    <       0.00000307 Ry

     iteration # 37     ecut=    30.00 Ry     beta=0.70
     Davidson diagonalization with overlap
     ethr =  3.84E-08,  avg # of iterations =  1.0

     total cpu time spent up to now is       10.5 secs

     total energy              =     -31.74646791 Ry
     Harris-Foulkes estimate   =     -31.74646796 Ry
     estimated scf accuracy    <       0.00000091 Ry

     iteration # 38     ecut=    30.00 Ry     beta=0.70
     Davidson diagonalization with overlap
     ethr =  1.14E-08,  avg # of iterations =  1.0

     total cpu time spent up to now is       10.5 secs

     total energy              =     -31.74646792 Ry
     Harris-Foulkes estimate   =     -31.74646793 Ry
     estimated scf accuracy    <       0.00000018 Ry

     iteration # 39     ecut=    30.00 Ry     beta=0.70
     Davidson diagonalization with overlap
     ethr =  2.20E-09,  avg # of iterations =  1.0

     total cpu time spent up to now is       10.6 secs

     total energy              =     -31.74646792 Ry
     Harris-Foulkes estimate   =     -31.74646792 Ry
     estimated scf accuracy    <       0.00000002 Ry

     iteration # 40     ecut=    30.00 Ry     beta=0.70
     Davidson diagonalization with overlap
     ethr =  2.06E-10,  avg # of iterations =  1.0

     total cpu time spent up to now is       10.6 secs

     End of self-consistent calculation

          k = 0.0000 0.0000 0.0000 ( 22119 PWs)   bands (ev):

   -23.6262  -8.8574  -6.9136  -6.9133  -6.7790  -4.1486  -0.0912   0.8022

     the Fermi energy is    -6.7448 ev

!    total energy              =     -31.74646792 Ry
     Harris-Foulkes estimate   =     -31.74646792 Ry
     estimated scf accuracy    <          9.3E-11 Ry

     convergence has been achieved in  40 iterations

     Forces acting on atoms (Ry/au):

     atom    1 type  2   force =    -0.02073284    0.15787867    0.06550838
     atom    2 type  1   force =     0.00055139   -0.00019528   -0.00048848
     atom    3 type  1   force =     0.02018145   -0.15768338   -0.06501989

     Total force =     0.243200     Total SCF correction =     0.000001

     Entering Dynamics:    iteration =     5
                           time      =   0.0242 pico-seconds


     Andersen thermostat:    3 collisions

ATOMIC_POSITIONS (bohr)
O        4.100695125   3.515628437   4.851938280
H       15.942910947  14.659330695   5.033779318
H        4.417994279   4.507265426   5.102636592


     kinetic energy (Ekin) =     0.09807919 Ry
     temperature           =  5161.82022408 K 
     Ekin + Etot (const)   =   -31.64838873 Ry
     Message from routine dynamics:
     Total linear momentum <> 0

     Linear momentum :   -0.1210900472    0.3090709673    0.1362435771

     Writing output data file pwscf.save

     second order wave-functions extrapolation
     Message from extrapolate_wfcs: 
     the matrix <psi(t-dt)|psi(t)> has  1 small (< 0.1) eigenvalues
     Check: negative starting charge=   -0.345850
     second order charge density extrapolation
     Check: negative starting charge=   -0.354771

     negative rho (up, down):  5.405E-01 0.000E+00

     total cpu time spent up to now is       11.1 secs

     per-process dynamical memory:    20.4 Mb

     Self-consistent Calculation

     iteration #  1     ecut=    30.00 Ry     beta=0.70
     Davidson diagonalization with overlap
     c_bands:  1 eigenvalues not converged
     ethr =  1.00E-06,  avg # of iterations = 20.0

     negative rho (up, down):  8.828E-02 0.000E+00

     total cpu time spent up to now is       11.3 secs

     total energy              =     -25.67366336 Ry
     Harris-Foulkes estimate   =     -32.10827079 Ry
     estimated scf accuracy    <       2.93341914 Ry

     iteration #  2     ecut=    30.00 Ry     beta=0.70
     Davidson diagonalization with overlap
     ethr =  1.00E-02,  avg # of iterations =  4.0

     negative rho (up, down):  6.294E-02 0.000E+00

     total cpu time spent up to now is       11.3 secs

     total energy              =     -31.52470661 Ry
     Harris-Foulkes estimate   =     -34.10416398 Ry
     estimated scf accuracy    <       6.09764708 Ry

     iteration #  3     ecut=    30.00 Ry     beta=0.70
     Davidson diagonalization with overlap
     ethr =  1.00E-02,  avg # of iterations =  2.0

     negative rho (up, down):  3.909E-02 0.000E+00

     total cpu time spent up to now is       11.4 secs

     total energy              =     -30.76237514 Ry
     Harris-Foulkes estimate   =     -31.69507611 Ry
     estimated scf accuracy    <       2.27385911 Ry

     iteration #  4     ecut=    30.00 Ry     beta=0.70
     Davidson diagonalization with overlap
     ethr =  1.00E-02,  avg # of iterations =  4.0

     negative rho (up, down):  2.535E-02 0.000E+00

     total cpu time spent up to now is       11.4 secs

     total energy              =     -30.72013187 Ry
     Harris-Foulkes estimate   =     -30.78627270 Ry
     estimated scf accuracy    <       0.40166641 Ry

     iteration #  5     ecut=    30.00 Ry     beta=0.70
     Davidson diagonalization with overlap
     ethr =  5.02E-03,  avg # of iterations =  1.0

     negative rho (up, down):  2.591E-02 0.000E+00

     total cpu time spent up to now is       11.5 secs

     total energy              =     -30.59536633 Ry
     Harris-Foulkes estimate   =     -30.85046614 Ry
     estimated scf accuracy    <       1.42302226 Ry

     iteration #  6     ecut=    30.00 Ry     beta=0.70
     Davidson diagonalization with overlap
     ethr =  5.02E-03,  avg # of iterations =  1.0

     negative rho (up, down):  3.098E-04 0.000E+00

     total cpu time spent up to now is       11.5 secs

     total energy              =     -30.48907041 Ry
     Harris-Foulkes estimate   =     -30.90305438 Ry
     estimated scf accuracy    <       1.08318203 Ry

     iteration #  7     ecut=    30.00 Ry     beta=0.70
     Davidson diagonalization with overlap
     ethr =  5.02E-03,  avg # of iterations =  2.0

     negative rho (up, down):  4.911E-04 0.000E+00

     total cpu time spent up to now is       11.6 secs

     total energy              =     -31.24105848 Ry
     Harris-Foulkes estimate   =     -31.21789577 Ry
     estimated scf accuracy    <       1.99015679 Ry

     iteration #  8     ecut=    30.00 Ry     beta=0.70
     Davidson diagonalization with overlap
     ethr =  5.02E-03,  avg # of iterations =  1.0

     negative rho (up, down):  3.939E-04 0.000E+00

     total cpu time spent up to now is       11.6 secs

     total energy              =     -31.10877547 Ry
     Harris-Foulkes estimate   =     -31.24210762 Ry
     estimated scf accuracy    <       2.01294132 Ry

     iteration #  9     ecut=    30.00 Ry     beta=0.70
     Davidson diagonalization with overlap
     ethr =  5.02E-03,  avg # of iterations =  1.0

     negative rho (up, down):  1.092E-03 0.000E+00

     total cpu time spent up to now is       11.7 secs

     total energy              =     -30.77460853 Ry
     Harris-Foulkes estimate   =     -31.10958757 Ry
     estimated scf accuracy    <       1.79555474 Ry

     iteration # 10     ecut=    30.00 Ry     beta=0.70
     Davidson diagonalization with overlap
     ethr =  5.02E-03,  avg # of iterations =  1.0

     negative rho (up, down):  3.020E-04 0.000E+00

     total cpu time spent up to now is       11.7 secs

     total energy              =     -30.79867244 Ry
     Harris-Foulkes estimate   =     -30.79109644 Ry
     estimated scf accuracy    <       0.03517935 Ry

     iteration # 11     ecut=    30.00 Ry     beta=0.70
     Davidson diagonalization with overlap
     ethr =  4.40E-04,  avg # of iterations =  1.0

     negative rho (up, down):  2.470E-04 0.000E+00

     total cpu time spent up to now is       11.8 secs

     total energy              =     -30.82711122 Ry
     Harris-Foulkes estimate   =     -30.82789102 Ry
     estimated scf accuracy    <       1.73012720 Ry

     iteration # 12     ecut=    30.00 Ry     beta=0.70
     Davidson diagonalization with overlap
     ethr =  4.40E-04,  avg # of iterations =  1.0

     negative rho (up, down):  3.936E-05 0.000E+00

     total cpu time spent up to now is       11.8 secs

     total energy              =     -30.78848839 Ry
     Harris-Foulkes estimate   =     -30.82712335 Ry
[...]

     total energy              =      97.15576198 Ry
     Harris-Foulkes estimate   =   -1208.99825326 Ry
     estimated scf accuracy    <      55.04210042 Ry

     iteration # 59     ecut=    30.00 Ry     beta=0.70
     Davidson diagonalization with overlap
     ethr =  1.00E-02,  avg # of iterations = 11.0

     negative rho (up, down):  2.134E-01 0.000E+00

     total cpu time spent up to now is       18.5 secs

     total energy              =     -19.39286548 Ry
     Harris-Foulkes estimate   =     -51.89403806 Ry
     estimated scf accuracy    <      16.60079024 Ry

     iteration # 60     ecut=    30.00 Ry     beta=0.70
     Davidson diagonalization with overlap
     ethr =  1.00E-02,  avg # of iterations =  6.0

     negative rho (up, down):  6.823E-02 0.000E+00

     total cpu time spent up to now is       18.6 secs

     total energy              =    -360.23361296 Ry
     Harris-Foulkes estimate   =    -196.74324450 Ry
     estimated scf accuracy    <      43.71617867 Ry

     iteration # 61     ecut=    30.00 Ry     beta=0.70
     Davidson diagonalization with overlap
     ethr =  1.00E-02,  avg # of iterations = 10.0

     negative rho (up, down):  1.671E-01 0.000E+00

     total cpu time spent up to now is       18.7 secs

     total energy              =      35.53129102 Ry
     Harris-Foulkes estimate   =   -4234.49966448 Ry
     estimated scf accuracy    <      13.55126456 Ry

     iteration # 62     ecut=    30.00 Ry     beta=0.70
     Davidson diagonalization with overlap
     ethr =  1.00E-02,  avg # of iterations =  6.0

     negative rho (up, down):  1.455E-01 0.000E+00

     total cpu time spent up to now is       18.7 secs

     total energy              =     -38.29934286 Ry
     Harris-Foulkes estimate   =     -35.79356710 Ry
     estimated scf accuracy    <      10.67417075 Ry

     iteration # 63     ecut=    30.00 Ry     beta=0.70
     Davidson diagonalization with overlap
     ethr =  1.00E-02,  avg # of iterations =  6.0

     negative rho (up, down):  2.141E-01 0.000E+00

     total cpu time spent up to now is       18.8 secs

     total energy              =     -98.76608704 Ry
     Harris-Foulkes estimate   =   -1638.83070358 Ry
     estimated scf accuracy    <       6.92043994 Ry

     iteration # 64     ecut=    30.00 Ry     beta=0.70
     Davidson diagonalization with overlap
     ethr =  1.00E-02,  avg # of iterations =  6.0

     negative rho (up, down):  2.877E-01 0.000E+00

     total cpu time spent up to now is       18.9 secs

     total energy              =      30.87114556 Ry
     Harris-Foulkes estimate   =   -1145.28526558 Ry
     estimated scf accuracy    <      58.98612201 Ry

     iteration # 65     ecut=    30.00 Ry     beta=0.70
     Davidson diagonalization with overlap
     ethr =  1.00E-02,  avg # of iterations =  6.0

     negative rho (up, down):  2.481E-01 0.000E+00

     total cpu time spent up to now is       18.9 secs

     total energy              =      13.26503455 Ry
     Harris-Foulkes estimate   =    -113.19535771 Ry
     estimated scf accuracy    <      18.58252774 Ry

     iteration # 66     ecut=    30.00 Ry     beta=0.70
     Davidson diagonalization with overlap
     ethr =  1.00E-02,  avg # of iterations =  6.0

     negative rho (up, down):  2.190E-01 0.000E+00

     total cpu time spent up to now is       19.0 secs

     total energy              =    -350.88324867 Ry
     Harris-Foulkes estimate   =    -395.80878720 Ry
     estimated scf accuracy    <       7.67860378 Ry

     iteration # 67     ecut=    30.00 Ry     beta=0.70
     Davidson diagonalization with overlap
     ethr =  1.00E-02,  avg # of iterations =  5.0

     negative rho (up, down):  2.344E-01 0.000E+00

     total cpu time spent up to now is       19.1 secs

     total energy              =    -174.97492542 Ry
     Harris-Foulkes estimate   =   -1248.06739618 Ry
     estimated scf accuracy    <      31.46071478 Ry

     iteration # 68     ecut=    30.00 Ry     beta=0.70
     Davidson diagonalization with overlap
     ethr =  1.00E-02,  avg # of iterations = 13.0

     negative rho (up, down):  3.105E-01 0.000E+00

     total cpu time spent up to now is       19.2 secs

     total energy              =     -17.55122236 Ry
     Harris-Foulkes estimate   =    -578.61415441 Ry
     estimated scf accuracy    <      12.26384122 Ry

     iteration # 69     ecut=    30.00 Ry     beta=0.70
     Davidson diagonalization with overlap
     ethr =  1.00E-02,  avg # of iterations =  9.0

     negative rho (up, down):  2.068E-01 0.000E+00

     total cpu time spent up to now is       19.3 secs

     total energy              =      90.61838748 Ry
     Harris-Foulkes estimate   =    -365.50278611 Ry
     estimated scf accuracy    <      51.81570092 Ry

     iteration # 70     ecut=    30.00 Ry     beta=0.70
     Davidson diagonalization with overlap
     ethr =  1.00E-02,  avg # of iterations = 11.0

     negative rho (up, down):  1.831E-01 0.000E+00

     total cpu time spent up to now is       19.3 secs

     total energy              =      40.10247550 Ry
     Harris-Foulkes estimate   =    -139.61465485 Ry
     estimated scf accuracy    <      31.12606769 Ry

     iteration # 71     ecut=    30.00 Ry     beta=0.70
     Davidson diagonalization with overlap
     ethr =  1.00E-02,  avg # of iterations =  7.0

     negative rho (up, down):  4.104E-01 0.000E+00

     total cpu time spent up to now is       19.4 secs

     total energy              =      92.95378608 Ry
     Harris-Foulkes estimate   =    -866.65708173 Ry
     estimated scf accuracy    <      55.53537523 Ry

     iteration # 72     ecut=    30.00 Ry     beta=0.70
     Davidson diagonalization with overlap
     ethr =  1.00E-02,  avg # of iterations = 11.0

     negative rho (up, down):  4.016E-01 0.000E+00

     total cpu time spent up to now is       19.5 secs

     total energy              =     -10.87261058 Ry
     Harris-Foulkes estimate   =   -2926.86715499 Ry
     estimated scf accuracy    <      15.50320552 Ry

     iteration # 73     ecut=    30.00 Ry     beta=0.70
     Davidson diagonalization with overlap
     ethr =  1.00E-02,  avg # of iterations =  7.0

     negative rho (up, down):  2.628E-01 0.000E+00

     total cpu time spent up to now is       19.6 secs

     total energy              =      63.45273182 Ry
     Harris-Foulkes estimate   =   -2271.89419697 Ry
     estimated scf accuracy    <      25.23334671 Ry

     iteration # 74     ecut=    30.00 Ry     beta=0.70
     Davidson diagonalization with overlap
     ethr =  1.00E-02,  avg # of iterations =  7.0

     negative rho (up, down):  5.274E-01 0.000E+00

     total cpu time spent up to now is       19.7 secs

     total energy              =     -34.31786431 Ry
     Harris-Foulkes estimate   =   -3345.60482013 Ry
     estimated scf accuracy    <      48.15884966 Ry

     iteration # 75     ecut=    30.00 Ry     beta=0.70
     Davidson diagonalization with overlap
     ethr =  1.00E-02,  avg # of iterations = 11.0

     negative rho (up, down):  9.856E-01 0.000E+00

     total cpu time spent up to now is       19.8 secs

     total energy              =      31.97033635 Ry
     Harris-Foulkes estimate   =   -1115.23698120 Ry
     estimated scf accuracy    <      47.97975164 Ry

     iteration # 76     ecut=    30.00 Ry     beta=0.70
     Davidson diagonalization with overlap
     ethr =  1.00E-02,  avg # of iterations = 10.0

     negative rho (up, down):  1.263E+00 0.000E+00

     total cpu time spent up to now is       19.9 secs

     total energy              =    -298.87103086 Ry
     Harris-Foulkes estimate   =    -682.57033851 Ry
     estimated scf accuracy    <      37.92837243 Ry

     iteration # 77     ecut=    30.00 Ry     beta=0.70
     Davidson diagonalization with overlap
     ethr =  1.00E-02,  avg # of iterations =  9.0

     negative rho (up, down):  1.266E+00 0.000E+00

     total cpu time spent up to now is       20.0 secs

     total energy              =      43.62387683 Ry
     Harris-Foulkes estimate   =  -15825.50564619 Ry
     estimated scf accuracy    <      41.69768797 Ry

     iteration # 78     ecut=    30.00 Ry     beta=0.70
     Davidson diagonalization with overlap
     ethr =  1.00E-02,  avg # of iterations =  8.0

     negative rho (up, down):  4.304E-01 0.000E+00

     total cpu time spent up to now is       20.0 secs

     total energy              =      95.97877491 Ry
     Harris-Foulkes estimate   =   -2294.17627201 Ry
     estimated scf accuracy    <      39.52333252 Ry

     iteration # 79     ecut=    30.00 Ry     beta=0.70
     Davidson diagonalization with overlap
     ethr =  1.00E-02,  avg # of iterations =  7.0

     negative rho (up, down):  7.958E-01 0.000E+00

     total cpu time spent up to now is       20.1 secs

     total energy              =      65.06804233 Ry
     Harris-Foulkes estimate   =    -466.37775240 Ry
     estimated scf accuracy    <      29.90028728 Ry

     iteration # 80     ecut=    30.00 Ry     beta=0.70
     Davidson diagonalization with overlap
     ethr =  1.00E-02,  avg # of iterations =  9.0

     negative rho (up, down):  6.986E-01 0.000E+00

     total cpu time spent up to now is       20.2 secs

     total energy              =    -571.25780596 Ry
     Harris-Foulkes estimate   =    -810.69301441 Ry
     estimated scf accuracy    <      31.63893198 Ry

     iteration # 81     ecut=    30.00 Ry     beta=0.70
     Davidson diagonalization with overlap
     ethr =  1.00E-02,  avg # of iterations =  9.0

     negative rho (up, down):  1.079E+00 0.000E+00

     total cpu time spent up to now is       20.3 secs

     total energy              =   -1310.65068250 Ry
     Harris-Foulkes estimate   =   -6508.53207219 Ry
     estimated scf accuracy    <      33.28074284 Ry

     iteration # 82     ecut=    30.00 Ry     beta=0.70
     Davidson diagonalization with overlap
     ethr =  1.00E-02,  avg # of iterations =  5.0

     negative rho (up, down):  1.297E+00 0.000E+00

     total cpu time spent up to now is       20.4 secs

     total energy              =     196.67440506 Ry
     Harris-Foulkes estimate   =  -17041.55515566 Ry
     estimated scf accuracy    <      27.28195135 Ry

     iteration # 83     ecut=    30.00 Ry     beta=0.70
     Davidson diagonalization with overlap
     ethr =  1.00E-02,  avg # of iterations =  8.0

     negative rho (up, down):  2.051E-01 0.000E+00

     total cpu time spent up to now is       20.5 secs

     total energy              =      82.54988045 Ry
     Harris-Foulkes estimate   =  -11745.84776211 Ry
     estimated scf accuracy    <      21.99625148 Ry

     iteration # 84     ecut=    30.00 Ry     beta=0.70
     Davidson diagonalization with overlap
     ethr =  1.00E-02,  avg # of iterations = 11.0

     negative rho (up, down):  4.685E-03 0.000E+00

     total cpu time spent up to now is       20.6 secs

     total energy              =     139.96993715 Ry
     Harris-Foulkes estimate   =   -1732.02844896 Ry
     estimated scf accuracy    <      17.56502933 Ry

     iteration # 85     ecut=    30.00 Ry     beta=0.70
     Davidson diagonalization with overlap
     ethr =  1.00E-02,  avg # of iterations = 11.0

     negative rho (up, down):  4.829E-03 0.000E+00

     total cpu time spent up to now is       20.7 secs

     total energy              =     -12.23997677 Ry
     Harris-Foulkes estimate   =    -180.48032459 Ry
     estimated scf accuracy    <      41.32142539 Ry

     iteration # 86     ecut=    30.00 Ry     beta=0.70
     Davidson diagonalization with overlap
     ethr =  1.00E-02,  avg # of iterations =  6.0

     negative rho (up, down):  1.945E-03 0.000E+00

     total cpu time spent up to now is       20.8 secs

     total energy              =     -59.42768704 Ry
     Harris-Foulkes estimate   =     -61.83612097 Ry
     estimated scf accuracy    <      43.70717520 Ry

     iteration # 87     ecut=    30.00 Ry     beta=0.70
     Davidson diagonalization with overlap
     ethr =  1.00E-02,  avg # of iterations =  1.0

     negative rho (up, down):  6.900E-02 0.000E+00

     total cpu time spent up to now is       20.8 secs

     total energy              =     -52.75049735 Ry
     Harris-Foulkes estimate   =     -59.43338974 Ry
     estimated scf accuracy    <      40.38765315 Ry

     iteration # 88     ecut=    30.00 Ry     beta=0.70
     Davidson diagonalization with overlap
     ethr =  1.00E-02,  avg # of iterations =  4.0

     negative rho (up, down):  1.897E-02 0.000E+00

     total cpu time spent up to now is       20.9 secs

     total energy              =      -6.09457764 Ry
     Harris-Foulkes estimate   =    -321.86347203 Ry
     estimated scf accuracy    <      17.62944166 Ry

     iteration # 89     ecut=    30.00 Ry     beta=0.70
     Davidson diagonalization with overlap
     ethr =  1.00E-02,  avg # of iterations =  8.0

     negative rho (up, down):  6.370E-01 0.000E+00

     total cpu time spent up to now is       20.9 secs

     total energy              =     -46.62777994 Ry
     Harris-Foulkes estimate   =     -55.00900726 Ry
     estimated scf accuracy    <      34.79172147 Ry

     iteration # 90     ecut=    30.00 Ry     beta=0.70
     Davidson diagonalization with overlap
     ethr =  1.00E-02,  avg # of iterations =  7.0

     negative rho (up, down):  7.501E-02 0.000E+00

     total cpu time spent up to now is       21.0 secs

     total energy              =     119.41890464 Ry
     Harris-Foulkes estimate   =   -4573.53278074 Ry
     estimated scf accuracy    <      35.18986732 Ry

     iteration # 91     ecut=    30.00 Ry     beta=0.70
     Davidson diagonalization with overlap
     ethr =  1.00E-02,  avg # of iterations = 13.0

     negative rho (up, down):  3.579E-02 0.000E+00

     total cpu time spent up to now is       21.1 secs

     total energy              =      99.84786010 Ry
     Harris-Foulkes estimate   =    -445.75408776 Ry
     estimated scf accuracy    <      26.21396693 Ry

     iteration # 92     ecut=    30.00 Ry     beta=0.70
     Davidson diagonalization with overlap
     ethr =  1.00E-02,  avg # of iterations =  8.0

     total cpu time spent up to now is       21.2 secs

     total energy              =      34.85089439 Ry
     Harris-Foulkes estimate   =    -187.41634400 Ry
     estimated scf accuracy    <      12.06977863 Ry

     iteration # 93     ecut=    30.00 Ry     beta=0.70
     Davidson diagonalization with overlap
     ethr =  1.00E-02,  avg # of iterations =  6.0

     negative rho (up, down):  3.002E-02 0.000E+00

     total cpu time spent up to now is       21.3 secs

     total energy              =     -47.56283779 Ry
     Harris-Foulkes estimate   =     -55.86103066 Ry
     estimated scf accuracy    <      35.39232417 Ry

     iteration # 94     ecut=    30.00 Ry     beta=0.70
     Davidson diagonalization with overlap
     ethr =  1.00E-02,  avg # of iterations =  4.0

     negative rho (up, down):  4.401E-02 0.000E+00

     total cpu time spent up to now is       21.3 secs

     total energy              =    -463.14681184 Ry
     Harris-Foulkes estimate   =   -1388.01218816 Ry
     estimated scf accuracy    <      13.74678770 Ry

     iteration # 95     ecut=    30.00 Ry     beta=0.70
     Davidson diagonalization with overlap
     ethr =  1.00E-02,  avg # of iterations =  4.0

     negative rho (up, down):  6.474E-02 0.000E+00

     total cpu time spent up to now is       21.4 secs

     total energy              =       2.29077272 Ry
     Harris-Foulkes estimate   =   -2103.75597229 Ry
     estimated scf accuracy    <      16.54144665 Ry

     iteration # 96     ecut=    30.00 Ry     beta=0.70
     Davidson diagonalization with overlap
     ethr =  1.00E-02,  avg # of iterations =  5.0

     negative rho (up, down):  1.035E-01 0.000E+00

     total cpu time spent up to now is       21.5 secs

     total energy              =     -48.14802860 Ry
     Harris-Foulkes estimate   =    -190.59207935 Ry
     estimated scf accuracy    <      26.94114756 Ry

     iteration # 97     ecut=    30.00 Ry     beta=0.70
     Davidson diagonalization with overlap
     ethr =  1.00E-02,  avg # of iterations =  5.0

     negative rho (up, down):  1.467E-01 0.000E+00

     total cpu time spent up to now is       21.6 secs

     total energy              =     -33.47698339 Ry
     Harris-Foulkes estimate   =   -1041.99653945 Ry
     estimated scf accuracy    <      33.31610170 Ry

     iteration # 98     ecut=    30.00 Ry     beta=0.70
     Davidson diagonalization with overlap
     ethr =  1.00E-02,  avg # of iterations =  6.0

     negative rho (up, down):  7.116E-03 0.000E+00

     total cpu time spent up to now is       21.6 secs

     total energy              =      78.61583162 Ry
     Harris-Foulkes estimate   =    -226.52459218 Ry
     estimated scf accuracy    <      19.97216384 Ry

     iteration # 99     ecut=    30.00 Ry     beta=0.70
     Davidson diagonalization with overlap
     ethr =  1.00E-02,  avg # of iterations =  8.0

     negative rho (up, down):  3.153E-02 0.000E+00

     total cpu time spent up to now is       21.7 secs

     total energy              =     -25.29175568 Ry
     Harris-Foulkes estimate   =     -49.90855223 Ry
     estimated scf accuracy    <      15.53965383 Ry

     iteration #100     ecut=    30.00 Ry     beta=0.70
     Davidson diagonalization with overlap
     ethr =  1.00E-02,  avg # of iterations =  5.0

     negative rho (up, down):  2.306E-01 0.000E+00

     total cpu time spent up to now is       21.8 secs

     total energy              =       9.36145568 Ry
     Harris-Foulkes estimate   =    -929.06091556 Ry
     estimated scf accuracy    <      12.51275429 Ry

     End of self-consistent calculation

     convergence NOT achieved after 100 iterations: stopping

     Writing output data file pwscf.save
 
     init_run     :      0.17s CPU      0.19s WALL (       1 calls)
     electrons    :     15.90s CPU     18.88s WALL (       7 calls)
     update_pot   :      1.32s CPU      1.82s WALL (       6 calls)
     forces       :      0.26s CPU      0.26s WALL (       6 calls)

     Called by init_run:
     wfcinit      :      0.01s CPU      0.02s WALL (       1 calls)
     potinit      :      0.05s CPU      0.05s WALL (       1 calls)

     Called by electrons:
     c_bands      :      8.50s CPU      8.79s WALL (     286 calls)
     sum_band     :      1.46s CPU      1.53s WALL (     286 calls)
     v_of_rho     :      3.55s CPU      3.80s WALL (     293 calls)
     mix_rho      :      1.97s CPU      3.81s WALL (     286 calls)

     Called by c_bands:
     init_us_2    :      0.05s CPU      0.06s WALL (     573 calls)
     cegterg      :      8.41s CPU      8.62s WALL (     286 calls)

     Called by sum_band:

     Called by *egterg:
     h_psi        :      7.10s CPU      7.24s WALL (    1450 calls)
     g_psi        :      0.08s CPU      0.08s WALL (    1163 calls)
     cdiaghg      :      0.52s CPU      0.53s WALL (    1443 calls)

     Called by h_psi:
     h_psi:pot    :      7.06s CPU      7.20s WALL (    1450 calls)
     h_psi:calbec :      0.06s CPU      0.06s WALL (    1450 calls)
     vloc_psi     :      6.98s CPU      7.10s WALL (    1450 calls)
     add_vuspsi   :      0.02s CPU      0.02s WALL (    1450 calls)

     General routines
     calbec       :      0.08s CPU      0.09s WALL (    1479 calls)
     fft          :      2.20s CPU      2.30s WALL (    3235 calls)
     fftw         :      7.30s CPU      7.46s WALL (   18364 calls)
     davcio       :      0.34s CPU      1.65s WALL (    5110 calls)
 
     Parallel routines
     fft_scatter  :      2.89s CPU      3.02s WALL (   21599 calls)
 
     PWSCF        :    18.02s CPU        21.90s WALL

 
   This run was terminated on:  15: 5: 1  13Feb2018            

=------------------------------------------------------------------------------=
   JOB DONE.
=------------------------------------------------------------------------------=
