
     Program PWSCF v.6.0 (svn rev. 13079) starts on 13Feb2018 at 15: 9: 8 

     This program is part of the open-source Quantum ESPRESSO suite
     for quantum simulation of materials; please cite
         "P. Giannozzi et al., J. Phys.:Condens. Matter 21 395502 (2009);
          URL http://www.quantum-espresso.org", 
     in publications or presentations arising from this work. More details at
     http://www.quantum-espresso.org/quote

     Parallel version (MPI), running on    28 processors
     R & G space division:  proc/nbgrp/npool/nimage =      28
     Reading input from inputs/MD-H2O-round1/399.in

     Current dimensions of program PWSCF are:
     Max number of different atomic species (ntypx) = 10
     Max number of k-points (npk) =  40000
     Max angular momentum in pseudopotentials (lmaxx) =  3

     Subspace diagonalization in iterative solution of the eigenvalue problem:
     a serial algorithm will be used

 
     Parallelization info
     --------------------
     sticks:   dense  smooth     PW     G-vecs:    dense   smooth      PW
     Min         136     136     33                 6338     6338     787
     Max         137     137     34                 6341     6341     792
     Sum        3809    3809    949               177509   177509   22119
 


     bravais-lattice index     =            1
     lattice parameter (alat)  =      20.0000  a.u.
     unit-cell volume          =    8000.0000 (a.u.)^3
     number of atoms/cell      =            3
     number of atomic types    =            2
     number of electrons       =         8.00
     number of Kohn-Sham states=            8
     kinetic-energy cutoff     =      30.0000  Ry
     charge density cutoff     =     120.0000  Ry
     convergence threshold     =      1.0E-08
     mixing beta               =       0.7000
     number of iterations used =            8  plain     mixing
     Exchange-correlation      = BLYP ( 1  3  1  3 0 0)
     nstep                     =         5000


     celldm(1)=  20.000000  celldm(2)=   0.000000  celldm(3)=   0.000000
     celldm(4)=   0.000000  celldm(5)=   0.000000  celldm(6)=   0.000000

     crystal axes: (cart. coord. in units of alat)
               a(1) = (   1.000000   0.000000   0.000000 )  
               a(2) = (   0.000000   1.000000   0.000000 )  
               a(3) = (   0.000000   0.000000   1.000000 )  

     reciprocal axes: (cart. coord. in units 2 pi/alat)
               b(1) = (  1.000000  0.000000  0.000000 )  
               b(2) = (  0.000000  1.000000  0.000000 )  
               b(3) = (  0.000000  0.000000  1.000000 )  


     PseudoPot. # 1 for  H read from file:
     ./H.blyp-hgh.UPF
     MD5 check sum: c576e69559cde411e611be972c763230
     Pseudo is Norm-conserving, Zval =  1.0
     Generated in analytical, separable form
     Using radial grid of  929 points,  0 beta functions with: 

     PseudoPot. # 2 for  O read from file:
     ./O.blyp-hgh.UPF
     MD5 check sum: d0b7156309aa9befef28faac7bc56342
     Pseudo is Norm-conserving, Zval =  6.0
     Generated in analytical, separable form
     Using radial grid of 1095 points,  1 beta functions with: 
                l(1) =   0

     atomic species   valence    mass     pseudopotential
        H              1.00     1.01000      H( 1.00)
        O              6.00    16.00000      O( 1.00)

     No symmetry found



   Cartesian axes

     site n.     atom                  positions (alat units)
         1           O   tau(   1) = (   0.2218797   0.0474678   0.6154291  )
         2           H   tau(   2) = (   0.2363399   0.0069313   0.5571650  )
         3           H   tau(   3) = (   0.2323529   1.0299011   0.5334322  )

     number of k points=     1  Marzari-Vanderbilt smearing, width (Ry)=  0.0250
                       cart. coord. in units 2pi/alat
        k(    1) = (   0.0000000   0.0000000   0.0000000), wk =   2.0000000

     Dense  grid:   177509 G-vectors     FFT dimensions: (  72,  72,  72)

     Estimated max dynamical RAM per process >       6.09Mb

     Estimated total allocated dynamical RAM >     170.64Mb

     Initial potential from superposition of free atoms
     Check: negative starting charge=   -0.361384

     starting charge    7.99998, renormalised to    8.00000

     negative rho (up, down):  3.614E-01 0.000E+00
     Starting wfc are    6 randomized atomic wfcs +    2 random wfc

     total cpu time spent up to now is        0.3 secs

     per-process dynamical memory:    18.8 Mb

     Self-consistent Calculation

     iteration #  1     ecut=    30.00 Ry     beta=0.70
     Davidson diagonalization with overlap
     ethr =  1.00E-02,  avg # of iterations =  9.0

     negative rho (up, down):  1.029E-01 0.000E+00

     total cpu time spent up to now is        0.4 secs

     total energy              =     -30.90339217 Ry
     Harris-Foulkes estimate   =     -31.22784687 Ry
     estimated scf accuracy    <       0.37007655 Ry

     iteration #  2     ecut=    30.00 Ry     beta=0.70
     Davidson diagonalization with overlap
     ethr =  4.63E-03,  avg # of iterations =  2.0

     negative rho (up, down):  2.821E-02 0.000E+00

     total cpu time spent up to now is        0.5 secs

     total energy              =     -30.97901013 Ry
     Harris-Foulkes estimate   =     -30.94527175 Ry
     estimated scf accuracy    <       0.03769420 Ry

     iteration #  3     ecut=    30.00 Ry     beta=0.70
     Davidson diagonalization with overlap
     ethr =  4.71E-04,  avg # of iterations =  3.0

     negative rho (up, down):  4.705E-03 0.000E+00

     total cpu time spent up to now is        0.5 secs

     total energy              =     -31.00808447 Ry
     Harris-Foulkes estimate   =     -30.99157425 Ry
     estimated scf accuracy    <       0.01153521 Ry

     iteration #  4     ecut=    30.00 Ry     beta=0.70
     Davidson diagonalization with overlap
     ethr =  1.44E-04,  avg # of iterations =  3.0

     negative rho (up, down):  7.163E-04 0.000E+00

     total cpu time spent up to now is        0.6 secs

     total energy              =     -31.01336169 Ry
     Harris-Foulkes estimate   =     -31.01050721 Ry
     estimated scf accuracy    <       0.00010474 Ry

     iteration #  5     ecut=    30.00 Ry     beta=0.70
     Davidson diagonalization with overlap
     c_bands:  1 eigenvalues not converged
     ethr =  1.31E-06,  avg # of iterations = 20.0

     negative rho (up, down):  2.373E-04 0.000E+00

     total cpu time spent up to now is        0.7 secs

     total energy              =     -31.00926568 Ry
     Harris-Foulkes estimate   =     -31.00923873 Ry
     estimated scf accuracy    <       0.00003357 Ry

     iteration #  6     ecut=    30.00 Ry     beta=0.70
     Davidson diagonalization with overlap
     ethr =  4.20E-07,  avg # of iterations = 14.0

     negative rho (up, down):  6.265E-08 0.000E+00

     total cpu time spent up to now is        0.8 secs

     total energy              =     -31.00927841 Ry
     Harris-Foulkes estimate   =     -31.00926579 Ry
     estimated scf accuracy    <       0.00001506 Ry

     iteration #  7     ecut=    30.00 Ry     beta=0.70
     Davidson diagonalization with overlap
     ethr =  1.88E-07,  avg # of iterations =  2.0

     total cpu time spent up to now is        0.8 secs

     total energy              =     -31.00927746 Ry
     Harris-Foulkes estimate   =     -31.00927789 Ry
     estimated scf accuracy    <       0.00000027 Ry

     iteration #  8     ecut=    30.00 Ry     beta=0.70
     Davidson diagonalization with overlap
     ethr =  3.33E-09,  avg # of iterations =  2.0

     total cpu time spent up to now is        0.8 secs

     End of self-consistent calculation

          k = 0.0000 0.0000 0.0000 ( 22119 PWs)   bands (ev):

   -33.7031 -14.8065  -8.3571  -7.8084  -1.2643   0.2270   1.0304   1.0464

     the Fermi energy is    -7.5039 ev

!    total energy              =     -31.00927751 Ry
     Harris-Foulkes estimate   =     -31.00927744 Ry
     estimated scf accuracy    <          7.0E-09 Ry

     convergence has been achieved in   8 iterations

     Forces acting on atoms (Ry/au):

     atom    1 type  2   force =    -0.26014818    0.68859250    1.18787665
     atom    2 type  1   force =     0.60750256   -2.84003267    1.38875461
     atom    3 type  1   force =    -0.34735438    2.15144017   -2.57663125

     Total force =     4.868752     Total SCF correction =     0.000336

     Molecular Dynamics Calculation

     Starting temperature  =  1000.00 K

     temperature is controlled by Andersen thermostat
     Collision frequency = 1.0000/timestep
     mass H                =     1.01
     mass O                =    16.00
     Time step             =   100.00 a.u.,  4.8378 femto-seconds

     Entering Dynamics:    iteration =     1
                           time      =   0.0048 pico-seconds


     Andersen thermostat:    3 collisions

ATOMIC_POSITIONS (bohr)
O        4.359613900   1.172408118  12.756959595
H        7.959442220 -14.921726995  18.575575256
H        2.649759933  32.124891935  -3.866658501


     kinetic energy (Ekin) =     0.02352056 Ry
     temperature           =  1237.86606005 K 
     Ekin + Etot (const)   =   -30.98575695 Ry

     Linear momentum :    0.0000000000    0.0000000000   -0.0000000000

     Writing output data file pwscf.save
     Check: negative starting charge=   -0.361384
     NEW-OLD atomic charge density approx. for the potential
     Check: negative starting charge=   -0.343277

     negative rho (up, down):  9.096E-01 0.000E+00

     total cpu time spent up to now is        1.2 secs

     per-process dynamical memory:    20.4 Mb

     Self-consistent Calculation

     iteration #  1     ecut=    30.00 Ry     beta=0.70
     Davidson diagonalization with overlap
     ethr =  1.00E-06,  avg # of iterations = 14.0

     negative rho (up, down):  1.190E-01 0.000E+00

     total cpu time spent up to now is        1.3 secs

     total energy              =     104.98385818 Ry
     Harris-Foulkes estimate   =   -1030.89313721 Ry
     estimated scf accuracy    <      33.82575077 Ry

     iteration #  2     ecut=    30.00 Ry     beta=0.70
     Davidson diagonalization with overlap
     ethr =  1.00E-02,  avg # of iterations = 11.0

     negative rho (up, down):  5.570E-02 0.000E+00

     total cpu time spent up to now is        1.4 secs

     total energy              =      49.38094930 Ry
     Harris-Foulkes estimate   =    -137.04956725 Ry
     estimated scf accuracy    <      34.60144490 Ry

     iteration #  3     ecut=    30.00 Ry     beta=0.70
     Davidson diagonalization with overlap
     ethr =  1.00E-02,  avg # of iterations =  8.0

     negative rho (up, down):  4.742E-02 0.000E+00

     total cpu time spent up to now is        1.5 secs

     total energy              =     -36.71899322 Ry
     Harris-Foulkes estimate   =     -46.64133683 Ry
     estimated scf accuracy    <      22.27356415 Ry

     iteration #  4     ecut=    30.00 Ry     beta=0.70
     Davidson diagonalization with overlap
     ethr =  1.00E-02,  avg # of iterations =  2.0

     negative rho (up, down):  4.594E-02 0.000E+00

     total cpu time spent up to now is        1.6 secs

     total energy              =     -36.71547661 Ry
     Harris-Foulkes estimate   =     -37.89917379 Ry
     estimated scf accuracy    <      12.91937820 Ry

     iteration #  5     ecut=    30.00 Ry     beta=0.70
     Davidson diagonalization with overlap
     ethr =  1.00E-02,  avg # of iterations =  1.0

     negative rho (up, down):  3.793E-02 0.000E+00

     total cpu time spent up to now is        1.6 secs

     total energy              =     -31.80882754 Ry
     Harris-Foulkes estimate   =     -36.72318035 Ry
     estimated scf accuracy    <      11.41442170 Ry

     iteration #  6     ecut=    30.00 Ry     beta=0.70
     Davidson diagonalization with overlap
     ethr =  1.00E-02,  avg # of iterations =  4.0

     negative rho (up, down):  3.088E-02 0.000E+00

     total cpu time spent up to now is        1.7 secs

     total energy              =     -33.50243443 Ry
     Harris-Foulkes estimate   =     -34.82856214 Ry
     estimated scf accuracy    <       8.74131062 Ry

     iteration #  7     ecut=    30.00 Ry     beta=0.70
     Davidson diagonalization with overlap
     ethr =  1.00E-02,  avg # of iterations =  1.0

     negative rho (up, down):  6.637E-02 0.000E+00

     total cpu time spent up to now is        1.7 secs

     total energy              =     -32.52797330 Ry
     Harris-Foulkes estimate   =     -33.52859760 Ry
     estimated scf accuracy    <       6.58088829 Ry

     iteration #  8     ecut=    30.00 Ry     beta=0.70
     Davidson diagonalization with overlap
     ethr =  1.00E-02,  avg # of iterations =  4.0

     negative rho (up, down):  6.629E-02 0.000E+00

     total cpu time spent up to now is        1.8 secs

     total energy              =     -31.24668891 Ry
     Harris-Foulkes estimate   =     -33.52649807 Ry
     estimated scf accuracy    <       4.53362006 Ry

     iteration #  9     ecut=    30.00 Ry     beta=0.70
     Davidson diagonalization with overlap
     ethr =  1.00E-02,  avg # of iterations =  2.0

     negative rho (up, down):  4.577E-02 0.000E+00

     total cpu time spent up to now is        1.8 secs

     total energy              =     -33.18080633 Ry
     Harris-Foulkes estimate   =     -32.68936681 Ry
     estimated scf accuracy    <       4.02207458 Ry

     iteration # 10     ecut=    30.00 Ry     beta=0.70
     Davidson diagonalization with overlap
     ethr =  1.00E-02,  avg # of iterations =  3.0

     negative rho (up, down):  6.193E-01 0.000E+00

     total cpu time spent up to now is        1.9 secs

     total energy              =     -21.97416433 Ry
     Harris-Foulkes estimate   =     -81.76534940 Ry
     estimated scf accuracy    <       7.75907863 Ry

     iteration # 11     ecut=    30.00 Ry     beta=0.70
     Davidson diagonalization with overlap
     ethr =  1.00E-02,  avg # of iterations =  7.0

     negative rho (up, down):  4.565E-01 0.000E+00

     total cpu time spent up to now is        2.0 secs

     total energy              =     212.14884844 Ry
     Harris-Foulkes estimate   =    -124.80814874 Ry
     estimated scf accuracy    <      70.79734348 Ry

     iteration # 12     ecut=    30.00 Ry     beta=0.70
     Davidson diagonalization with overlap
     ethr =  1.00E-02,  avg # of iterations =  7.0

     negative rho (up, down):  3.902E-01 0.000E+00

     total cpu time spent up to now is        2.0 secs

     total energy              =     -43.69754881 Ry
     Harris-Foulkes estimate   =    -159.90637224 Ry
     estimated scf accuracy    <      54.06544670 Ry

     iteration # 13     ecut=    30.00 Ry     beta=0.70
     Davidson diagonalization with overlap
     ethr =  1.00E-02,  avg # of iterations =  7.0

     negative rho (up, down):  4.135E-01 0.000E+00

     total cpu time spent up to now is        2.1 secs

     total energy              =    -171.22907968 Ry
     Harris-Foulkes estimate   =    -525.66329166 Ry
     estimated scf accuracy    <      61.63247883 Ry

     iteration # 14     ecut=    30.00 Ry     beta=0.70
     Davidson diagonalization with overlap
     ethr =  1.00E-02,  avg # of iterations =  5.0

     negative rho (up, down):  6.343E-01 0.000E+00

     total cpu time spent up to now is        2.2 secs

     total energy              =      29.05582680 Ry
     Harris-Foulkes estimate   =    -663.32898633 Ry
     estimated scf accuracy    <      68.48528266 Ry

     iteration # 15     ecut=    30.00 Ry     beta=0.70
     Davidson diagonalization with overlap
     ethr =  1.00E-02,  avg # of iterations = 11.0

     negative rho (up, down):  6.352E-01 0.000E+00

     total cpu time spent up to now is        2.3 secs

     total energy              =    -455.96871768 Ry
     Harris-Foulkes estimate   =    -259.08665729 Ry
     estimated scf accuracy    <      62.13812119 Ry

     iteration # 16     ecut=    30.00 Ry     beta=0.70
     Davidson diagonalization with overlap
     ethr =  1.00E-02,  avg # of iterations =  7.0

     negative rho (up, down):  6.228E-01 0.000E+00

     total cpu time spent up to now is        2.4 secs

     total energy              =     -75.36959862 Ry
     Harris-Foulkes estimate   =   -3391.01102956 Ry
     estimated scf accuracy    <      52.35589327 Ry

     iteration # 17     ecut=    30.00 Ry     beta=0.70
     Davidson diagonalization with overlap
     ethr =  1.00E-02,  avg # of iterations =  8.0

     negative rho (up, down):  7.769E-01 0.000E+00

     total cpu time spent up to now is        2.5 secs

     total energy              =      10.13378366 Ry
     Harris-Foulkes estimate   =   -2928.23396637 Ry
     estimated scf accuracy    <      50.41295072 Ry

     iteration # 18     ecut=    30.00 Ry     beta=0.70
     Davidson diagonalization with overlap
     ethr =  1.00E-02,  avg # of iterations =  8.0

     negative rho (up, down):  1.202E+00 0.000E+00

     total cpu time spent up to now is        2.6 secs

     total energy              =    -107.12820939 Ry
     Harris-Foulkes estimate   =    -433.63959119 Ry
     estimated scf accuracy    <      48.18626599 Ry

     iteration # 19     ecut=    30.00 Ry     beta=0.70
     Davidson diagonalization with overlap
     ethr =  1.00E-02,  avg # of iterations =  8.0

     negative rho (up, down):  1.455E+00 0.000E+00

     total cpu time spent up to now is        2.6 secs

     total energy              =     102.05156670 Ry
     Harris-Foulkes estimate   =  -28092.04781985 Ry
     estimated scf accuracy    <      41.41864445 Ry

     iteration # 20     ecut=    30.00 Ry     beta=0.70
     Davidson diagonalization with overlap
     ethr =  1.00E-02,  avg # of iterations =  8.0

     negative rho (up, down):  9.592E-01 0.000E+00

     total cpu time spent up to now is        2.7 secs

     total energy              =      91.49643075 Ry
     Harris-Foulkes estimate   =   -2157.95136422 Ry
     estimated scf accuracy    <      22.68808931 Ry

     iteration # 21     ecut=    30.00 Ry     beta=0.70
     Davidson diagonalization with overlap
     ethr =  1.00E-02,  avg # of iterations =  7.0

     negative rho (up, down):  8.365E-01 0.000E+00

     total cpu time spent up to now is        2.8 secs

     total energy              =     -15.59353091 Ry
     Harris-Foulkes estimate   =   -2488.49254068 Ry
     estimated scf accuracy    <      18.09243603 Ry

     iteration # 22     ecut=    30.00 Ry     beta=0.70
     Davidson diagonalization with overlap
     ethr =  1.00E-02,  avg # of iterations =  6.0

     negative rho (up, down):  8.426E-01 0.000E+00

     total cpu time spent up to now is        2.9 secs

     total energy              =     107.29624286 Ry
     Harris-Foulkes estimate   =   -2376.79815602 Ry
     estimated scf accuracy    <      39.57824397 Ry

     iteration # 23     ecut=    30.00 Ry     beta=0.70
     Davidson diagonalization with overlap
     ethr =  1.00E-02,  avg # of iterations =  8.0

     negative rho (up, down):  6.499E-01 0.000E+00

     total cpu time spent up to now is        3.0 secs

     total energy              =       6.25183370 Ry
     Harris-Foulkes estimate   =    -528.15592360 Ry
     estimated scf accuracy    <      25.47807984 Ry

     iteration # 24     ecut=    30.00 Ry     beta=0.70
     Davidson diagonalization with overlap
     ethr =  1.00E-02,  avg # of iterations =  8.0

     negative rho (up, down):  5.920E-02 0.000E+00

     total cpu time spent up to now is        3.1 secs

     total energy              =     134.63047805 Ry
     Harris-Foulkes estimate   =   -3382.23028562 Ry
     estimated scf accuracy    <      25.66924202 Ry

     iteration # 25     ecut=    30.00 Ry     beta=0.70
     Davidson diagonalization with overlap
     ethr =  1.00E-02,  avg # of iterations =  8.0

     negative rho (up, down):  1.170E-02 0.000E+00

     total cpu time spent up to now is        3.2 secs

     total energy              =      -5.23061248 Ry
     Harris-Foulkes estimate   =    -251.08937558 Ry
     estimated scf accuracy    <      23.05797165 Ry

     iteration # 26     ecut=    30.00 Ry     beta=0.70
     Davidson diagonalization with overlap
     ethr =  1.00E-02,  avg # of iterations =  9.0

     negative rho (up, down):  1.359E-03 0.000E+00

     total cpu time spent up to now is        3.3 secs

     total energy              =      30.11988934 Ry
     Harris-Foulkes estimate   =    -502.53999513 Ry
     estimated scf accuracy    <      16.10547810 Ry

     iteration # 27     ecut=    30.00 Ry     beta=0.70
     Davidson diagonalization with overlap
     ethr =  1.00E-02,  avg # of iterations =  5.0

     negative rho (up, down):  2.895E-04 0.000E+00

     total cpu time spent up to now is        3.3 secs

     total energy              =     -13.61818193 Ry
     Harris-Foulkes estimate   =     -64.95630154 Ry
     estimated scf accuracy    <      23.13576717 Ry

     iteration # 28     ecut=    30.00 Ry     beta=0.70
     Davidson diagonalization with overlap
     ethr =  1.00E-02,  avg # of iterations =  8.0

     negative rho (up, down):  1.910E-02 0.000E+00

     total cpu time spent up to now is        3.4 secs

     total energy              =     -75.23421789 Ry
     Harris-Foulkes estimate   =     -48.85723679 Ry
     estimated scf accuracy    <      28.35603455 Ry

     iteration # 29     ecut=    30.00 Ry     beta=0.70
     Davidson diagonalization with overlap
     ethr =  1.00E-02,  avg # of iterations =  4.0

     negative rho (up, down):  4.532E-02 0.000E+00

     total cpu time spent up to now is        3.4 secs

     total energy              =    -339.26997488 Ry
     Harris-Foulkes estimate   =    -238.65684859 Ry
     estimated scf accuracy    <      31.33913852 Ry

     iteration # 30     ecut=    30.00 Ry     beta=0.70
     Davidson diagonalization with overlap
     ethr =  1.00E-02,  avg # of iterations =  4.0

     negative rho (up, down):  2.009E-01 0.000E+00

     total cpu time spent up to now is        3.5 secs

     total energy              =   -1964.63107510 Ry
     Harris-Foulkes estimate   =   -1641.35033450 Ry
     estimated scf accuracy    <      33.63377208 Ry

     iteration # 31     ecut=    30.00 Ry     beta=0.70
     Davidson diagonalization with overlap
     ethr =  1.00E-02,  avg # of iterations =  6.0

     negative rho (up, down):  4.197E-01 0.000E+00

     total cpu time spent up to now is        3.6 secs

     total energy              =     115.05515292 Ry
     Harris-Foulkes estimate   =   -4914.81118950 Ry
     estimated scf accuracy    <      51.04615140 Ry

     iteration # 32     ecut=    30.00 Ry     beta=0.70
     Davidson diagonalization with overlap
     ethr =  1.00E-02,  avg # of iterations =  7.0

     negative rho (up, down):  4.469E-01 0.000E+00

     total cpu time spent up to now is        3.7 secs

     total energy              =      -5.98489480 Ry
     Harris-Foulkes estimate   =   -1263.62246923 Ry
     estimated scf accuracy    <      21.24748034 Ry

     iteration # 33     ecut=    30.00 Ry     beta=0.70
     Davidson diagonalization with overlap
     ethr =  1.00E-02,  avg # of iterations =  6.0

     negative rho (up, down):  3.536E-01 0.000E+00

     total cpu time spent up to now is        3.8 secs

     total energy              =      50.78657113 Ry
     Harris-Foulkes estimate   =   -3288.57408362 Ry
     estimated scf accuracy    <      34.77216019 Ry

     iteration # 34     ecut=    30.00 Ry     beta=0.70
     Davidson diagonalization with overlap
     ethr =  1.00E-02,  avg # of iterations =  8.0

     negative rho (up, down):  7.619E-01 0.000E+00

     total cpu time spent up to now is        3.9 secs

     total energy              =     -33.45505534 Ry
     Harris-Foulkes estimate   =    -176.74270691 Ry
     estimated scf accuracy    <      29.65462221 Ry

     iteration # 35     ecut=    30.00 Ry     beta=0.70
     Davidson diagonalization with overlap
     ethr =  1.00E-02,  avg # of iterations = 11.0

     negative rho (up, down):  8.496E-01 0.000E+00

     total cpu time spent up to now is        4.0 secs

     total energy              =     -11.59046974 Ry
     Harris-Foulkes estimate   =    -608.40293942 Ry
     estimated scf accuracy    <      33.76720621 Ry

     iteration # 36     ecut=    30.00 Ry     beta=0.70
     Davidson diagonalization with overlap
     ethr =  1.00E-02,  avg # of iterations =  7.0

     negative rho (up, down):  1.069E+00 0.000E+00

     total cpu time spent up to now is        4.0 secs

     total energy              =     -59.28564562 Ry
     Harris-Foulkes estimate   =   -2202.04372198 Ry
     estimated scf accuracy    <      23.88728108 Ry

     iteration # 37     ecut=    30.00 Ry     beta=0.70
     Davidson diagonalization with overlap
     ethr =  1.00E-02,  avg # of iterations =  6.0

     negative rho (up, down):  9.470E-01 0.000E+00

     total cpu time spent up to now is        4.1 secs

     total energy              =    -339.44299441 Ry
     Harris-Foulkes estimate   =   -5123.35914735 Ry
     estimated scf accuracy    <      23.76073727 Ry

     iteration # 38     ecut=    30.00 Ry     beta=0.70
     Davidson diagonalization with overlap
     ethr =  1.00E-02,  avg # of iterations =  9.0

     negative rho (up, down):  2.867E-01 0.000E+00

     total cpu time spent up to now is        4.2 secs

     total energy              =    -131.90430991 Ry
     Harris-Foulkes estimate   =   -1426.57810819 Ry
     estimated scf accuracy    <      27.82191697 Ry

     iteration # 39     ecut=    30.00 Ry     beta=0.70
     Davidson diagonalization with overlap
     ethr =  1.00E-02,  avg # of iterations =  8.0

     negative rho (up, down):  2.423E-01 0.000E+00

     total cpu time spent up to now is        4.3 secs

     total energy              =   -3214.97887663 Ry
     Harris-Foulkes estimate   =   -2773.48223650 Ry
     estimated scf accuracy    <      43.08160354 Ry

     iteration # 40     ecut=    30.00 Ry     beta=0.70
     Davidson diagonalization with overlap
     ethr =  1.00E-02,  avg # of iterations =  8.0

     negative rho (up, down):  1.897E-01 0.000E+00

     total cpu time spent up to now is        4.4 secs

     total energy              =      -3.63483691 Ry
     Harris-Foulkes estimate   =  -15704.49078397 Ry
     estimated scf accuracy    <      35.72363905 Ry

     iteration # 41     ecut=    30.00 Ry     beta=0.70
     Davidson diagonalization with overlap
     ethr =  1.00E-02,  avg # of iterations =  9.0

     negative rho (up, down):  3.287E-01 0.000E+00

     total cpu time spent up to now is        4.5 secs

     total energy              =      52.09524030 Ry
     Harris-Foulkes estimate   =   -1377.01195405 Ry
     estimated scf accuracy    <      19.60780261 Ry

     iteration # 42     ecut=    30.00 Ry     beta=0.70
     Davidson diagonalization with overlap
     ethr =  1.00E-02,  avg # of iterations =  8.0

     negative rho (up, down):  4.759E-01 0.000E+00

     total cpu time spent up to now is        4.6 secs

     total energy              =    -507.17387087 Ry
     Harris-Foulkes estimate   =    -708.58099894 Ry
     estimated scf accuracy    <      22.36340497 Ry

     iteration # 43     ecut=    30.00 Ry     beta=0.70
     Davidson diagonalization with overlap
     ethr =  1.00E-02,  avg # of iterations =  9.0

     negative rho (up, down):  5.720E-01 0.000E+00

     total cpu time spent up to now is        4.7 secs

     total energy              =     -99.94872378 Ry
     Harris-Foulkes estimate   =   -4637.16496189 Ry
     estimated scf accuracy    <      25.51129992 Ry

     iteration # 44     ecut=    30.00 Ry     beta=0.70
     Davidson diagonalization with overlap
     ethr =  1.00E-02,  avg # of iterations =  8.0

     negative rho (up, down):  4.401E-01 0.000E+00

     total cpu time spent up to now is        4.8 secs

     total energy              =   -2677.71128257 Ry
     Harris-Foulkes estimate   =   -2556.79370843 Ry
     estimated scf accuracy    <      26.74280167 Ry

     iteration # 45     ecut=    30.00 Ry     beta=0.70
     Davidson diagonalization with overlap
     ethr =  1.00E-02,  avg # of iterations =  8.0

     negative rho (up, down):  4.216E-01 0.000E+00

     total cpu time spent up to now is        4.8 secs

     total energy              =    -292.19719477 Ry
     Harris-Foulkes estimate   =  -29444.17747096 Ry
     estimated scf accuracy    <      20.02773735 Ry

     iteration # 46     ecut=    30.00 Ry     beta=0.70
     Davidson diagonalization with overlap
     ethr =  1.00E-02,  avg # of iterations =  8.0

     negative rho (up, down):  4.875E-01 0.000E+00

     total cpu time spent up to now is        4.9 secs

     total energy              =   -2272.24807785 Ry
     Harris-Foulkes estimate   =   -4037.99539878 Ry
     estimated scf accuracy    <      25.22046826 Ry

     iteration # 47     ecut=    30.00 Ry     beta=0.70
     Davidson diagonalization with overlap
     ethr =  1.00E-02,  avg # of iterations =  8.0

     negative rho (up, down):  4.935E-01 0.000E+00

     total cpu time spent up to now is        5.0 secs

     total energy              =  407051.09641071 Ry
     Harris-Foulkes estimate   =  -32710.67648172 Ry
     estimated scf accuracy    <      29.75570074 Ry

     iteration # 48     ecut=    30.00 Ry     beta=0.70
     Davidson diagonalization with overlap
     ethr =  1.00E-02,  avg # of iterations =  9.0

     negative rho (up, down):  1.960E-03 0.000E+00

     total cpu time spent up to now is        5.1 secs

     total energy              =      83.58775850 Ry
     Harris-Foulkes estimate   =    -502.37398179 Ry
     estimated scf accuracy    <      23.26884167 Ry

     iteration # 49     ecut=    30.00 Ry     beta=0.70
     Davidson diagonalization with overlap
     ethr =  1.00E-02,  avg # of iterations =  9.0

     negative rho (up, down):  2.236E-03 0.000E+00

     total cpu time spent up to now is        5.2 secs

     total energy              =     -34.38778617 Ry
     Harris-Foulkes estimate   =     -38.86042803 Ry
     estimated scf accuracy    <      20.71623949 Ry

     iteration # 50     ecut=    30.00 Ry     beta=0.70
     Davidson diagonalization with overlap
     ethr =  1.00E-02,  avg # of iterations =  4.0

     negative rho (up, down):  6.920E-04 0.000E+00

     total cpu time spent up to now is        5.3 secs

     total energy              =      -4.04537479 Ry
     Harris-Foulkes estimate   =     -72.06023217 Ry
     estimated scf accuracy    <      14.88865189 Ry

     iteration # 51     ecut=    30.00 Ry     beta=0.70
     Davidson diagonalization with overlap
     ethr =  1.00E-02,  avg # of iterations =  4.0

     negative rho (up, down):  3.298E-04 0.000E+00

     total cpu time spent up to now is        5.3 secs

     total energy              =      -4.51798677 Ry
     Harris-Foulkes estimate   =     -48.28061811 Ry
     estimated scf accuracy    <       7.74971060 Ry

     iteration # 52     ecut=    30.00 Ry     beta=0.70
     Davidson diagonalization with overlap
     ethr =  1.00E-02,  avg # of iterations =  4.0

     negative rho (up, down):  2.445E-01 0.000E+00

     total cpu time spent up to now is        5.4 secs

     total energy              =     -33.00697229 Ry
     Harris-Foulkes estimate   =     -34.74610663 Ry
     estimated scf accuracy    <       8.91445884 Ry

     iteration # 53     ecut=    30.00 Ry     beta=0.70
     Davidson diagonalization with overlap
     ethr =  1.00E-02,  avg # of iterations =  3.0

     negative rho (up, down):  1.910E-01 0.000E+00

     total cpu time spent up to now is        5.5 secs

     total energy              =     -28.32303734 Ry
     Harris-Foulkes estimate   =     -43.10966008 Ry
     estimated scf accuracy    <       8.49360391 Ry

     iteration # 54     ecut=    30.00 Ry     beta=0.70
     Davidson diagonalization with overlap
     ethr =  1.00E-02,  avg # of iterations =  3.0

     negative rho (up, down):  1.406E-01 0.000E+00

     total cpu time spent up to now is        5.5 secs

     total energy              =     -14.37514008 Ry
     Harris-Foulkes estimate   =     -48.60358986 Ry
     estimated scf accuracy    <       7.72970565 Ry

     iteration # 55     ecut=    30.00 Ry     beta=0.70
     Davidson diagonalization with overlap
     ethr =  1.00E-02,  avg # of iterations =  4.0

     negative rho (up, down):  1.303E-01 0.000E+00

     total cpu time spent up to now is        5.6 secs

     total energy              =     -32.49862769 Ry
     Harris-Foulkes estimate   =     -33.37386119 Ry
     estimated scf accuracy    <       3.54793313 Ry

     iteration # 56     ecut=    30.00 Ry     beta=0.70
     Davidson diagonalization with overlap
     ethr =  1.00E-02,  avg # of iterations =  2.0

     negative rho (up, down):  1.382E-01 0.000E+00

     total cpu time spent up to now is        5.7 secs

     total energy              =     -32.31427944 Ry
     Harris-Foulkes estimate   =     -32.91487248 Ry
     estimated scf accuracy    <       3.62429350 Ry

     iteration # 57     ecut=    30.00 Ry     beta=0.70
     Davidson diagonalization with overlap
     ethr =  1.00E-02,  avg # of iterations =  1.0

     negative rho (up, down):  2.313E-01 0.000E+00

     total cpu time spent up to now is        5.7 secs

     total energy              =     -31.90633280 Ry
     Harris-Foulkes estimate   =     -32.52782571 Ry
     estimated scf accuracy    <       2.90910431 Ry

     iteration # 58     ecut=    30.00 Ry     beta=0.70
     Davidson diagonalization with overlap
     ethr =  1.00E-02,  avg # of iterations =  1.0

     negative rho (up, down):  6.514E-02 0.000E+00

     total cpu time spent up to now is        5.8 secs

     total energy              =     -31.96299617 Ry
     Harris-Foulkes estimate   =     -32.55006329 Ry
     estimated scf accuracy    <       4.70254540 Ry

     iteration # 59     ecut=    30.00 Ry     beta=0.70
     Davidson diagonalization with overlap
     ethr =  1.00E-02,  avg # of iterations =  5.0

     negative rho (up, down):  1.876E-02 0.000E+00

     total cpu time spent up to now is        5.8 secs

     total energy              =      -4.24640899 Ry
     Harris-Foulkes estimate   =     -70.50989299 Ry
     estimated scf accuracy    <       7.88291218 Ry

     iteration # 60     ecut=    30.00 Ry     beta=0.70
     Davidson diagonalization with overlap
     ethr =  1.00E-02,  avg # of iterations =  5.0

     negative rho (up, down):  6.389E-04 0.000E+00

     total cpu time spent up to now is        5.9 secs

     total energy              =     -31.44532759 Ry
     Harris-Foulkes estimate   =     -31.87453252 Ry
     estimated scf accuracy    <       3.47502376 Ry

     iteration # 61     ecut=    30.00 Ry     beta=0.70
     Davidson diagonalization with overlap
     ethr =  1.00E-02,  avg # of iterations =  1.0

     negative rho (up, down):  1.155E-04 0.000E+00

     total cpu time spent up to now is        5.9 secs

     total energy              =     -32.02725648 Ry
     Harris-Foulkes estimate   =     -32.33269072 Ry
     estimated scf accuracy    <       4.80493979 Ry

     iteration # 62     ecut=    30.00 Ry     beta=0.70
     Davidson diagonalization with overlap
     ethr =  1.00E-02,  avg # of iterations =  1.0

     total cpu time spent up to now is        6.0 secs

     total energy              =     -31.94655582 Ry
     Harris-Foulkes estimate   =     -32.03116891 Ry
     estimated scf accuracy    <       4.36057562 Ry

     iteration # 63     ecut=    30.00 Ry     beta=0.70
     Davidson diagonalization with overlap
     ethr =  1.00E-02,  avg # of iterations =  1.0

     negative rho (up, down):  2.503E-04 0.000E+00

     total cpu time spent up to now is        6.0 secs

     total energy              =     -31.78658343 Ry
     Harris-Foulkes estimate   =     -31.94766381 Ry
     estimated scf accuracy    <       4.23352040 Ry

     iteration # 64     ecut=    30.00 Ry     beta=0.70
     Davidson diagonalization with overlap
     ethr =  1.00E-02,  avg # of iterations =  3.0

     negative rho (up, down):  2.261E-03 0.000E+00

     total cpu time spent up to now is        6.1 secs

     total energy              =     -10.70692930 Ry
     Harris-Foulkes estimate   =    -107.23860545 Ry
     estimated scf accuracy    <       9.80356616 Ry

     iteration # 65     ecut=    30.00 Ry     beta=0.70
     Davidson diagonalization with overlap
     ethr =  1.00E-02,  avg # of iterations =  3.0

     negative rho (up, down):  2.738E-03 0.000E+00

     total cpu time spent up to now is        6.1 secs

     total energy              =     -26.05345378 Ry
     Harris-Foulkes estimate   =     -33.39394910 Ry
     estimated scf accuracy    <       6.70406205 Ry

     iteration # 66     ecut=    30.00 Ry     beta=0.70
     Davidson diagonalization with overlap
     ethr =  1.00E-02,  avg # of iterations =  3.0

     negative rho (up, down):  1.182E-03 0.000E+00

     total cpu time spent up to now is        6.2 secs

     total energy              =     -23.04964736 Ry
     Harris-Foulkes estimate   =     -33.39602174 Ry
     estimated scf accuracy    <       8.28686410 Ry

     iteration # 67     ecut=    30.00 Ry     beta=0.70
     Davidson diagonalization with overlap
     ethr =  1.00E-02,  avg # of iterations =  4.0

     negative rho (up, down):  9.809E-04 0.000E+00

     total cpu time spent up to now is        6.2 secs

     total energy              =     -31.27129887 Ry
     Harris-Foulkes estimate   =     -31.80934318 Ry
     estimated scf accuracy    <       2.97411397 Ry

     iteration # 68     ecut=    30.00 Ry     beta=0.70
     Davidson diagonalization with overlap
     ethr =  1.00E-02,  avg # of iterations =  1.0

     negative rho (up, down):  1.760E-02 0.000E+00

     total cpu time spent up to now is        6.3 secs

     total energy              =     -32.55496878 Ry
     Harris-Foulkes estimate   =     -31.87691963 Ry
     estimated scf accuracy    <       3.42797177 Ry

     iteration # 69     ecut=    30.00 Ry     beta=0.70
     Davidson diagonalization with overlap
     ethr =  1.00E-02,  avg # of iterations =  5.0

     negative rho (up, down):  1.248E-02 0.000E+00

     total cpu time spent up to now is        6.3 secs

     total energy              =     -15.01788053 Ry
     Harris-Foulkes estimate   =     -39.73470137 Ry
     estimated scf accuracy    <       8.28089345 Ry

     iteration # 70     ecut=    30.00 Ry     beta=0.70
     Davidson diagonalization with overlap
     ethr =  1.00E-02,  avg # of iterations =  5.0

     negative rho (up, down):  5.334E-02 0.000E+00

     total cpu time spent up to now is        6.4 secs

     total energy              =     -28.57300947 Ry
     Harris-Foulkes estimate   =     -32.32362749 Ry
     estimated scf accuracy    <       2.87568251 Ry

     iteration # 71     ecut=    30.00 Ry     beta=0.70
     Davidson diagonalization with overlap
     ethr =  1.00E-02,  avg # of iterations =  4.0

     negative rho (up, down):  5.630E-02 0.000E+00

     total cpu time spent up to now is        6.5 secs

     total energy              =     -75.50583874 Ry
     Harris-Foulkes estimate   =    -177.83117785 Ry
     estimated scf accuracy    <       7.00078352 Ry

     iteration # 72     ecut=    30.00 Ry     beta=0.70
     Davidson diagonalization with overlap
     ethr =  1.00E-02,  avg # of iterations =  4.0

     negative rho (up, down):  4.569E-02 0.000E+00

     total cpu time spent up to now is        6.5 secs

     total energy              =      -6.06174348 Ry
     Harris-Foulkes estimate   =    -199.79150885 Ry
     estimated scf accuracy    <      15.47898831 Ry

     iteration # 73     ecut=    30.00 Ry     beta=0.70
     Davidson diagonalization with overlap
     ethr =  1.00E-02,  avg # of iterations =  4.0

     negative rho (up, down):  4.060E-02 0.000E+00

     total cpu time spent up to now is        6.6 secs

     total energy              =     -11.37726905 Ry
     Harris-Foulkes estimate   =     -69.62015103 Ry
     estimated scf accuracy    <       7.20474544 Ry

     iteration # 74     ecut=    30.00 Ry     beta=0.70
     Davidson diagonalization with overlap
     ethr =  1.00E-02,  avg # of iterations =  5.0

     negative rho (up, down):  3.144E-02 0.000E+00

     total cpu time spent up to now is        6.7 secs

     total energy              =       2.29658685 Ry
     Harris-Foulkes estimate   =    -114.32850426 Ry
     estimated scf accuracy    <      18.65548664 Ry

     iteration # 75     ecut=    30.00 Ry     beta=0.70
     Davidson diagonalization with overlap
     ethr =  1.00E-02,  avg # of iterations =  4.0

     negative rho (up, down):  3.747E-02 0.000E+00

     total cpu time spent up to now is        6.8 secs

     total energy              =     -28.40317051 Ry
     Harris-Foulkes estimate   =     -85.74222603 Ry
     estimated scf accuracy    <       7.06426467 Ry

     iteration # 76     ecut=    30.00 Ry     beta=0.70
     Davidson diagonalization with overlap
     ethr =  1.00E-02,  avg # of iterations =  4.0

     negative rho (up, down):  5.392E-03 0.000E+00

     total cpu time spent up to now is        6.9 secs

     total energy              =      82.30055044 Ry
     Harris-Foulkes estimate   =    -671.07026694 Ry
     estimated scf accuracy    <      60.07913481 Ry

     iteration # 77     ecut=    30.00 Ry     beta=0.70
     Davidson diagonalization with overlap
     ethr =  1.00E-02,  avg # of iterations =  7.0

     negative rho (up, down):  1.826E-01 0.000E+00

     total cpu time spent up to now is        7.0 secs

     total energy              =     -48.98356464 Ry
     Harris-Foulkes estimate   =     -76.99558466 Ry
     estimated scf accuracy    <      18.65737400 Ry

     iteration # 78     ecut=    30.00 Ry     beta=0.70
     Davidson diagonalization with overlap
     ethr =  1.00E-02,  avg # of iterations =  8.0

     negative rho (up, down):  1.792E-01 0.000E+00

     total cpu time spent up to now is        7.2 secs

     total energy              =   -3556.90676085 Ry
     Harris-Foulkes estimate   =   -1235.80417100 Ry
     estimated scf accuracy    <      54.75004561 Ry

     iteration # 79     ecut=    30.00 Ry     beta=0.70
     Davidson diagonalization with overlap
     ethr =  1.00E-02,  avg # of iterations =  7.0

     negative rho (up, down):  4.790E-01 0.000E+00

     total cpu time spent up to now is        7.3 secs

     total energy              =      50.73905621 Ry
     Harris-Foulkes estimate   =   -5206.76899223 Ry
     estimated scf accuracy    <      55.62167446 Ry

     iteration # 80     ecut=    30.00 Ry     beta=0.70
     Davidson diagonalization with overlap
     ethr =  1.00E-02,  avg # of iterations =  8.0

     negative rho (up, down):  6.996E-01 0.000E+00

     total cpu time spent up to now is        7.3 secs

     total energy              =     -59.86624073 Ry
     Harris-Foulkes estimate   =    -715.94333554 Ry
     estimated scf accuracy    <      48.15378482 Ry

     iteration # 81     ecut=    30.00 Ry     beta=0.70
     Davidson diagonalization with overlap
     ethr =  1.00E-02,  avg # of iterations =  6.0

     negative rho (up, down):  6.983E-01 0.000E+00

     total cpu time spent up to now is        7.4 secs

     total energy              =     -41.95587594 Ry
     Harris-Foulkes estimate   =   -2267.57647327 Ry
     estimated scf accuracy    <      36.77484371 Ry

     iteration # 82     ecut=    30.00 Ry     beta=0.70
     Davidson diagonalization with overlap
     ethr =  1.00E-02,  avg # of iterations =  7.0

     negative rho (up, down):  8.451E-01 0.000E+00

     total cpu time spent up to now is        7.5 secs

     total energy              =      25.42645109 Ry
     Harris-Foulkes estimate   =    -245.79475709 Ry
     estimated scf accuracy    <      42.36977866 Ry

     iteration # 83     ecut=    30.00 Ry     beta=0.70
     Davidson diagonalization with overlap
     ethr =  1.00E-02,  avg # of iterations =  7.0

     negative rho (up, down):  6.793E-01 0.000E+00

     total cpu time spent up to now is        7.6 secs

     total energy              =     216.88643775 Ry
     Harris-Foulkes estimate   =    -410.05375862 Ry
     estimated scf accuracy    <      53.12501677 Ry

     iteration # 84     ecut=    30.00 Ry     beta=0.70
     Davidson diagonalization with overlap
     ethr =  1.00E-02,  avg # of iterations =  5.0

     negative rho (up, down):  4.449E-01 0.000E+00

     total cpu time spent up to now is        7.7 secs

     total energy              =    -103.16927678 Ry
     Harris-Foulkes estimate   =   -4662.66190965 Ry
     estimated scf accuracy    <      44.21124383 Ry

     iteration # 85     ecut=    30.00 Ry     beta=0.70
     Davidson diagonalization with overlap
     ethr =  1.00E-02,  avg # of iterations =  7.0

     negative rho (up, down):  1.157E+00 0.000E+00

     total cpu time spent up to now is        7.8 secs

     total energy              =      74.30677605 Ry
     Harris-Foulkes estimate   =    -937.99741379 Ry
     estimated scf accuracy    <      37.69753629 Ry

     iteration # 86     ecut=    30.00 Ry     beta=0.70
     Davidson diagonalization with overlap
     ethr =  1.00E-02,  avg # of iterations = 11.0

     negative rho (up, down):  1.354E+00 0.000E+00

     total cpu time spent up to now is        7.9 secs

     total energy              =    -170.08580731 Ry
     Harris-Foulkes estimate   =   -1049.67865528 Ry
     estimated scf accuracy    <      24.30566422 Ry

     iteration # 87     ecut=    30.00 Ry     beta=0.70
     Davidson diagonalization with overlap
     ethr =  1.00E-02,  avg # of iterations =  8.0

     negative rho (up, down):  1.860E+00 0.000E+00

     total cpu time spent up to now is        8.0 secs

     total energy              =     109.69355016 Ry
     Harris-Foulkes estimate   =   -2356.14096869 Ry
     estimated scf accuracy    <      27.62663813 Ry

     iteration # 88     ecut=    30.00 Ry     beta=0.70
     Davidson diagonalization with overlap
     ethr =  1.00E-02,  avg # of iterations =  9.0

     negative rho (up, down):  1.423E+00 0.000E+00

     total cpu time spent up to now is        8.1 secs

     total energy              =    1110.35684090 Ry
     Harris-Foulkes estimate   =   -1356.36988179 Ry
     estimated scf accuracy    <      22.86321746 Ry

     iteration # 89     ecut=    30.00 Ry     beta=0.70
     Davidson diagonalization with overlap
     ethr =  1.00E-02,  avg # of iterations = 14.0

     negative rho (up, down):  1.255E+00 0.000E+00

     total cpu time spent up to now is        8.2 secs

     total energy              =   -1357.03059981 Ry
     Harris-Foulkes estimate   =   -2324.25585720 Ry
     estimated scf accuracy    <      24.49051114 Ry

     iteration # 90     ecut=    30.00 Ry     beta=0.70
     Davidson diagonalization with overlap
     ethr =  1.00E-02,  avg # of iterations =  6.0

     negative rho (up, down):  1.144E+00 0.000E+00

     total cpu time spent up to now is        8.2 secs

     total energy              =     102.38431409 Ry
     Harris-Foulkes estimate   =   -7131.36283340 Ry
     estimated scf accuracy    <      18.98331421 Ry

     iteration # 91     ecut=    30.00 Ry     beta=0.70
     Davidson diagonalization with overlap
     ethr =  1.00E-02,  avg # of iterations = 12.0

     negative rho (up, down):  3.756E-01 0.000E+00

     total cpu time spent up to now is        8.4 secs

     total energy              =      32.12135797 Ry
     Harris-Foulkes estimate   =   -2881.06468751 Ry
     estimated scf accuracy    <      27.77413934 Ry

     iteration # 92     ecut=    30.00 Ry     beta=0.70
     Davidson diagonalization with overlap
     ethr =  1.00E-02,  avg # of iterations = 11.0

     negative rho (up, down):  5.759E-02 0.000E+00

     total cpu time spent up to now is        8.4 secs

     total energy              =     -40.20464285 Ry
     Harris-Foulkes estimate   =   -1432.76140733 Ry
     estimated scf accuracy    <      20.18766477 Ry

     iteration # 93     ecut=    30.00 Ry     beta=0.70
     Davidson diagonalization with overlap
     ethr =  1.00E-02,  avg # of iterations =  8.0

     negative rho (up, down):  3.344E-02 0.000E+00

     total cpu time spent up to now is        8.5 secs

     total energy              =     123.24579788 Ry
     Harris-Foulkes estimate   =   -2245.83617090 Ry
     estimated scf accuracy    <      18.76143259 Ry

     iteration # 94     ecut=    30.00 Ry     beta=0.70
     Davidson diagonalization with overlap
     ethr =  1.00E-02,  avg # of iterations = 10.0

     negative rho (up, down):  5.126E-03 0.000E+00

     total cpu time spent up to now is        8.6 secs

     total energy              =     -71.26057880 Ry
     Harris-Foulkes estimate   =    -164.99106799 Ry
     estimated scf accuracy    <      24.53081348 Ry

     iteration # 95     ecut=    30.00 Ry     beta=0.70
     Davidson diagonalization with overlap
     ethr =  1.00E-02,  avg # of iterations =  7.0

     negative rho (up, down):  1.137E-03 0.000E+00

     total cpu time spent up to now is        8.7 secs

     total energy              =      82.57387870 Ry
     Harris-Foulkes estimate   =    -610.92113786 Ry
     estimated scf accuracy    <      16.95755163 Ry

     iteration # 96     ecut=    30.00 Ry     beta=0.70
     Davidson diagonalization with overlap
     ethr =  1.00E-02,  avg # of iterations =  7.0

     negative rho (up, down):  1.053E-01 0.000E+00

     total cpu time spent up to now is        8.8 secs

     total energy              =     -51.97939331 Ry
     Harris-Foulkes estimate   =     -54.49948589 Ry
     estimated scf accuracy    <      35.73583525 Ry

     iteration # 97     ecut=    30.00 Ry     beta=0.70
     Davidson diagonalization with overlap
     ethr =  1.00E-02,  avg # of iterations =  1.0

     negative rho (up, down):  1.066E+00 0.000E+00

     total cpu time spent up to now is        8.8 secs

     total energy              =     -47.15908487 Ry
     Harris-Foulkes estimate   =     -52.00582872 Ry
     estimated scf accuracy    <      31.38238257 Ry

     iteration # 98     ecut=    30.00 Ry     beta=0.70
     Davidson diagonalization with overlap
     ethr =  1.00E-02,  avg # of iterations =  8.0

     negative rho (up, down):  9.657E-01 0.000E+00

     total cpu time spent up to now is        8.9 secs

     total energy              =   -1353.61984980 Ry
     Harris-Foulkes estimate   =   -1119.12082782 Ry
     estimated scf accuracy    <      38.61448159 Ry

     iteration # 99     ecut=    30.00 Ry     beta=0.70
     Davidson diagonalization with overlap
     ethr =  1.00E-02,  avg # of iterations =  8.0

     negative rho (up, down):  9.966E-01 0.000E+00

     total cpu time spent up to now is        9.0 secs

     total energy              =     270.58961425 Ry
     Harris-Foulkes estimate   =   -3999.86990820 Ry
     estimated scf accuracy    <      46.81511880 Ry

     iteration #100     ecut=    30.00 Ry     beta=0.70
     Davidson diagonalization with overlap
     ethr =  1.00E-02,  avg # of iterations =  8.0

     negative rho (up, down):  4.852E-01 0.000E+00

     total cpu time spent up to now is        9.1 secs

     total energy              =     115.30727512 Ry
     Harris-Foulkes estimate   =    -406.95867146 Ry
     estimated scf accuracy    <      26.86284508 Ry

     End of self-consistent calculation

     convergence NOT achieved after 100 iterations: stopping

     Writing output data file pwscf.save
 
     init_run     :      0.17s CPU      0.19s WALL (       1 calls)
     electrons    :      7.60s CPU      8.56s WALL (       2 calls)
     update_pot   :      0.12s CPU      0.16s WALL (       1 calls)
     forces       :      0.04s CPU      0.04s WALL (       1 calls)

     Called by init_run:
     wfcinit      :      0.01s CPU      0.02s WALL (       1 calls)
     potinit      :      0.05s CPU      0.05s WALL (       1 calls)

     Called by electrons:
     c_bands      :      4.62s CPU      4.77s WALL (     108 calls)
     sum_band     :      0.55s CPU      0.61s WALL (     108 calls)
     v_of_rho     :      1.43s CPU      1.47s WALL (     110 calls)
     mix_rho      :      0.88s CPU      1.44s WALL (     108 calls)

     Called by c_bands:
     init_us_2    :      0.02s CPU      0.02s WALL (     217 calls)
     cegterg      :      4.59s CPU      4.71s WALL (     108 calls)

     Called by sum_band:

     Called by *egterg:
     h_psi        :      3.84s CPU      3.93s WALL (     787 calls)
     g_psi        :      0.05s CPU      0.05s WALL (     678 calls)
     cdiaghg      :      0.31s CPU      0.32s WALL (     785 calls)

     Called by h_psi:
     h_psi:pot    :      3.82s CPU      3.91s WALL (     787 calls)
     h_psi:calbec :      0.06s CPU      0.07s WALL (     787 calls)
     vloc_psi     :      3.74s CPU      3.83s WALL (     787 calls)
     add_vuspsi   :      0.01s CPU      0.01s WALL (     787 calls)

     General routines
     calbec       :      0.06s CPU      0.06s WALL (     791 calls)
     fft          :      0.82s CPU      0.88s WALL (    1212 calls)
     fftw         :      3.78s CPU      3.89s WALL (    9222 calls)
     davcio       :      0.14s CPU      0.50s WALL (    1998 calls)
 
     Parallel routines
     fft_scatter  :      1.54s CPU      1.65s WALL (   10434 calls)
 
     PWSCF        :     8.12s CPU         9.26s WALL

 
   This run was terminated on:  15: 9:17  13Feb2018            

=------------------------------------------------------------------------------=
   JOB DONE.
=------------------------------------------------------------------------------=
