
     Program PWSCF v.6.0 (svn rev. 13079) starts on 13Feb2018 at 13:10:44 

     This program is part of the open-source Quantum ESPRESSO suite
     for quantum simulation of materials; please cite
         "P. Giannozzi et al., J. Phys.:Condens. Matter 21 395502 (2009);
          URL http://www.quantum-espresso.org", 
     in publications or presentations arising from this work. More details at
     http://www.quantum-espresso.org/quote

     Parallel version (MPI), running on    28 processors
     R & G space division:  proc/nbgrp/npool/nimage =      28
     Reading input from inputs/MD-H2O-round1/40.in

     Current dimensions of program PWSCF are:
     Max number of different atomic species (ntypx) = 10
     Max number of k-points (npk) =  40000
     Max angular momentum in pseudopotentials (lmaxx) =  3

     Subspace diagonalization in iterative solution of the eigenvalue problem:
     a serial algorithm will be used

 
     Parallelization info
     --------------------
     sticks:   dense  smooth     PW     G-vecs:    dense   smooth      PW
     Min         136     136     33                 6338     6338     787
     Max         137     137     34                 6341     6341     792
     Sum        3809    3809    949               177509   177509   22119
 


     bravais-lattice index     =            1
     lattice parameter (alat)  =      20.0000  a.u.
     unit-cell volume          =    8000.0000 (a.u.)^3
     number of atoms/cell      =            3
     number of atomic types    =            2
     number of electrons       =         8.00
     number of Kohn-Sham states=            8
     kinetic-energy cutoff     =      30.0000  Ry
     charge density cutoff     =     120.0000  Ry
     convergence threshold     =      1.0E-08
     mixing beta               =       0.7000
     number of iterations used =            8  plain     mixing
     Exchange-correlation      = BLYP ( 1  3  1  3 0 0)
     nstep                     =         5000


     celldm(1)=  20.000000  celldm(2)=   0.000000  celldm(3)=   0.000000
     celldm(4)=   0.000000  celldm(5)=   0.000000  celldm(6)=   0.000000

     crystal axes: (cart. coord. in units of alat)
               a(1) = (   1.000000   0.000000   0.000000 )  
               a(2) = (   0.000000   1.000000   0.000000 )  
               a(3) = (   0.000000   0.000000   1.000000 )  

     reciprocal axes: (cart. coord. in units 2 pi/alat)
               b(1) = (  1.000000  0.000000  0.000000 )  
               b(2) = (  0.000000  1.000000  0.000000 )  
               b(3) = (  0.000000  0.000000  1.000000 )  


     PseudoPot. # 1 for  H read from file:
     ./H.blyp-hgh.UPF
     MD5 check sum: c576e69559cde411e611be972c763230
     Pseudo is Norm-conserving, Zval =  1.0
     Generated in analytical, separable form
     Using radial grid of  929 points,  0 beta functions with: 

     PseudoPot. # 2 for  O read from file:
     ./O.blyp-hgh.UPF
     MD5 check sum: d0b7156309aa9befef28faac7bc56342
     Pseudo is Norm-conserving, Zval =  6.0
     Generated in analytical, separable form
     Using radial grid of 1095 points,  1 beta functions with: 
                l(1) =   0

     atomic species   valence    mass     pseudopotential
        H              1.00     1.01000      H( 1.00)
        O              6.00    16.00000      O( 1.00)

     No symmetry found



   Cartesian axes

     site n.     atom                  positions (alat units)
         1           O   tau(   1) = (   0.8198408   0.4931365   0.6803965  )
         2           H   tau(   2) = (   0.4017619   0.7409022   0.5260447  )
         3           H   tau(   3) = (   0.7527962   0.5263556   0.6525995  )

     number of k points=     1  Marzari-Vanderbilt smearing, width (Ry)=  0.0250
                       cart. coord. in units 2pi/alat
        k(    1) = (   0.0000000   0.0000000   0.0000000), wk =   2.0000000

     Dense  grid:   177509 G-vectors     FFT dimensions: (  72,  72,  72)

     Estimated max dynamical RAM per process >       6.09Mb

     Estimated total allocated dynamical RAM >     170.64Mb

     Initial potential from superposition of free atoms
     Check: negative starting charge=   -0.350154

     starting charge    7.99998, renormalised to    8.00000

     negative rho (up, down):  3.502E-01 0.000E+00
     Starting wfc are    6 randomized atomic wfcs +    2 random wfc

     total cpu time spent up to now is        0.3 secs

     per-process dynamical memory:    18.8 Mb

     Self-consistent Calculation

     iteration #  1     ecut=    30.00 Ry     beta=0.70
     Davidson diagonalization with overlap
     ethr =  1.00E-02,  avg # of iterations =  8.0

     negative rho (up, down):  9.467E-02 0.000E+00

     total cpu time spent up to now is        0.4 secs

     total energy              =     -31.52555790 Ry
     Harris-Foulkes estimate   =     -32.07123730 Ry
     estimated scf accuracy    <       0.58263164 Ry

     iteration #  2     ecut=    30.00 Ry     beta=0.70
     Davidson diagonalization with overlap
     ethr =  7.28E-03,  avg # of iterations =  2.0

     negative rho (up, down):  7.269E-02 0.000E+00

     total cpu time spent up to now is        0.4 secs

     total energy              =     -31.73222964 Ry
     Harris-Foulkes estimate   =     -32.45731756 Ry
     estimated scf accuracy    <       2.40709439 Ry

     iteration #  3     ecut=    30.00 Ry     beta=0.70
     Davidson diagonalization with overlap
     ethr =  7.28E-03,  avg # of iterations =  2.0

     negative rho (up, down):  2.934E-02 0.000E+00

     total cpu time spent up to now is        0.5 secs

     total energy              =     -31.78209873 Ry
     Harris-Foulkes estimate   =     -31.78361250 Ry
     estimated scf accuracy    <       0.11910840 Ry

     iteration #  4     ecut=    30.00 Ry     beta=0.70
     Davidson diagonalization with overlap
     ethr =  1.49E-03,  avg # of iterations =  1.0

     negative rho (up, down):  7.906E-03 0.000E+00

     total cpu time spent up to now is        0.5 secs

     total energy              =     -31.62099800 Ry
     Harris-Foulkes estimate   =     -31.85939183 Ry
     estimated scf accuracy    <       0.94805479 Ry

     iteration #  5     ecut=    30.00 Ry     beta=0.70
     Davidson diagonalization with overlap
     ethr =  1.49E-03,  avg # of iterations =  2.0

     negative rho (up, down):  1.921E-03 0.000E+00

     total cpu time spent up to now is        0.6 secs

     total energy              =     -31.93101020 Ry
     Harris-Foulkes estimate   =     -32.07875238 Ry
     estimated scf accuracy    <       1.59478932 Ry

     iteration #  6     ecut=    30.00 Ry     beta=0.70
     Davidson diagonalization with overlap
     ethr =  1.49E-03,  avg # of iterations =  1.0

     negative rho (up, down):  1.203E-03 0.000E+00

     total cpu time spent up to now is        0.6 secs

     total energy              =     -31.86739922 Ry
     Harris-Foulkes estimate   =     -31.93327965 Ry
     estimated scf accuracy    <       1.34660382 Ry

     iteration #  7     ecut=    30.00 Ry     beta=0.70
     Davidson diagonalization with overlap
     ethr =  1.49E-03,  avg # of iterations =  1.0

     negative rho (up, down):  1.157E-03 0.000E+00

     total cpu time spent up to now is        0.7 secs

     total energy              =     -31.76168911 Ry
     Harris-Foulkes estimate   =     -31.86479628 Ry
     estimated scf accuracy    <       1.58427624 Ry

     iteration #  8     ecut=    30.00 Ry     beta=0.70
     Davidson diagonalization with overlap
     ethr =  1.49E-03,  avg # of iterations =  1.0

     negative rho (up, down):  1.206E-04 0.000E+00

     total cpu time spent up to now is        0.7 secs

     total energy              =     -31.81297861 Ry
     Harris-Foulkes estimate   =     -31.86205767 Ry
     estimated scf accuracy    <       0.84608881 Ry

     iteration #  9     ecut=    30.00 Ry     beta=0.70
     Davidson diagonalization with overlap
     ethr =  1.49E-03,  avg # of iterations =  1.0

     negative rho (up, down):  8.630E-06 0.000E+00

     total cpu time spent up to now is        0.8 secs

     total energy              =     -31.83616719 Ry
     Harris-Foulkes estimate   =     -31.83810504 Ry
     estimated scf accuracy    <       0.17065484 Ry

     iteration # 10     ecut=    30.00 Ry     beta=0.70
     Davidson diagonalization with overlap
     ethr =  1.49E-03,  avg # of iterations =  1.0

     negative rho (up, down):  1.125E-06 0.000E+00

     total cpu time spent up to now is        0.8 secs

     total energy              =     -31.82985156 Ry
     Harris-Foulkes estimate   =     -31.83661777 Ry
     estimated scf accuracy    <       0.05096541 Ry

     iteration # 11     ecut=    30.00 Ry     beta=0.70
     Davidson diagonalization with overlap
     ethr =  6.37E-04,  avg # of iterations =  1.0

     negative rho (up, down):  1.602E-07 0.000E+00

     total cpu time spent up to now is        0.9 secs

     total energy              =     -31.82834045 Ry
     Harris-Foulkes estimate   =     -31.84655087 Ry
     estimated scf accuracy    <       0.54804216 Ry

     iteration # 12     ecut=    30.00 Ry     beta=0.70
     Davidson diagonalization with overlap
     ethr =  6.37E-04,  avg # of iterations =  1.0

     negative rho (up, down):  4.160E-07 0.000E+00

     total cpu time spent up to now is        0.9 secs

     total energy              =     -31.83588036 Ry
     Harris-Foulkes estimate   =     -31.83597453 Ry
     estimated scf accuracy    <       0.00065628 Ry

     iteration # 13     ecut=    30.00 Ry     beta=0.70
     Davidson diagonalization with overlap
     ethr =  8.20E-06,  avg # of iterations = 10.0

     total cpu time spent up to now is        1.0 secs

     total energy              =     -31.83573911 Ry
     Harris-Foulkes estimate   =     -31.83615325 Ry
     estimated scf accuracy    <       0.01445864 Ry

     iteration # 14     ecut=    30.00 Ry     beta=0.70
     Davidson diagonalization with overlap
     ethr =  8.20E-06,  avg # of iterations =  1.0

     negative rho (up, down):  5.368E-08 0.000E+00

     total cpu time spent up to now is        1.0 secs

     total energy              =     -31.83593959 Ry
     Harris-Foulkes estimate   =     -31.83597231 Ry
     estimated scf accuracy    <       0.00021830 Ry

     iteration # 15     ecut=    30.00 Ry     beta=0.70
     Davidson diagonalization with overlap
     ethr =  2.73E-06,  avg # of iterations =  1.0

     negative rho (up, down):  4.034E-08 0.000E+00

     total cpu time spent up to now is        1.1 secs

     total energy              =     -31.83593446 Ry
     Harris-Foulkes estimate   =     -31.83603697 Ry
     estimated scf accuracy    <       0.00528069 Ry

     iteration # 16     ecut=    30.00 Ry     beta=0.70
     Davidson diagonalization with overlap
     ethr =  2.73E-06,  avg # of iterations =  1.0

     total cpu time spent up to now is        1.1 secs

     total energy              =     -31.83597144 Ry
     Harris-Foulkes estimate   =     -31.83597313 Ry
     estimated scf accuracy    <       0.00030994 Ry

     iteration # 17     ecut=    30.00 Ry     beta=0.70
     Davidson diagonalization with overlap
     ethr =  2.73E-06,  avg # of iterations =  1.0

     total cpu time spent up to now is        1.2 secs

     total energy              =     -31.83597004 Ry
     Harris-Foulkes estimate   =     -31.83597213 Ry
     estimated scf accuracy    <       0.00011885 Ry

     iteration # 18     ecut=    30.00 Ry     beta=0.70
     Davidson diagonalization with overlap
     ethr =  1.49E-06,  avg # of iterations =  1.0

     total cpu time spent up to now is        1.2 secs

     total energy              =     -31.83597068 Ry
     Harris-Foulkes estimate   =     -31.83597079 Ry
     estimated scf accuracy    <       0.00001092 Ry

     iteration # 19     ecut=    30.00 Ry     beta=0.70
     Davidson diagonalization with overlap
     ethr =  1.37E-07,  avg # of iterations =  1.0

     total cpu time spent up to now is        1.3 secs

     total energy              =     -31.83597055 Ry
     Harris-Foulkes estimate   =     -31.83597069 Ry
     estimated scf accuracy    <       0.00000694 Ry

     iteration # 20     ecut=    30.00 Ry     beta=0.70
     Davidson diagonalization with overlap
     ethr =  8.67E-08,  avg # of iterations =  1.0

     total cpu time spent up to now is        1.3 secs

     total energy              =     -31.83597037 Ry
     Harris-Foulkes estimate   =     -31.83597057 Ry
     estimated scf accuracy    <       0.00000226 Ry

     iteration # 21     ecut=    30.00 Ry     beta=0.70
     Davidson diagonalization with overlap
     ethr =  2.82E-08,  avg # of iterations =  1.0

     total cpu time spent up to now is        1.4 secs

     End of self-consistent calculation

          k = 0.0000 0.0000 0.0000 ( 22119 PWs)   bands (ev):

   -26.2567 -11.1309  -7.2113  -7.2102  -7.0677  -0.4690   0.4061   0.7894

     the Fermi energy is    -7.0392 ev

!    total energy              =     -31.83597031 Ry
     Harris-Foulkes estimate   =     -31.83597040 Ry
     estimated scf accuracy    <          2.1E-09 Ry

     convergence has been achieved in  21 iterations

     Forces acting on atoms (Ry/au):

     atom    1 type  2   force =     0.53251296   -0.26372232    0.22025977
     atom    2 type  1   force =    -0.00006666    0.00025272    0.00008104
     atom    3 type  1   force =    -0.53244629    0.26346960   -0.22034082

     Total force =     0.896158     Total SCF correction =     0.000090

     Molecular Dynamics Calculation

     Starting temperature  =  1000.00 K

     temperature is controlled by Andersen thermostat
     Collision frequency = 1.0000/timestep
     mass H                =     1.01
     mass O                =    16.00
     Time step             =   100.00 a.u.,  4.8378 femto-seconds

     Entering Dynamics:    iteration =     1
                           time      =   0.0048 pico-seconds


     Andersen thermostat:    3 collisions

ATOMIC_POSITIONS (bohr)
O       16.566885476   9.764879210  13.661717548
H        8.036407611  14.999869804  10.423998199
H       12.360583467  11.895397714  12.296804829


     kinetic energy (Ekin) =     0.01337019 Ry
     temperature           =   703.66124461 K 
     Ekin + Etot (const)   =   -31.82260012 Ry

     Linear momentum :   -0.0000000000   -0.0000000000   -0.0000000000

     Writing output data file pwscf.save
     Check: negative starting charge=   -0.350154
     NEW-OLD atomic charge density approx. for the potential
     Check: negative starting charge=   -0.347145

     negative rho (up, down):  4.041E-01 0.000E+00

     total cpu time spent up to now is        1.8 secs

     per-process dynamical memory:    20.4 Mb

     Self-consistent Calculation

     iteration #  1     ecut=    30.00 Ry     beta=0.70
     Davidson diagonalization with overlap
     ethr =  1.00E-06,  avg # of iterations = 14.0

     negative rho (up, down):  1.008E-01 0.000E+00

     total cpu time spent up to now is        2.0 secs

     total energy              =     -22.27498477 Ry
     Harris-Foulkes estimate   =     -34.09859158 Ry
     estimated scf accuracy    <       6.61744785 Ry

     iteration #  2     ecut=    30.00 Ry     beta=0.70
     Davidson diagonalization with overlap
     ethr =  1.00E-02,  avg # of iterations =  3.0

     negative rho (up, down):  7.203E-02 0.000E+00

     total cpu time spent up to now is        2.1 secs

     total energy              =     -32.50173937 Ry
     Harris-Foulkes estimate   =     -38.75183550 Ry
     estimated scf accuracy    <      14.86476373 Ry

     iteration #  3     ecut=    30.00 Ry     beta=0.70
     Davidson diagonalization with overlap
     ethr =  1.00E-02,  avg # of iterations =  3.0

     negative rho (up, down):  5.409E-02 0.000E+00

     total cpu time spent up to now is        2.1 secs

     total energy              =     -31.49933256 Ry
     Harris-Foulkes estimate   =     -32.94011326 Ry
     estimated scf accuracy    <       5.20304405 Ry

     iteration #  4     ecut=    30.00 Ry     beta=0.70
     Davidson diagonalization with overlap
     ethr =  1.00E-02,  avg # of iterations =  2.0

     negative rho (up, down):  4.606E-02 0.000E+00

     total cpu time spent up to now is        2.2 secs

     total energy              =     -31.48372128 Ry
     Harris-Foulkes estimate   =     -31.75457017 Ry
     estimated scf accuracy    <       1.18972126 Ry

     iteration #  5     ecut=    30.00 Ry     beta=0.70
     Davidson diagonalization with overlap
     ethr =  1.00E-02,  avg # of iterations =  1.0

     negative rho (up, down):  3.014E-02 0.000E+00

     total cpu time spent up to now is        2.2 secs

     total energy              =     -31.51110027 Ry
     Harris-Foulkes estimate   =     -31.87640852 Ry
     estimated scf accuracy    <       2.90865730 Ry

     iteration #  6     ecut=    30.00 Ry     beta=0.70
     Davidson diagonalization with overlap
     ethr =  1.00E-02,  avg # of iterations =  1.0

     negative rho (up, down):  3.996E-02 0.000E+00

     total cpu time spent up to now is        2.3 secs

     total energy              =     -31.62324383 Ry
     Harris-Foulkes estimate   =     -31.60841338 Ry
     estimated scf accuracy    <       0.66497191 Ry

     iteration #  7     ecut=    30.00 Ry     beta=0.70
     Davidson diagonalization with overlap
     ethr =  8.31E-03,  avg # of iterations =  1.0

     negative rho (up, down):  9.544E-03 0.000E+00

     total cpu time spent up to now is        2.3 secs

     total energy              =     -31.40062912 Ry
     Harris-Foulkes estimate   =     -31.94200892 Ry
     estimated scf accuracy    <       3.30055530 Ry

     iteration #  8     ecut=    30.00 Ry     beta=0.70
     Davidson diagonalization with overlap
     ethr =  8.31E-03,  avg # of iterations =  1.0

     negative rho (up, down):  1.026E-02 0.000E+00

     total cpu time spent up to now is        2.4 secs

     total energy              =     -31.68876370 Ry
     Harris-Foulkes estimate   =     -31.82699140 Ry
     estimated scf accuracy    <       1.40642094 Ry

     iteration #  9     ecut=    30.00 Ry     beta=0.70
     Davidson diagonalization with overlap
     ethr =  8.31E-03,  avg # of iterations =  1.0

     negative rho (up, down):  9.512E-03 0.000E+00

     total cpu time spent up to now is        2.4 secs

     total energy              =     -31.69586818 Ry
     Harris-Foulkes estimate   =     -31.71072607 Ry
     estimated scf accuracy    <       1.23378623 Ry

     iteration # 10     ecut=    30.00 Ry     beta=0.70
     Davidson diagonalization with overlap
     ethr =  8.31E-03,  avg # of iterations =  1.0

     negative rho (up, down):  3.800E-04 0.000E+00

     total cpu time spent up to now is        2.5 secs

     total energy              =     -31.64886048 Ry
     Harris-Foulkes estimate   =     -31.69632530 Ry
     estimated scf accuracy    <       1.22760507 Ry

     iteration # 11     ecut=    30.00 Ry     beta=0.70
     Davidson diagonalization with overlap
     ethr =  8.31E-03,  avg # of iterations =  1.0

     negative rho (up, down):  5.687E-05 0.000E+00

     total cpu time spent up to now is        2.5 secs

     total energy              =     -31.45013290 Ry
     Harris-Foulkes estimate   =     -31.65088685 Ry
     estimated scf accuracy    <       1.07870468 Ry

     iteration # 12     ecut=    30.00 Ry     beta=0.70
     Davidson diagonalization with overlap
     ethr =  8.31E-03,  avg # of iterations =  1.0

     negative rho (up, down):  1.375E-04 0.000E+00

     total cpu time spent up to now is        2.6 secs

     total energy              =     -31.76846849 Ry
     Harris-Foulkes estimate   =     -31.69662157 Ry
     estimated scf accuracy    <       0.95121694 Ry

     iteration # 13     ecut=    30.00 Ry     beta=0.70
     Davidson diagonalization with overlap
     ethr =  8.31E-03,  avg # of iterations =  1.0

     negative rho (up, down):  3.260E-05 0.000E+00

     total cpu time spent up to now is        2.6 secs

     total energy              =     -31.68607106 Ry
     Harris-Foulkes estimate   =     -31.77779704 Ry
     estimated scf accuracy    <       0.97518570 Ry

     iteration # 14     ecut=    30.00 Ry     beta=0.70
     Davidson diagonalization with overlap
     ethr =  8.31E-03,  avg # of iterations =  1.0

     negative rho (up, down):  4.936E-06 0.000E+00

     total cpu time spent up to now is        2.7 secs

     total energy              =     -31.61581674 Ry
     Harris-Foulkes estimate   =     -31.68878748 Ry
     estimated scf accuracy    <       0.84803969 Ry

     iteration # 15     ecut=    30.00 Ry     beta=0.70
     Davidson diagonalization with overlap
     ethr =  8.31E-03,  avg # of iterations =  1.0

     negative rho (up, down):  2.395E-06 0.000E+00

     total cpu time spent up to now is        2.7 secs

     total energy              =     -31.58589791 Ry
     Harris-Foulkes estimate   =     -31.62336386 Ry
     estimated scf accuracy    <       1.03212051 Ry

     iteration # 16     ecut=    30.00 Ry     beta=0.70
     Davidson diagonalization with overlap
     ethr =  8.31E-03,  avg # of iterations =  1.0

     negative rho (up, down):  6.847E-08 0.000E+00

     total cpu time spent up to now is        2.8 secs

     total energy              =     -31.57902436 Ry
     Harris-Foulkes estimate   =     -31.59263641 Ry
     estimated scf accuracy    <       0.49529726 Ry

     iteration # 17     ecut=    30.00 Ry     beta=0.70
     Davidson diagonalization with overlap
     ethr =  6.19E-03,  avg # of iterations =  1.0

     negative rho (up, down):  4.159E-08 0.000E+00

     total cpu time spent up to now is        2.8 secs

     total energy              =     -31.58741468 Ry
     Harris-Foulkes estimate   =     -31.58119535 Ry
     estimated scf accuracy    <       0.41209556 Ry

     iteration # 18     ecut=    30.00 Ry     beta=0.70
     Davidson diagonalization with overlap
     ethr =  5.15E-03,  avg # of iterations =  1.0

     negative rho (up, down):  4.523E-07 0.000E+00

     total cpu time spent up to now is        2.9 secs

     total energy              =     -31.59137345 Ry
     Harris-Foulkes estimate   =     -31.58824163 Ry
     estimated scf accuracy    <       0.63119028 Ry

     iteration # 19     ecut=    30.00 Ry     beta=0.70
     Davidson diagonalization with overlap
     ethr =  5.15E-03,  avg # of iterations =  1.0

     negative rho (up, down):  1.315E-08 0.000E+00

     total cpu time spent up to now is        2.9 secs

     total energy              =     -31.59160192 Ry
     Harris-Foulkes estimate   =     -31.59152117 Ry
     estimated scf accuracy    <       0.72878591 Ry

     iteration # 20     ecut=    30.00 Ry     beta=0.70
     Davidson diagonalization with overlap
     ethr =  5.15E-03,  avg # of iterations =  1.0

     negative rho (up, down):  1.118E-05 0.000E+00

     total cpu time spent up to now is        3.0 secs

     total energy              =     -31.55984582 Ry
     Harris-Foulkes estimate   =     -31.59160904 Ry
     estimated scf accuracy    <       0.73533159 Ry

     iteration # 21     ecut=    30.00 Ry     beta=0.70
     Davidson diagonalization with overlap
     ethr =  5.15E-03,  avg # of iterations =  1.0

     negative rho (up, down):  2.300E-06 0.000E+00

     total cpu time spent up to now is        3.0 secs

     total energy              =     -31.56555948 Ry
     Harris-Foulkes estimate   =     -31.56906882 Ry
     estimated scf accuracy    <       0.04056081 Ry

     iteration # 22     ecut=    30.00 Ry     beta=0.70
     Davidson diagonalization with overlap
     ethr =  5.07E-04,  avg # of iterations =  1.0

     negative rho (up, down):  8.250E-07 0.000E+00

     total cpu time spent up to now is        3.1 secs

     total energy              =     -31.56471469 Ry
     Harris-Foulkes estimate   =     -31.57010383 Ry
     estimated scf accuracy    <       0.10964499 Ry

     iteration # 23     ecut=    30.00 Ry     beta=0.70
     Davidson diagonalization with overlap
     ethr =  5.07E-04,  avg # of iterations =  1.0

     negative rho (up, down):  3.663E-08 0.000E+00

     total cpu time spent up to now is        3.1 secs

     total energy              =     -31.56634582 Ry
     Harris-Foulkes estimate   =     -31.56861313 Ry
     estimated scf accuracy    <       0.02271099 Ry

     iteration # 24     ecut=    30.00 Ry     beta=0.70
     Davidson diagonalization with overlap
     ethr =  2.84E-04,  avg # of iterations =  1.0

     total cpu time spent up to now is        3.2 secs

     total energy              =     -31.56652729 Ry
     Harris-Foulkes estimate   =     -31.56993766 Ry
     estimated scf accuracy    <       0.10372267 Ry

     iteration # 25     ecut=    30.00 Ry     beta=0.70
     Davidson diagonalization with overlap
     ethr =  2.84E-04,  avg # of iterations =  1.0

     total cpu time spent up to now is        3.2 secs

     total energy              =     -31.56820866 Ry
     Harris-Foulkes estimate   =     -31.56820873 Ry
     estimated scf accuracy    <       0.00000091 Ry

     iteration # 26     ecut=    30.00 Ry     beta=0.70
     Davidson diagonalization with overlap
     c_bands:  1 eigenvalues not converged
     ethr =  1.14E-08,  avg # of iterations = 20.0

     total cpu time spent up to now is        3.3 secs

     total energy              =     -31.56820896 Ry
     Harris-Foulkes estimate   =     -31.56820950 Ry
     estimated scf accuracy    <       0.00001226 Ry

     iteration # 27     ecut=    30.00 Ry     beta=0.70
     Davidson diagonalization with overlap
     ethr =  1.14E-08,  avg # of iterations = 18.0

     total cpu time spent up to now is        3.4 secs

     total energy              =     -31.56820928 Ry
     Harris-Foulkes estimate   =     -31.56820926 Ry
     estimated scf accuracy    <       0.00000054 Ry

     iteration # 28     ecut=    30.00 Ry     beta=0.70
     Davidson diagonalization with overlap
     ethr =  6.73E-09,  avg # of iterations =  1.0

     total cpu time spent up to now is        3.4 secs

     total energy              =     -31.56820929 Ry
     Harris-Foulkes estimate   =     -31.56820929 Ry
     estimated scf accuracy    <       0.00000008 Ry

     iteration # 29     ecut=    30.00 Ry     beta=0.70
     Davidson diagonalization with overlap
     ethr =  1.05E-09,  avg # of iterations =  1.0

     total cpu time spent up to now is        3.5 secs

     End of self-consistent calculation

          k = 0.0000 0.0000 0.0000 ( 22119 PWs)   bands (ev):

   -23.8136  -7.8148  -7.1695  -7.1692  -7.0887  -6.3598  -0.1653   0.6206

     the Fermi energy is    -7.0219 ev

!    total energy              =     -31.56820932 Ry
     Harris-Foulkes estimate   =     -31.56820929 Ry
     estimated scf accuracy    <          1.9E-09 Ry

     convergence has been achieved in  29 iterations

     Forces acting on atoms (Ry/au):

     atom    1 type  2   force =    -0.04820272    0.02463246   -0.01450038
     atom    2 type  1   force =     0.01138417   -0.00837977    0.00437972
     atom    3 type  1   force =     0.03681856   -0.01625269    0.01012066

     Total force =     0.071286     Total SCF correction =     0.000023

     Entering Dynamics:    iteration =     2
                           time      =   0.0097 pico-seconds


     Andersen thermostat:    3 collisions

ATOMIC_POSITIONS (bohr)
O       16.536341262   9.766091782  13.647676972
H        8.203869560  14.783295792  10.615705233
H       12.676990260  12.092762676  12.327522763


     kinetic energy (Ekin) =     0.00985109 Ry
     temperature           =   518.45412434 K 
     Ekin + Etot (const)   =   -31.55835823 Ry
     Message from routine dynamics:
     Total linear momentum <> 0

     Linear momentum :    0.0316409203    0.3676783473    0.1781879288

     Writing output data file pwscf.save

     first order wave-functions extrapolation
     Check: negative starting charge=   -0.347145
     first order charge density extrapolation
     Check: negative starting charge=   -0.347325

     negative rho (up, down):  4.334E-01 0.000E+00

     total cpu time spent up to now is        3.9 secs

     per-process dynamical memory:    20.4 Mb

     Self-consistent Calculation

     iteration #  1     ecut=    30.00 Ry     beta=0.70
     Davidson diagonalization with overlap
     ethr =  1.00E-06,  avg # of iterations =  8.0

     negative rho (up, down):  1.035E-01 0.000E+00

     total cpu time spent up to now is        4.1 secs

     total energy              =      64.57919532 Ry
     Harris-Foulkes estimate   =    -122.90201666 Ry
     estimated scf accuracy    <      33.88507506 Ry

     iteration #  2     ecut=    30.00 Ry     beta=0.70
     Davidson diagonalization with overlap
     ethr =  1.00E-02,  avg # of iterations =  7.0

     negative rho (up, down):  6.373E-02 0.000E+00

     total cpu time spent up to now is        4.2 secs

     total energy              =     -36.68186800 Ry
     Harris-Foulkes estimate   =     -50.96994553 Ry
     estimated scf accuracy    <      28.87862985 Ry

     iteration #  3     ecut=    30.00 Ry     beta=0.70
     Davidson diagonalization with overlap
     ethr =  1.00E-02,  avg # of iterations =  3.0

     negative rho (up, down):  5.666E-02 0.000E+00

     total cpu time spent up to now is        4.2 secs

     total energy              =     -35.40168909 Ry
     Harris-Foulkes estimate   =     -37.25083818 Ry
     estimated scf accuracy    <      12.29918651 Ry

     iteration #  4     ecut=    30.00 Ry     beta=0.70
     Davidson diagonalization with overlap
     ethr =  1.00E-02,  avg # of iterations =  1.0

     negative rho (up, down):  3.266E-02 0.000E+00

     total cpu time spent up to now is        4.3 secs

     total energy              =     -32.48189149 Ry
     Harris-Foulkes estimate   =     -36.16646279 Ry
     estimated scf accuracy    <       8.27544780 Ry

     iteration #  5     ecut=    30.00 Ry     beta=0.70
     Davidson diagonalization with overlap
     ethr =  1.00E-02,  avg # of iterations =  2.0

     negative rho (up, down):  1.479E-02 0.000E+00

     total cpu time spent up to now is        4.3 secs

     total energy              =     -31.41450153 Ry
     Harris-Foulkes estimate   =     -32.63291659 Ry
     estimated scf accuracy    <       3.03608027 Ry

     iteration #  6     ecut=    30.00 Ry     beta=0.70
     Davidson diagonalization with overlap
     ethr =  1.00E-02,  avg # of iterations =  4.0

     negative rho (up, down):  1.684E-02 0.000E+00

     total cpu time spent up to now is        4.4 secs

     total energy              =     -31.92664827 Ry
     Harris-Foulkes estimate   =     -32.01928994 Ry
     estimated scf accuracy    <       1.75362870 Ry

     iteration #  7     ecut=    30.00 Ry     beta=0.70
     Davidson diagonalization with overlap
     ethr =  1.00E-02,  avg # of iterations =  1.0

     negative rho (up, down):  1.444E-02 0.000E+00

     total cpu time spent up to now is        4.4 secs

     total energy              =     -31.75756231 Ry
     Harris-Foulkes estimate   =     -31.95933015 Ry
     estimated scf accuracy    <       1.78145463 Ry

     iteration #  8     ecut=    30.00 Ry     beta=0.70
     Davidson diagonalization with overlap
     ethr =  1.00E-02,  avg # of iterations =  1.0

     negative rho (up, down):  1.415E-02 0.000E+00

     total cpu time spent up to now is        4.5 secs

     total energy              =     -31.86336246 Ry
     Harris-Foulkes estimate   =     -31.78713933 Ry
     estimated scf accuracy    <       1.29872951 Ry

     iteration #  9     ecut=    30.00 Ry     beta=0.70
     Davidson diagonalization with overlap
     ethr =  1.00E-02,  avg # of iterations =  1.0

     negative rho (up, down):  1.179E-02 0.000E+00

     total cpu time spent up to now is        4.5 secs

     total energy              =     -31.75676028 Ry
     Harris-Foulkes estimate   =     -31.86650589 Ry
     estimated scf accuracy    <       1.52966438 Ry

     iteration # 10     ecut=    30.00 Ry     beta=0.70
     Davidson diagonalization with overlap
     ethr =  1.00E-02,  avg # of iterations =  1.0

     negative rho (up, down):  1.319E-03 0.000E+00

     total cpu time spent up to now is        4.6 secs

     total energy              =     -31.46927035 Ry
     Harris-Foulkes estimate   =     -31.77382356 Ry
     estimated scf accuracy    <       1.43894799 Ry

     iteration # 11     ecut=    30.00 Ry     beta=0.70
     Davidson diagonalization with overlap
     ethr =  1.00E-02,  avg # of iterations =  1.0

     negative rho (up, down):  3.487E-03 0.000E+00

     total cpu time spent up to now is        4.6 secs

     total energy              =     -32.43607017 Ry
     Harris-Foulkes estimate   =     -32.36849181 Ry
     estimated scf accuracy    <       5.09432019 Ry

     iteration # 12     ecut=    30.00 Ry     beta=0.70
     Davidson diagonalization with overlap
     ethr =  1.00E-02,  avg # of iterations =  1.0

     negative rho (up, down):  1.048E-05 0.000E+00

     total cpu time spent up to now is        4.7 secs

     total energy              =     -32.23799289 Ry
     Harris-Foulkes estimate   =     -32.47316841 Ry
     estimated scf accuracy    <       5.05395238 Ry

     iteration # 13     ecut=    30.00 Ry     beta=0.70
     Davidson diagonalization with overlap
     ethr =  1.00E-02,  avg # of iterations =  1.0

     negative rho (up, down):  1.157E+00 0.000E+00

     total cpu time spent up to now is        4.7 secs

     total energy              =     -35.33852701 Ry
     Harris-Foulkes estimate   =     -32.29009746 Ry
     estimated scf accuracy    <       5.34333471 Ry

     iteration # 14     ecut=    30.00 Ry     beta=0.70
     Davidson diagonalization with overlap
     ethr =  1.00E-02,  avg # of iterations =  5.0

     negative rho (up, down):  1.282E+00 0.000E+00

     total cpu time spent up to now is        4.8 secs

     total energy              =     -39.11646902 Ry
     Harris-Foulkes estimate   =     -38.41276417 Ry
     estimated scf accuracy    <      29.61674378 Ry

     iteration # 15     ecut=    30.00 Ry     beta=0.70
     Davidson diagonalization with overlap
     ethr =  1.00E-02,  avg # of iterations =  2.0

     negative rho (up, down):  2.080E+00 0.000E+00

     total cpu time spent up to now is        4.9 secs

     total energy              =     -41.62316630 Ry
     Harris-Foulkes estimate   =     -39.17698398 Ry
     estimated scf accuracy    <      30.51697595 Ry

     iteration # 16     ecut=    30.00 Ry     beta=0.70
     Davidson diagonalization with overlap
     ethr =  1.00E-02,  avg # of iterations =  7.0

     negative rho (up, down):  1.388E-01 0.000E+00

     total cpu time spent up to now is        4.9 secs

     total energy              =      -4.29727209 Ry
     Harris-Foulkes estimate   =     -67.74818685 Ry
     estimated scf accuracy    <      23.24338894 Ry

     iteration # 17     ecut=    30.00 Ry     beta=0.70
     Davidson diagonalization with overlap
     ethr =  1.00E-02,  avg # of iterations =  5.0

     negative rho (up, down):  3.635E-02 0.000E+00

     total cpu time spent up to now is        5.0 secs

     total energy              =     -31.45590381 Ry
     Harris-Foulkes estimate   =     -32.56197257 Ry
     estimated scf accuracy    <       3.12910600 Ry

     iteration # 18     ecut=    30.00 Ry     beta=0.70
     Davidson diagonalization with overlap
     ethr =  1.00E-02,  avg # of iterations =  3.0

     negative rho (up, down):  1.186E-01 0.000E+00

     total cpu time spent up to now is        5.1 secs

     total energy              =     -31.38527326 Ry
     Harris-Foulkes estimate   =     -31.77587471 Ry
     estimated scf accuracy    <       3.11668045 Ry

     iteration # 19     ecut=    30.00 Ry     beta=0.70
     Davidson diagonalization with overlap
     ethr =  1.00E-02,  avg # of iterations =  1.0

     negative rho (up, down):  6.991E-02 0.000E+00

     total cpu time spent up to now is        5.1 secs

     total energy              =     -31.27647953 Ry
     Harris-Foulkes estimate   =     -31.52601013 Ry
     estimated scf accuracy    <       0.76411981 Ry

     iteration # 20     ecut=    30.00 Ry     beta=0.70
     Davidson diagonalization with overlap
     ethr =  9.55E-03,  avg # of iterations =  5.0

     negative rho (up, down):  5.144E-02 0.000E+00

     total cpu time spent up to now is        5.2 secs

     total energy              =     -31.61513068 Ry
     Harris-Foulkes estimate   =     -32.04042128 Ry
     estimated scf accuracy    <       2.00007768 Ry

     iteration # 21     ecut=    30.00 Ry     beta=0.70
     Davidson diagonalization with overlap
     ethr =  9.55E-03,  avg # of iterations =  1.0

     negative rho (up, down):  6.336E-02 0.000E+00

     total cpu time spent up to now is        5.2 secs

     total energy              =     -31.67146507 Ry
     Harris-Foulkes estimate   =     -31.66834891 Ry
     estimated scf accuracy    <       0.61628398 Ry

     iteration # 22     ecut=    30.00 Ry     beta=0.70
     Davidson diagonalization with overlap
     ethr =  7.70E-03,  avg # of iterations =  1.0

     negative rho (up, down):  2.710E-02 0.000E+00

     total cpu time spent up to now is        5.3 secs

     total energy              =     -31.65668023 Ry
     Harris-Foulkes estimate   =     -31.68404768 Ry
     estimated scf accuracy    <       0.84320930 Ry

     iteration # 23     ecut=    30.00 Ry     beta=0.70
     Davidson diagonalization with overlap
     ethr =  7.70E-03,  avg # of iterations =  1.0

     negative rho (up, down):  7.687E-02 0.000E+00

     total cpu time spent up to now is        5.4 secs

     total energy              =     -31.62465861 Ry
     Harris-Foulkes estimate   =     -31.82986712 Ry
     estimated scf accuracy    <       1.94464365 Ry

     iteration # 24     ecut=    30.00 Ry     beta=0.70
     Davidson diagonalization with overlap
     ethr =  7.70E-03,  avg # of iterations =  1.0

     negative rho (up, down):  1.040E-03 0.000E+00

     total cpu time spent up to now is        5.4 secs

     total energy              =     -31.77721769 Ry
     Harris-Foulkes estimate   =     -31.65561104 Ry
     estimated scf accuracy    <       1.06828717 Ry

     iteration # 25     ecut=    30.00 Ry     beta=0.70
     Davidson diagonalization with overlap
     ethr =  7.70E-03,  avg # of iterations =  2.0

     negative rho (up, down):  1.029E-03 0.000E+00

     total cpu time spent up to now is        5.5 secs

     total energy              =     -31.88679412 Ry
     Harris-Foulkes estimate   =     -31.92821081 Ry
     estimated scf accuracy    <       1.72357359 Ry

     iteration # 26     ecut=    30.00 Ry     beta=0.70
     Davidson diagonalization with overlap
     ethr =  7.70E-03,  avg # of iterations =  1.0

     negative rho (up, down):  1.566E-03 0.000E+00

     total cpu time spent up to now is        5.5 secs

     total energy              =     -31.78496685 Ry
     Harris-Foulkes estimate   =     -31.88899282 Ry
     estimated scf accuracy    <       1.75539776 Ry

     iteration # 27     ecut=    30.00 Ry     beta=0.70
     Davidson diagonalization with overlap
     ethr =  7.70E-03,  avg # of iterations =  1.0

     negative rho (up, down):  1.572E-03 0.000E+00

     total cpu time spent up to now is        5.6 secs

     total energy              =     -31.83934338 Ry
     Harris-Foulkes estimate   =     -31.78665564 Ry
     estimated scf accuracy    <       1.54201257 Ry

     iteration # 28     ecut=    30.00 Ry     beta=0.70
     Davidson diagonalization with overlap
     ethr =  7.70E-03,  avg # of iterations =  1.0

     negative rho (up, down):  1.588E-01 0.000E+00

     total cpu time spent up to now is        5.6 secs

     total energy              =     -32.53668778 Ry
     Harris-Foulkes estimate   =     -31.83997035 Ry
     estimated scf accuracy    <       1.68363613 Ry

     iteration # 29     ecut=    30.00 Ry     beta=0.70
     Davidson diagonalization with overlap
     ethr =  7.70E-03,  avg # of iterations =  2.0

     negative rho (up, down):  1.535E-01 0.000E+00

     total cpu time spent up to now is        5.7 secs

     total energy              =     -32.31320233 Ry
     Harris-Foulkes estimate   =     -32.65011183 Ry
     estimated scf accuracy    <       3.50642944 Ry

     iteration # 30     ecut=    30.00 Ry     beta=0.70
     Davidson diagonalization with overlap
     ethr =  7.70E-03,  avg # of iterations =  2.0

     negative rho (up, down):  1.953E-01 0.000E+00

     total cpu time spent up to now is        5.7 secs

     total energy              =     -32.47173415 Ry
     Harris-Foulkes estimate   =     -32.48000593 Ry
     estimated scf accuracy    <       3.78513646 Ry

     iteration # 31     ecut=    30.00 Ry     beta=0.70
     Davidson diagonalization with overlap
     ethr =  7.70E-03,  avg # of iterations =  3.0

     negative rho (up, down):  1.470E-01 0.000E+00

     total cpu time spent up to now is        5.8 secs

     total energy              =     -32.53681375 Ry
     Harris-Foulkes estimate   =     -32.75820117 Ry
     estimated scf accuracy    <       4.40839895 Ry

     iteration # 32     ecut=    30.00 Ry     beta=0.70
     Davidson diagonalization with overlap
     ethr =  7.70E-03,  avg # of iterations =  3.0

     negative rho (up, down):  7.251E-03 0.000E+00

     total cpu time spent up to now is        5.8 secs

     total energy              =     -29.37380043 Ry
     Harris-Foulkes estimate   =     -32.94415057 Ry
     estimated scf accuracy    <       3.25828355 Ry

     iteration # 33     ecut=    30.00 Ry     beta=0.70
     Davidson diagonalization with overlap
     ethr =  7.70E-03,  avg # of iterations =  3.0

     negative rho (up, down):  7.755E-05 0.000E+00

     total cpu time spent up to now is        5.9 secs

     total energy              =     -31.51415472 Ry
     Harris-Foulkes estimate   =     -32.29427237 Ry
     estimated scf accuracy    <       2.67371022 Ry

     iteration # 34     ecut=    30.00 Ry     beta=0.70
     Davidson diagonalization with overlap
     ethr =  7.70E-03,  avg # of iterations =  2.0

     negative rho (up, down):  1.170E-04 0.000E+00

     total cpu time spent up to now is        6.0 secs

     total energy              =     -31.57712875 Ry
     Harris-Foulkes estimate   =     -31.58235792 Ry
     estimated scf accuracy    <       0.02971785 Ry

     iteration # 35     ecut=    30.00 Ry     beta=0.70
     Davidson diagonalization with overlap
     ethr =  3.71E-04,  avg # of iterations =  3.0

     negative rho (up, down):  1.841E-04 0.000E+00

     total cpu time spent up to now is        6.0 secs

     total energy              =     -31.57964776 Ry
     Harris-Foulkes estimate   =     -31.58177586 Ry
     estimated scf accuracy    <       0.01000320 Ry

     iteration # 36     ecut=    30.00 Ry     beta=0.70
     Davidson diagonalization with overlap
     ethr =  1.25E-04,  avg # of iterations =  3.0

     negative rho (up, down):  4.612E-04 0.000E+00

     total cpu time spent up to now is        6.1 secs

     total energy              =     -31.51350800 Ry
     Harris-Foulkes estimate   =     -31.60541943 Ry
     estimated scf accuracy    <       0.98764468 Ry

     iteration # 37     ecut=    30.00 Ry     beta=0.70
     Davidson diagonalization with overlap
     ethr =  1.25E-04,  avg # of iterations =  2.0

     negative rho (up, down):  5.168E-05 0.000E+00

     total cpu time spent up to now is        6.1 secs

     total energy              =     -31.57198862 Ry
     Harris-Foulkes estimate   =     -31.61482641 Ry
     estimated scf accuracy    <       0.88489636 Ry

     iteration # 38     ecut=    30.00 Ry     beta=0.70
     Davidson diagonalization with overlap
     ethr =  1.25E-04,  avg # of iterations =  1.0

     negative rho (up, down):  1.094E-05 0.000E+00

     total cpu time spent up to now is        6.2 secs

     total energy              =     -31.58946128 Ry
     Harris-Foulkes estimate   =     -31.58383212 Ry
     estimated scf accuracy    <       0.04053506 Ry

     iteration # 39     ecut=    30.00 Ry     beta=0.70
     Davidson diagonalization with overlap
     ethr =  1.25E-04,  avg # of iterations =  1.0

     negative rho (up, down):  7.648E-06 0.000E+00

     total cpu time spent up to now is        6.2 secs

     total energy              =     -31.59906899 Ry
     Harris-Foulkes estimate   =     -31.59664792 Ry
     estimated scf accuracy    <       0.53106519 Ry

     iteration # 40     ecut=    30.00 Ry     beta=0.70
     Davidson diagonalization with overlap
     ethr =  1.25E-04,  avg # of iterations =  1.0

     negative rho (up, down):  9.798E-08 0.000E+00

     total cpu time spent up to now is        6.3 secs

     total energy              =     -31.58859986 Ry
     Harris-Foulkes estimate   =     -31.59913868 Ry
     estimated scf accuracy    <       0.58889224 Ry

     iteration # 41     ecut=    30.00 Ry     beta=0.70
     Davidson diagonalization with overlap
     ethr =  1.25E-04,  avg # of iterations =  1.0

     total cpu time spent up to now is        6.3 secs

     total energy              =     -31.58347705 Ry
     Harris-Foulkes estimate   =     -31.58993939 Ry
     estimated scf accuracy    <       0.29292028 Ry

     iteration # 42     ecut=    30.00 Ry     beta=0.70
     Davidson diagonalization with overlap
     ethr =  1.25E-04,  avg # of iterations =  1.0

     total cpu time spent up to now is        6.4 secs

     total energy              =     -31.58305957 Ry
     Harris-Foulkes estimate   =     -31.58498787 Ry
     estimated scf accuracy    <       0.07114195 Ry

     iteration # 43     ecut=    30.00 Ry     beta=0.70
     Davidson diagonalization with overlap
     ethr =  1.25E-04,  avg # of iterations =  1.0

     total cpu time spent up to now is        6.4 secs

     total energy              =     -31.58357089 Ry
     Harris-Foulkes estimate   =     -31.58371288 Ry
     estimated scf accuracy    <       0.00586302 Ry

     iteration # 44     ecut=    30.00 Ry     beta=0.70
     Davidson diagonalization with overlap
     ethr =  7.33E-05,  avg # of iterations =  1.0

     total cpu time spent up to now is        6.5 secs

     total energy              =     -31.58362926 Ry
     Harris-Foulkes estimate   =     -31.58361801 Ry
     estimated scf accuracy    <       0.00070181 Ry

     iteration # 45     ecut=    30.00 Ry     beta=0.70
     Davidson diagonalization with overlap
     ethr =  8.77E-06,  avg # of iterations =  1.0

     total cpu time spent up to now is        6.5 secs

     total energy              =     -31.58358142 Ry
     Harris-Foulkes estimate   =     -31.58364005 Ry
     estimated scf accuracy    <       0.00224851 Ry

     iteration # 46     ecut=    30.00 Ry     beta=0.70
     Davidson diagonalization with overlap
     ethr =  8.77E-06,  avg # of iterations =  1.0

     total cpu time spent up to now is        6.6 secs

     total energy              =     -31.58359998 Ry
     Harris-Foulkes estimate   =     -31.58360373 Ry
     estimated scf accuracy    <       0.00011908 Ry

     iteration # 47     ecut=    30.00 Ry     beta=0.70
     Davidson diagonalization with overlap
     ethr =  1.49E-06,  avg # of iterations =  1.0

     total cpu time spent up to now is        6.6 secs

     total energy              =     -31.58360210 Ry
     Harris-Foulkes estimate   =     -31.58360208 Ry
     estimated scf accuracy    <       0.00000030 Ry

     iteration # 48     ecut=    30.00 Ry     beta=0.70
     Davidson diagonalization with overlap
     ethr =  3.75E-09,  avg # of iterations =  2.0

     total cpu time spent up to now is        6.7 secs

     total energy              =     -31.58360211 Ry
     Harris-Foulkes estimate   =     -31.58360220 Ry
     estimated scf accuracy    <       0.00000330 Ry

     iteration # 49     ecut=    30.00 Ry     beta=0.70
     Davidson diagonalization with overlap
     ethr =  3.75E-09,  avg # of iterations =  1.0

     total cpu time spent up to now is        6.7 secs

     total energy              =     -31.58360210 Ry
     Harris-Foulkes estimate   =     -31.58360214 Ry
     estimated scf accuracy    <       0.00000020 Ry

     iteration # 50     ecut=    30.00 Ry     beta=0.70
     Davidson diagonalization with overlap
     ethr =  2.53E-09,  avg # of iterations =  1.0

     total cpu time spent up to now is        6.8 secs

     End of self-consistent calculation

          k = 0.0000 0.0000 0.0000 ( 22119 PWs)   bands (ev):

   -23.8198  -7.9395  -7.1662  -7.1656  -7.0801  -6.2310  -0.1618   0.6215

     the Fermi energy is    -7.0146 ev

!    total energy              =     -31.58360209 Ry
     Harris-Foulkes estimate   =     -31.58360210 Ry
     estimated scf accuracy    <          9.1E-11 Ry

     convergence has been achieved in  50 iterations

     Forces acting on atoms (Ry/au):

     atom    1 type  2   force =    -0.05574249    0.03423360   -0.01843212
     atom    2 type  1   force =     0.01236107   -0.00779396    0.00446457
     atom    3 type  1   force =     0.04338143   -0.02643965    0.01396755

     Total force =     0.087341     Total SCF correction =     0.000005

     Entering Dynamics:    iteration =     3
                           time      =   0.0145 pico-seconds


     Andersen thermostat:    3 collisions

ATOMIC_POSITIONS (bohr)
O       16.482835544   9.795974055  13.632919251
H        8.466118818  14.784792040  10.953842682
H       13.262356344  11.617883873  12.223170996


     kinetic energy (Ekin) =     0.02341354 Ry
     temperature           =  1232.23350412 K 
     Ekin + Etot (const)   =   -31.56018856 Ry
     Message from routine dynamics:
     Total linear momentum <> 0

     Linear momentum :    0.3679424336   -0.4059240373    0.0655390169

     Writing output data file pwscf.save

     second order wave-functions extrapolation
     Check: negative starting charge=   -0.347325
     second order charge density extrapolation
     Check: negative starting charge=   -0.346667

     negative rho (up, down):  9.345E-02 0.000E+00

     total cpu time spent up to now is        7.3 secs

     per-process dynamical memory:    20.4 Mb

     Self-consistent Calculation

     iteration #  1     ecut=    30.00 Ry     beta=0.70
     Davidson diagonalization with overlap
     ethr =  1.00E-06,  avg # of iterations = 11.0

     negative rho (up, down):  2.007E-02 0.000E+00

     total cpu time spent up to now is        7.4 secs

     total energy              =       2.29389533 Ry
     Harris-Foulkes estimate   =     -64.68413037 Ry
     estimated scf accuracy    <      11.65716767 Ry

     iteration #  2     ecut=    30.00 Ry     beta=0.70
     Davidson diagonalization with overlap
     ethr =  1.00E-02,  avg # of iterations =  4.0

     negative rho (up, down):  1.312E-02 0.000E+00

     total cpu time spent up to now is        7.5 secs

     total energy              =     -32.78691190 Ry
     Harris-Foulkes estimate   =     -39.91607174 Ry
     estimated scf accuracy    <      14.36328590 Ry

     iteration #  3     ecut=    30.00 Ry     beta=0.70
     Davidson diagonalization with overlap
     ethr =  1.00E-02,  avg # of iterations =  3.0

     negative rho (up, down):  1.010E-02 0.000E+00

     total cpu time spent up to now is        7.6 secs

     total energy              =     -32.91734645 Ry
     Harris-Foulkes estimate   =     -34.22400530 Ry
     estimated scf accuracy    <       4.72489607 Ry

     iteration #  4     ecut=    30.00 Ry     beta=0.70
     Davidson diagonalization with overlap
     ethr =  1.00E-02,  avg # of iterations =  1.0

     negative rho (up, down):  7.797E-03 0.000E+00

     total cpu time spent up to now is        7.6 secs

     total energy              =     -32.20447281 Ry
     Harris-Foulkes estimate   =     -33.18073311 Ry
     estimated scf accuracy    <       4.47734618 Ry

     iteration #  5     ecut=    30.00 Ry     beta=0.70
     Davidson diagonalization with overlap
     ethr =  1.00E-02,  avg # of iterations =  1.0

     negative rho (up, down):  3.927E-03 0.000E+00

     total cpu time spent up to now is        7.7 secs

     total energy              =     -31.58644886 Ry
     Harris-Foulkes estimate   =     -32.47453344 Ry
     estimated scf accuracy    <       2.21361066 Ry

     iteration #  6     ecut=    30.00 Ry     beta=0.70
     Davidson diagonalization with overlap
     ethr =  1.00E-02,  avg # of iterations =  3.0

     negative rho (up, down):  4.641E-03 0.000E+00

     total cpu time spent up to now is        7.7 secs

     total energy              =     -31.80866920 Ry
     Harris-Foulkes estimate   =     -31.71527773 Ry
     estimated scf accuracy    <       0.39516887 Ry

     iteration #  7     ecut=    30.00 Ry     beta=0.70
     Davidson diagonalization with overlap
     ethr =  4.94E-03,  avg # of iterations =  1.0

     negative rho (up, down):  3.559E-03 0.000E+00

     total cpu time spent up to now is        7.8 secs

     total energy              =     -31.73507755 Ry
     Harris-Foulkes estimate   =     -31.88717885 Ry
     estimated scf accuracy    <       1.10252805 Ry

     iteration #  8     ecut=    30.00 Ry     beta=0.70
     Davidson diagonalization with overlap
     ethr =  4.94E-03,  avg # of iterations =  1.0

     negative rho (up, down):  4.161E-03 0.000E+00

     total cpu time spent up to now is        7.8 secs

     total energy              =     -31.90077883 Ry
     Harris-Foulkes estimate   =     -31.74862951 Ry
     estimated scf accuracy    <       0.39722097 Ry

     iteration #  9     ecut=    30.00 Ry     beta=0.70
     Davidson diagonalization with overlap
     ethr =  4.94E-03,  avg # of iterations =  1.0

     negative rho (up, down):  3.715E-04 0.000E+00

     total cpu time spent up to now is        7.9 secs

     total energy              =     -31.43888876 Ry
     Harris-Foulkes estimate   =     -31.97735840 Ry
     estimated scf accuracy    <       2.54989985 Ry

     iteration # 10     ecut=    30.00 Ry     beta=0.70
     Davidson diagonalization with overlap
     ethr =  4.94E-03,  avg # of iterations =  2.0

     negative rho (up, down):  1.208E-06 0.000E+00

     total cpu time spent up to now is        7.9 secs

     total energy              =     -31.79558513 Ry
     Harris-Foulkes estimate   =     -31.70280268 Ry
     estimated scf accuracy    <       1.08020892 Ry

     iteration # 11     ecut=    30.00 Ry     beta=0.70
     Davidson diagonalization with overlap
     ethr =  4.94E-03,  avg # of iterations =  1.0

     negative rho (up, down):  2.950E-06 0.000E+00

     total cpu time spent up to now is        8.0 secs

     total energy              =     -31.67710021 Ry
     Harris-Foulkes estimate   =     -31.81487731 Ry
     estimated scf accuracy    <       2.84918037 Ry

     iteration # 12     ecut=    30.00 Ry     beta=0.70
     Davidson diagonalization with overlap
     ethr =  4.94E-03,  avg # of iterations =  1.0

     negative rho (up, down):  7.975E-07 0.000E+00

     total cpu time spent up to now is        8.0 secs

     total energy              =     -31.74230965 Ry
     Harris-Foulkes estimate   =     -31.71512235 Ry
     estimated scf accuracy    <       0.52391679 Ry

     iteration # 13     ecut=    30.00 Ry     beta=0.70
     Davidson diagonalization with overlap
     ethr =  4.94E-03,  avg # of iterations =  1.0

     negative rho (up, down):  6.781E-06 0.000E+00

     total cpu time spent up to now is        8.1 secs

     total energy              =     -31.66072016 Ry
     Harris-Foulkes estimate   =     -31.75489067 Ry
     estimated scf accuracy    <       1.31333412 Ry

     iteration # 14     ecut=    30.00 Ry     beta=0.70
     Davidson diagonalization with overlap
     ethr =  4.94E-03,  avg # of iterations =  1.0

     negative rho (up, down):  3.851E-04 0.000E+00

     total cpu time spent up to now is        8.1 secs

     total energy              =     -31.56039917 Ry
     Harris-Foulkes estimate   =     -31.77791329 Ry
     estimated scf accuracy    <       1.01717880 Ry

     iteration # 15     ecut=    30.00 Ry     beta=0.70
     Davidson diagonalization with overlap
     ethr =  4.94E-03,  avg # of iterations =  1.0

     negative rho (up, down):  6.840E-02 0.000E+00

     total cpu time spent up to now is        8.2 secs

     total energy              =     -32.07000388 Ry
     Harris-Foulkes estimate   =     -31.75670559 Ry
     estimated scf accuracy    <       1.78913527 Ry

     iteration # 16     ecut=    30.00 Ry     beta=0.70
     Davidson diagonalization with overlap
     ethr =  4.94E-03,  avg # of iterations =  2.0

     negative rho (up, down):  2.537E-02 0.000E+00

     total cpu time spent up to now is        8.2 secs

     total energy              =     -31.88878643 Ry
     Harris-Foulkes estimate   =     -32.20113791 Ry
     estimated scf accuracy    <       4.05313133 Ry

     iteration # 17     ecut=    30.00 Ry     beta=0.70
     Davidson diagonalization with overlap
     ethr =  4.94E-03,  avg # of iterations =  2.0

     negative rho (up, down):  6.020E-06 0.000E+00

     total cpu time spent up to now is        8.3 secs

     total energy              =     -31.44580034 Ry
     Harris-Foulkes estimate   =     -31.95779490 Ry
     estimated scf accuracy    <       3.17237762 Ry

     iteration # 18     ecut=    30.00 Ry     beta=0.70
     Davidson diagonalization with overlap
     ethr =  4.94E-03,  avg # of iterations =  1.0

     negative rho (up, down):  2.729E-06 0.000E+00

     total cpu time spent up to now is        8.3 secs

     total energy              =     -31.65497574 Ry
     Harris-Foulkes estimate   =     -31.67595651 Ry
     estimated scf accuracy    <       0.95046462 Ry

     iteration # 19     ecut=    30.00 Ry     beta=0.70
     Davidson diagonalization with overlap
     ethr =  4.94E-03,  avg # of iterations =  1.0

     negative rho (up, down):  1.646E-07 0.000E+00

     total cpu time spent up to now is        8.4 secs

     total energy              =     -31.64956984 Ry
     Harris-Foulkes estimate   =     -31.67938287 Ry
     estimated scf accuracy    <       0.92290724 Ry

     iteration # 20     ecut=    30.00 Ry     beta=0.70
     Davidson diagonalization with overlap
     ethr =  4.94E-03,  avg # of iterations =  1.0

     negative rho (up, down):  5.518E-08 0.000E+00

     total cpu time spent up to now is        8.5 secs

     total energy              =     -31.59796726 Ry
     Harris-Foulkes estimate   =     -31.65338194 Ry
     estimated scf accuracy    <       0.36207703 Ry

     iteration # 21     ecut=    30.00 Ry     beta=0.70
     Davidson diagonalization with overlap
     ethr =  4.53E-03,  avg # of iterations =  1.0

     total cpu time spent up to now is        8.5 secs

     total energy              =     -31.66221501 Ry
     Harris-Foulkes estimate   =     -31.70382272 Ry
     estimated scf accuracy    <       1.16238144 Ry

     iteration # 22     ecut=    30.00 Ry     beta=0.70
     Davidson diagonalization with overlap
     ethr =  4.53E-03,  avg # of iterations =  1.0

     total cpu time spent up to now is        8.6 secs

     total energy              =     -31.65159371 Ry
     Harris-Foulkes estimate   =     -31.66134988 Ry
     estimated scf accuracy    <       1.10905625 Ry

     iteration # 23     ecut=    30.00 Ry     beta=0.70
     Davidson diagonalization with overlap
     ethr =  4.53E-03,  avg # of iterations =  1.0

     total cpu time spent up to now is        8.6 secs

     total energy              =     -31.63962792 Ry
     Harris-Foulkes estimate   =     -31.65273333 Ry
     estimated scf accuracy    <       0.62877707 Ry

     iteration # 24     ecut=    30.00 Ry     beta=0.70
     Davidson diagonalization with overlap
     ethr =  4.53E-03,  avg # of iterations =  1.0

     total cpu time spent up to now is        8.7 secs

     total energy              =     -31.64466688 Ry
     Harris-Foulkes estimate   =     -31.64446809 Ry
     estimated scf accuracy    <       0.03540917 Ry

     iteration # 25     ecut=    30.00 Ry     beta=0.70
     Davidson diagonalization with overlap
     ethr =  4.43E-04,  avg # of iterations =  1.0

     negative rho (up, down):  1.345E-08 0.000E+00

     total cpu time spent up to now is        8.7 secs

     total energy              =     -31.65094732 Ry
     Harris-Foulkes estimate   =     -31.64473686 Ry
     estimated scf accuracy    <       0.05260330 Ry

     iteration # 26     ecut=    30.00 Ry     beta=0.70
     Davidson diagonalization with overlap
     ethr =  4.43E-04,  avg # of iterations =  1.0

     total cpu time spent up to now is        8.8 secs

     total energy              =     -31.62061319 Ry
     Harris-Foulkes estimate   =     -31.66274983 Ry
     estimated scf accuracy    <       1.15517558 Ry

     iteration # 27     ecut=    30.00 Ry     beta=0.70
     Davidson diagonalization with overlap
     ethr =  4.43E-04,  avg # of iterations =  1.0

     total cpu time spent up to now is        8.8 secs

     total energy              =     -31.64435406 Ry
     Harris-Foulkes estimate   =     -31.64486708 Ry
     estimated scf accuracy    <       0.06568969 Ry

     iteration # 28     ecut=    30.00 Ry     beta=0.70
     Davidson diagonalization with overlap
     ethr =  4.43E-04,  avg # of iterations =  1.0

     total cpu time spent up to now is        8.8 secs

     total energy              =     -31.64349676 Ry
     Harris-Foulkes estimate   =     -31.64442429 Ry
     estimated scf accuracy    <       0.03565365 Ry

     iteration # 29     ecut=    30.00 Ry     beta=0.70
     Davidson diagonalization with overlap
     ethr =  4.43E-04,  avg # of iterations =  1.0

     total cpu time spent up to now is        8.9 secs

     total energy              =     -31.64389659 Ry
     Harris-Foulkes estimate   =     -31.64391499 Ry
     estimated scf accuracy    <       0.00019802 Ry

     iteration # 30     ecut=    30.00 Ry     beta=0.70
     Davidson diagonalization with overlap
     ethr =  2.48E-06,  avg # of iterations = 20.0

     total cpu time spent up to now is        9.0 secs

     total energy              =     -31.64389767 Ry
     Harris-Foulkes estimate   =     -31.64392554 Ry
     estimated scf accuracy    <       0.00104045 Ry

     iteration # 31     ecut=    30.00 Ry     beta=0.70
     Davidson diagonalization with overlap
     ethr =  2.48E-06,  avg # of iterations =  1.0

     total cpu time spent up to now is        9.0 secs

     total energy              =     -31.64391249 Ry
     Harris-Foulkes estimate   =     -31.64391252 Ry
     estimated scf accuracy    <       0.00000147 Ry

     iteration # 32     ecut=    30.00 Ry     beta=0.70
     Davidson diagonalization with overlap
     ethr =  1.84E-08,  avg # of iterations =  1.0

     total cpu time spent up to now is        9.1 secs

     total energy              =     -31.64391251 Ry
     Harris-Foulkes estimate   =     -31.64391252 Ry
     estimated scf accuracy    <       0.00000003 Ry

     iteration # 33     ecut=    30.00 Ry     beta=0.70
     Davidson diagonalization with overlap
     ethr =  3.67E-10,  avg # of iterations =  1.0

     total cpu time spent up to now is        9.1 secs

     End of self-consistent calculation

          k = 0.0000 0.0000 0.0000 ( 22119 PWs)   bands (ev):

   -23.7611  -8.3506  -7.0807  -7.0799  -6.9602  -5.6107  -0.1345   0.6471

     the Fermi energy is    -6.9165 ev

!    total energy              =     -31.64391249 Ry
     Harris-Foulkes estimate   =     -31.64391251 Ry
     estimated scf accuracy    <          1.4E-09 Ry

     convergence has been achieved in  33 iterations

     Forces acting on atoms (Ry/au):

     atom    1 type  2   force =    -0.08684227    0.05032250   -0.03794574
     atom    2 type  1   force =     0.00344528   -0.00298219    0.00086714
     atom    3 type  1   force =     0.08339699   -0.04734031    0.03707859

     Total force =     0.148682     Total SCF correction =     0.000013

     Entering Dynamics:    iteration =     4
                           time      =   0.0194 pico-seconds


     Andersen thermostat:    3 collisions

ATOMIC_POSITIONS (bohr)
O       16.390805639   9.811127051  13.629524172
H        8.397226179  14.514932555  10.758750148
H       14.789148458  11.647695901  12.472046955


     kinetic energy (Ekin) =     0.06688757 Ry
     temperature           =  3520.23303635 K 
     Ekin + Etot (const)   =   -31.57702492 Ry
     Message from routine dynamics:
     Total linear momentum <> 0

     Linear momentum :    0.2868737536    0.0527050046   -0.2617939527

     Writing output data file pwscf.save

     second order wave-functions extrapolation
     Check: negative starting charge=   -0.346667
     second order charge density extrapolation
     Check: negative starting charge=   -0.346930

     negative rho (up, down):  2.307E-01 0.000E+00

     total cpu time spent up to now is        9.6 secs

     per-process dynamical memory:    20.4 Mb

     Self-consistent Calculation

     iteration #  1     ecut=    30.00 Ry     beta=0.70
     Davidson diagonalization with overlap
     c_bands:  1 eigenvalues not converged
     ethr =  1.00E-06,  avg # of iterations = 20.0

     negative rho (up, down):  4.472E-02 0.000E+00

     total cpu time spent up to now is        9.9 secs

     total energy              =     -20.54737798 Ry
     Harris-Foulkes estimate   =     -36.61572985 Ry
     estimated scf accuracy    <       4.50235517 Ry

     iteration #  2     ecut=    30.00 Ry     beta=0.70
     Davidson diagonalization with overlap
     ethr =  1.00E-02,  avg # of iterations =  4.0

     negative rho (up, down):  2.750E-02 0.000E+00

     total cpu time spent up to now is       10.0 secs

     total energy              =     -32.03740960 Ry
     Harris-Foulkes estimate   =     -34.07473952 Ry
     estimated scf accuracy    <       4.54567018 Ry

     iteration #  3     ecut=    30.00 Ry     beta=0.70
     Davidson diagonalization with overlap
     ethr =  1.00E-02,  avg # of iterations =  2.0

     negative rho (up, down):  2.422E-02 0.000E+00

     total cpu time spent up to now is       10.0 secs

     total energy              =     -32.05394108 Ry
     Harris-Foulkes estimate   =     -32.77062017 Ry
     estimated scf accuracy    <       3.22412529 Ry

     iteration #  4     ecut=    30.00 Ry     beta=0.70
     Davidson diagonalization with overlap
     ethr =  1.00E-02,  avg # of iterations =  2.0

     negative rho (up, down):  1.634E-02 0.000E+00

     total cpu time spent up to now is       10.1 secs

     total energy              =     -31.92118309 Ry
     Harris-Foulkes estimate   =     -32.27017126 Ry
     estimated scf accuracy    <       1.75504002 Ry

     iteration #  5     ecut=    30.00 Ry     beta=0.70
     Davidson diagonalization with overlap
     ethr =  1.00E-02,  avg # of iterations =  1.0

     negative rho (up, down):  1.265E-02 0.000E+00

     total cpu time spent up to now is       10.1 secs

     total energy              =     -31.82867996 Ry
     Harris-Foulkes estimate   =     -32.02704609 Ry
     estimated scf accuracy    <       1.59798202 Ry

     iteration #  6     ecut=    30.00 Ry     beta=0.70
     Davidson diagonalization with overlap
     ethr =  1.00E-02,  avg # of iterations =  1.0

     negative rho (up, down):  7.628E-03 0.000E+00

     total cpu time spent up to now is       10.2 secs

     total energy              =     -31.86966585 Ry
     Harris-Foulkes estimate   =     -31.99918352 Ry
     estimated scf accuracy    <       1.32961623 Ry

     iteration #  7     ecut=    30.00 Ry     beta=0.70
     Davidson diagonalization with overlap
     ethr =  1.00E-02,  avg # of iterations =  1.0

     negative rho (up, down):  6.207E-03 0.000E+00

     total cpu time spent up to now is       10.2 secs

     total energy              =     -31.79697421 Ry
     Harris-Foulkes estimate   =     -31.87118761 Ry
     estimated scf accuracy    <       1.25024255 Ry

     iteration #  8     ecut=    30.00 Ry     beta=0.70
     Davidson diagonalization with overlap
     ethr =  1.00E-02,  avg # of iterations =  1.0

     negative rho (up, down):  5.637E-03 0.000E+00

     total cpu time spent up to now is       10.3 secs

     total energy              =     -31.82970493 Ry
     Harris-Foulkes estimate   =     -31.85754863 Ry
     estimated scf accuracy    <       0.79351309 Ry

     iteration #  9     ecut=    30.00 Ry     beta=0.70
     Davidson diagonalization with overlap
     ethr =  9.92E-03,  avg # of iterations =  1.0

     negative rho (up, down):  3.492E-03 0.000E+00

     total cpu time spent up to now is       10.3 secs

     total energy              =     -31.83684399 Ry
     Harris-Foulkes estimate   =     -31.84279288 Ry
     estimated scf accuracy    <       0.07698947 Ry

     iteration # 10     ecut=    30.00 Ry     beta=0.70
     Davidson diagonalization with overlap
     ethr =  9.62E-04,  avg # of iterations =  4.0

     negative rho (up, down):  7.097E-07 0.000E+00

     total cpu time spent up to now is       10.4 secs

     total energy              =     -31.83383167 Ry
     Harris-Foulkes estimate   =     -31.83820543 Ry
     estimated scf accuracy    <       0.05918853 Ry

     iteration # 11     ecut=    30.00 Ry     beta=0.70
     Davidson diagonalization with overlap
     ethr =  7.40E-04,  avg # of iterations =  1.0

     negative rho (up, down):  4.137E-08 0.000E+00

     total cpu time spent up to now is       10.4 secs

     total energy              =     -31.83547833 Ry
     Harris-Foulkes estimate   =     -31.85085758 Ry
     estimated scf accuracy    <       0.77223869 Ry

     iteration # 12     ecut=    30.00 Ry     beta=0.70
     Davidson diagonalization with overlap
     ethr =  7.40E-04,  avg # of iterations =  1.0

     total cpu time spent up to now is       10.5 secs

     total energy              =     -31.83902985 Ry
     Harris-Foulkes estimate   =     -31.84113921 Ry
     estimated scf accuracy    <       0.04673633 Ry

     iteration # 13     ecut=    30.00 Ry     beta=0.70
     Davidson diagonalization with overlap
     ethr =  5.84E-04,  avg # of iterations =  1.0

     total cpu time spent up to now is       10.5 secs

     total energy              =     -31.84061738 Ry
     Harris-Foulkes estimate   =     -31.84090598 Ry
     estimated scf accuracy    <       0.02635639 Ry

     iteration # 14     ecut=    30.00 Ry     beta=0.70
     Davidson diagonalization with overlap
     ethr =  3.29E-04,  avg # of iterations =  1.0

     total cpu time spent up to now is       10.6 secs

     total energy              =     -31.84037296 Ry
     Harris-Foulkes estimate   =     -31.84067601 Ry
     estimated scf accuracy    <       0.00942270 Ry

     iteration # 15     ecut=    30.00 Ry     beta=0.70
     Davidson diagonalization with overlap
     ethr =  1.18E-04,  avg # of iterations =  3.0

     total cpu time spent up to now is       10.6 secs

     total energy              =     -31.84056834 Ry
     Harris-Foulkes estimate   =     -31.84056013 Ry
     estimated scf accuracy    <       0.00053704 Ry

     iteration # 16     ecut=    30.00 Ry     beta=0.70
     Davidson diagonalization with overlap
     ethr =  6.71E-06,  avg # of iterations =  7.0

     total cpu time spent up to now is       10.7 secs

     total energy              =     -31.84051934 Ry
     Harris-Foulkes estimate   =     -31.84057142 Ry
     estimated scf accuracy    <       0.00142385 Ry

     iteration # 17     ecut=    30.00 Ry     beta=0.70
     Davidson diagonalization with overlap
     ethr =  6.71E-06,  avg # of iterations =  1.0

     total cpu time spent up to now is       10.7 secs

     total energy              =     -31.84054984 Ry
     Harris-Foulkes estimate   =     -31.84055681 Ry
     estimated scf accuracy    <       0.00025632 Ry

     iteration # 18     ecut=    30.00 Ry     beta=0.70
     Davidson diagonalization with overlap
     ethr =  3.20E-06,  avg # of iterations =  1.0

     total cpu time spent up to now is       10.8 secs

     End of self-consistent calculation

          k = 0.0000 0.0000 0.0000 ( 22119 PWs)   bands (ev):

   -23.8906  -9.5918  -7.0190  -7.0182  -6.8855  -2.6226  -0.0342   0.7604

     the Fermi energy is    -6.8504 ev

!    total energy              =     -31.84055301 Ry
     Harris-Foulkes estimate   =     -31.84055320 Ry
     estimated scf accuracy    <          9.7E-09 Ry

     convergence has been achieved in  18 iterations

     Forces acting on atoms (Ry/au):

     atom    1 type  2   force =    -0.10995167    0.12724644   -0.07857757
     atom    2 type  1   force =    -0.00004153   -0.00051335   -0.00011070
     atom    3 type  1   force =     0.10999320   -0.12673309    0.07868827

     Total force =     0.262312     Total SCF correction =     0.000209

     Entering Dynamics:    iteration =     5
                           time      =   0.0242 pico-seconds


     Andersen thermostat:    3 collisions

ATOMIC_POSITIONS (bohr)
O       16.314481683   9.899281633  13.609637653
H        7.953854066  14.659344081  10.408235471
H       16.441612953  10.106776145  13.137595598


     kinetic energy (Ekin) =     0.10711065 Ry
     temperature           =  5637.13805582 K 
     Ekin + Etot (const)   =   -31.73344236 Ry
     Message from routine dynamics:
     Total linear momentum <> 0

     Linear momentum :   -0.1210900472    0.3090709673    0.1362435771

     Writing output data file pwscf.save

     second order wave-functions extrapolation
     Check: negative starting charge=   -0.346930
     second order charge density extrapolation
     Check: negative starting charge=   -0.353919

     negative rho (up, down):  4.972E-01 0.000E+00

     total cpu time spent up to now is       11.2 secs

     per-process dynamical memory:    20.4 Mb

     Self-consistent Calculation

     iteration #  1     ecut=    30.00 Ry     beta=0.70
     Davidson diagonalization with overlap
     c_bands:  1 eigenvalues not converged
     ethr =  1.00E-06,  avg # of iterations = 20.0

     negative rho (up, down):  9.949E-02 0.000E+00

     total cpu time spent up to now is       11.5 secs

     total energy              =     -11.01408408 Ry
     Harris-Foulkes estimate   =     -25.72520925 Ry
     estimated scf accuracy    <       4.60050062 Ry

     iteration #  2     ecut=    30.00 Ry     beta=0.70
     Davidson diagonalization with overlap
     ethr =  1.00E-02,  avg # of iterations =  4.0

     negative rho (up, down):  6.163E-02 0.000E+00

     total cpu time spent up to now is       11.5 secs

     total energy              =     -21.69943321 Ry
     Harris-Foulkes estimate   =     -23.91920281 Ry
     estimated scf accuracy    <       4.51486641 Ry

     iteration #  3     ecut=    30.00 Ry     beta=0.70
     Davidson diagonalization with overlap
     ethr =  1.00E-02,  avg # of iterations =  2.0

     negative rho (up, down):  5.111E-02 0.000E+00

     total cpu time spent up to now is       11.6 secs

     total energy              =     -22.22611265 Ry
     Harris-Foulkes estimate   =     -22.93215436 Ry
     estimated scf accuracy    <       2.89178429 Ry

     iteration #  4     ecut=    30.00 Ry     beta=0.70
     Davidson diagonalization with overlap
     ethr =  1.00E-02,  avg # of iterations =  1.0

     negative rho (up, down):  3.183E-02 0.000E+00

     total cpu time spent up to now is       11.7 secs

     total energy              =     -21.67244799 Ry
     Harris-Foulkes estimate   =     -22.24956463 Ry
     estimated scf accuracy    <       1.72819655 Ry

     iteration #  5     ecut=    30.00 Ry     beta=0.70
     Davidson diagonalization with overlap
     ethr =  1.00E-02,  avg # of iterations =  1.0

     negative rho (up, down):  2.593E-02 0.000E+00

     total cpu time spent up to now is       11.7 secs

     total energy              =     -22.26713269 Ry
     Harris-Foulkes estimate   =     -22.47148386 Ry
     estimated scf accuracy    <       2.39056992 Ry

     iteration #  6     ecut=    30.00 Ry     beta=0.70
     Davidson diagonalization with overlap
     ethr =  1.00E-02,  avg # of iterations =  1.0

     negative rho (up, down):  5.244E-03 0.000E+00

     total cpu time spent up to now is       11.8 secs

     total energy              =     -21.46339717 Ry
     Harris-Foulkes estimate   =     -22.26858962 Ry
     estimated scf accuracy    <       2.07255277 Ry

     iteration #  7     ecut=    30.00 Ry     beta=0.70
     Davidson diagonalization with overlap
     ethr =  1.00E-02,  avg # of iterations =  1.0

     negative rho (up, down):  2.290E-03 0.000E+00

     total cpu time spent up to now is       11.8 secs

     total energy              =     -22.04130760 Ry
     Harris-Foulkes estimate   =     -22.24260204 Ry
     estimated scf accuracy    <       1.32586127 Ry

     iteration #  8     ecut=    30.00 Ry     beta=0.70
     Davidson diagonalization with overlap
     ethr =  1.00E-02,  avg # of iterations =  1.0

     negative rho (up, down):  9.879E-04 0.000E+00

     total cpu time spent up to now is       11.8 secs

     total energy              =     -21.78909579 Ry
     Harris-Foulkes estimate   =     -22.03663940 Ry
     estimated scf accuracy    <       1.01007401 Ry

     iteration #  9     ecut=    30.00 Ry     beta=0.70
     Davidson diagonalization with overlap
     ethr =  1.00E-02,  avg # of iterations =  1.0

     negative rho (up, down):  1.598E-04 0.000E+00

     total cpu time spent up to now is       11.9 secs

     total energy              =     -21.95986620 Ry
     Harris-Foulkes estimate   =     -22.00802270 Ry
     estimated scf accuracy    <       1.59026900 Ry

     iteration # 10     ecut=    30.00 Ry     beta=0.70
     Davidson diagonalization with overlap
     ethr =  1.00E-02,  avg # of iterations =  1.0

     negative rho (up, down):  2.622E-06 0.000E+00

     total cpu time spent up to now is       11.9 secs

     total energy              =     -21.75149064 Ry
     Harris-Foulkes estimate   =     -21.95997062 Ry
     estimated scf accuracy    <       1.62758895 Ry

     iteration # 11     ecut=    30.00 Ry     beta=0.70
     Davidson diagonalization with overlap
     ethr =  1.00E-02,  avg # of iterations =  1.0

     negative rho (up, down):  4.273E-07 0.000E+00

     total cpu time spent up to now is       12.0 secs

     total energy              =     -21.89718596 Ry
     Harris-Foulkes estimate   =     -21.98092448 Ry
     estimated scf accuracy    <       0.89018355 Ry

     iteration # 12     ecut=    30.00 Ry     beta=0.70
     Davidson diagonalization with overlap
     ethr =  1.00E-02,  avg # of iterations =  1.0

     negative rho (up, down):  4.536E-08 0.000E+00

     total cpu time spent up to now is       12.0 secs

     total energy              =     -21.87173881 Ry
     Harris-Foulkes estimate   =     -21.90140140 Ry
     estimated scf accuracy    <       0.27066972 Ry

     iteration # 13     ecut=    30.00 Ry     beta=0.70
     Davidson diagonalization with overlap
     ethr =  3.38E-03,  avg # of iterations =  1.0

     total cpu time spent up to now is       12.1 secs

     total energy              =     -21.83976852 Ry
     Harris-Foulkes estimate   =     -21.93301567 Ry
     estimated scf accuracy    <       1.90191273 Ry

     iteration # 14     ecut=    30.00 Ry     beta=0.70
     Davidson diagonalization with overlap
     ethr =  3.38E-03,  avg # of iterations =  1.0

     total cpu time spent up to now is       12.1 secs

     total energy              =     -21.88914246 Ry
     Harris-Foulkes estimate   =     -21.90740729 Ry
     estimated scf accuracy    <       0.52133866 Ry

     iteration # 15     ecut=    30.00 Ry     beta=0.70
[...]
     Harris-Foulkes estimate   =    -479.53334366 Ry
     estimated scf accuracy    <      33.14585061 Ry

     iteration # 59     ecut=    30.00 Ry     beta=0.70
     Davidson diagonalization with overlap
     ethr =  1.00E-02,  avg # of iterations =  6.0

     negative rho (up, down):  1.853E-01 0.000E+00

     total cpu time spent up to now is       18.8 secs

     total energy              =    -136.76212429 Ry
     Harris-Foulkes estimate   =   -2408.10573826 Ry
     estimated scf accuracy    <      33.47250148 Ry

     iteration # 60     ecut=    30.00 Ry     beta=0.70
     Davidson diagonalization with overlap
     ethr =  1.00E-02,  avg # of iterations = 12.0

     negative rho (up, down):  2.046E-01 0.000E+00

     total cpu time spent up to now is       18.9 secs

     total energy              =      41.75361246 Ry
     Harris-Foulkes estimate   =  -22300.77151332 Ry
     estimated scf accuracy    <      30.54024765 Ry

     iteration # 61     ecut=    30.00 Ry     beta=0.70
     Davidson diagonalization with overlap
     ethr =  1.00E-02,  avg # of iterations =  6.0

     negative rho (up, down):  1.079E+00 0.000E+00

     total cpu time spent up to now is       19.0 secs

     total energy              =     107.78095900 Ry
     Harris-Foulkes estimate   =   -2089.13764396 Ry
     estimated scf accuracy    <      33.56820613 Ry

     iteration # 62     ecut=    30.00 Ry     beta=0.70
     Davidson diagonalization with overlap
     ethr =  1.00E-02,  avg # of iterations =  9.0

     negative rho (up, down):  6.084E-01 0.000E+00

     total cpu time spent up to now is       19.1 secs

     total energy              =      92.37484013 Ry
     Harris-Foulkes estimate   =    -457.92091118 Ry
     estimated scf accuracy    <      25.01835113 Ry

     iteration # 63     ecut=    30.00 Ry     beta=0.70
     Davidson diagonalization with overlap
     ethr =  1.00E-02,  avg # of iterations =  7.0

     negative rho (up, down):  2.621E-02 0.000E+00

     total cpu time spent up to now is       19.2 secs

     total energy              =     121.99830359 Ry
     Harris-Foulkes estimate   =   -1042.09105535 Ry
     estimated scf accuracy    <      30.04949181 Ry

     iteration # 64     ecut=    30.00 Ry     beta=0.70
     Davidson diagonalization with overlap
     ethr =  1.00E-02,  avg # of iterations = 10.0

     negative rho (up, down):  1.023E-01 0.000E+00

     total cpu time spent up to now is       19.3 secs

     total energy              =      38.38279084 Ry
     Harris-Foulkes estimate   =    -162.58438458 Ry
     estimated scf accuracy    <      22.68556409 Ry

     iteration # 65     ecut=    30.00 Ry     beta=0.70
     Davidson diagonalization with overlap
     ethr =  1.00E-02,  avg # of iterations =  3.0

     negative rho (up, down):  2.259E-03 0.000E+00

     total cpu time spent up to now is       19.4 secs

     total energy              =      -6.87102743 Ry
     Harris-Foulkes estimate   =    -737.71881179 Ry
     estimated scf accuracy    <      25.44870129 Ry

     iteration # 66     ecut=    30.00 Ry     beta=0.70
     Davidson diagonalization with overlap
     ethr =  1.00E-02,  avg # of iterations =  6.0

     negative rho (up, down):  5.729E-05 0.000E+00

     total cpu time spent up to now is       19.4 secs

     total energy              =     -10.82607087 Ry
     Harris-Foulkes estimate   =    -131.58630749 Ry
     estimated scf accuracy    <      24.71760053 Ry

     iteration # 67     ecut=    30.00 Ry     beta=0.70
     Davidson diagonalization with overlap
     ethr =  1.00E-02,  avg # of iterations =  3.0

     negative rho (up, down):  5.623E-05 0.000E+00

     total cpu time spent up to now is       19.5 secs

     total energy              =     -51.84083627 Ry
     Harris-Foulkes estimate   =     -54.96406932 Ry
     estimated scf accuracy    <      34.53925953 Ry

     iteration # 68     ecut=    30.00 Ry     beta=0.70
     Davidson diagonalization with overlap
     ethr =  1.00E-02,  avg # of iterations =  1.0

     negative rho (up, down):  8.817E-01 0.000E+00

     total cpu time spent up to now is       19.5 secs

     total energy              =     -34.04165824 Ry
     Harris-Foulkes estimate   =     -51.85134499 Ry
     estimated scf accuracy    <      30.49992153 Ry

     iteration # 69     ecut=    30.00 Ry     beta=0.70
     Davidson diagonalization with overlap
     ethr =  1.00E-02,  avg # of iterations =  8.0

     negative rho (up, down):  5.002E-03 0.000E+00

     total cpu time spent up to now is       19.6 secs

     total energy              =     128.78820610 Ry
     Harris-Foulkes estimate   =    -710.83626371 Ry
     estimated scf accuracy    <      60.63708355 Ry

     iteration # 70     ecut=    30.00 Ry     beta=0.70
     Davidson diagonalization with overlap
     ethr =  1.00E-02,  avg # of iterations = 10.0

     negative rho (up, down):  1.718E-01 0.000E+00

     total cpu time spent up to now is       19.8 secs

     total energy              =     -44.90888031 Ry
     Harris-Foulkes estimate   =     -51.34769278 Ry
     estimated scf accuracy    <      29.68444848 Ry

     iteration # 71     ecut=    30.00 Ry     beta=0.70
     Davidson diagonalization with overlap
     ethr =  1.00E-02,  avg # of iterations =  6.0

     negative rho (up, down):  1.388E-01 0.000E+00

     total cpu time spent up to now is       19.8 secs

     total energy              =      21.64606364 Ry
     Harris-Foulkes estimate   =    -116.06362070 Ry
     estimated scf accuracy    <      12.80732284 Ry

     iteration # 72     ecut=    30.00 Ry     beta=0.70
     Davidson diagonalization with overlap
     ethr =  1.00E-02,  avg # of iterations =  9.0

     negative rho (up, down):  2.178E-01 0.000E+00

     total cpu time spent up to now is       19.9 secs

     total energy              =    -309.94383173 Ry
     Harris-Foulkes estimate   =    -224.21371701 Ry
     estimated scf accuracy    <      38.25554696 Ry

     iteration # 73     ecut=    30.00 Ry     beta=0.70
     Davidson diagonalization with overlap
     ethr =  1.00E-02,  avg # of iterations =  9.0

     negative rho (up, down):  5.501E-02 0.000E+00

     total cpu time spent up to now is       20.0 secs

     total energy              =     106.00100752 Ry
     Harris-Foulkes estimate   =   -1934.62620532 Ry
     estimated scf accuracy    <      63.91024094 Ry

     iteration # 74     ecut=    30.00 Ry     beta=0.70
     Davidson diagonalization with overlap
     ethr =  1.00E-02,  avg # of iterations = 10.0

     negative rho (up, down):  2.052E-03 0.000E+00

     total cpu time spent up to now is       20.1 secs

     total energy              =     -40.50244017 Ry
     Harris-Foulkes estimate   =     -40.54712052 Ry
     estimated scf accuracy    <      15.21556312 Ry

     iteration # 75     ecut=    30.00 Ry     beta=0.70
     Davidson diagonalization with overlap
     ethr =  1.00E-02,  avg # of iterations =  1.0

     negative rho (up, down):  2.891E-02 0.000E+00

     total cpu time spent up to now is       20.2 secs

     total energy              =     -36.76811068 Ry
     Harris-Foulkes estimate   =     -40.50699164 Ry
     estimated scf accuracy    <      15.27428030 Ry

     iteration # 76     ecut=    30.00 Ry     beta=0.70
     Davidson diagonalization with overlap
     ethr =  1.00E-02,  avg # of iterations =  8.0

     negative rho (up, down):  5.858E-02 0.000E+00

     total cpu time spent up to now is       20.3 secs

     total energy              =    -112.69588724 Ry
     Harris-Foulkes estimate   =     -78.47987775 Ry
     estimated scf accuracy    <      14.74739945 Ry

     iteration # 77     ecut=    30.00 Ry     beta=0.70
     Davidson diagonalization with overlap
     ethr =  1.00E-02,  avg # of iterations =  5.0

     negative rho (up, down):  2.786E-02 0.000E+00

     total cpu time spent up to now is       20.3 secs

     total energy              =     -74.39048369 Ry
     Harris-Foulkes estimate   =    -328.85433118 Ry
     estimated scf accuracy    <      20.68665987 Ry

     iteration # 78     ecut=    30.00 Ry     beta=0.70
     Davidson diagonalization with overlap
     ethr =  1.00E-02,  avg # of iterations =  7.0

     negative rho (up, down):  3.520E-02 0.000E+00

     total cpu time spent up to now is       20.4 secs

     total energy              =    -558.72310150 Ry
     Harris-Foulkes estimate   =    -231.78498862 Ry
     estimated scf accuracy    <      20.51331770 Ry

     iteration # 79     ecut=    30.00 Ry     beta=0.70
     Davidson diagonalization with overlap
     ethr =  1.00E-02,  avg # of iterations =  5.0

     negative rho (up, down):  1.300E-01 0.000E+00

     total cpu time spent up to now is       20.5 secs

     total energy              =       5.30658042 Ry
     Harris-Foulkes estimate   =   -1822.98850448 Ry
     estimated scf accuracy    <      12.50148853 Ry

     iteration # 80     ecut=    30.00 Ry     beta=0.70
     Davidson diagonalization with overlap
     ethr =  1.00E-02,  avg # of iterations =  7.0

     negative rho (up, down):  1.973E-01 0.000E+00

     total cpu time spent up to now is       20.5 secs

     total energy              =     -29.13394157 Ry
     Harris-Foulkes estimate   =    -182.78906548 Ry
     estimated scf accuracy    <      25.48201962 Ry

     iteration # 81     ecut=    30.00 Ry     beta=0.70
     Davidson diagonalization with overlap
     ethr =  1.00E-02,  avg # of iterations =  4.0

     negative rho (up, down):  2.689E-01 0.000E+00

     total cpu time spent up to now is       20.6 secs

     total energy              =      -4.35694227 Ry
     Harris-Foulkes estimate   =    -237.66572592 Ry
     estimated scf accuracy    <      47.38045004 Ry

     iteration # 82     ecut=    30.00 Ry     beta=0.70
     Davidson diagonalization with overlap
     ethr =  1.00E-02,  avg # of iterations =  6.0

     negative rho (up, down):  2.825E-01 0.000E+00

     total cpu time spent up to now is       20.7 secs

     total energy              =     -94.03365715 Ry
     Harris-Foulkes estimate   =   -1464.04946795 Ry
     estimated scf accuracy    <      53.93428069 Ry

     iteration # 83     ecut=    30.00 Ry     beta=0.70
     Davidson diagonalization with overlap
     ethr =  1.00E-02,  avg # of iterations =  6.0

     negative rho (up, down):  2.734E-01 0.000E+00

     total cpu time spent up to now is       20.7 secs

     total energy              =     -57.69978545 Ry
     Harris-Foulkes estimate   =    -483.11723960 Ry
     estimated scf accuracy    <       9.40176803 Ry

     iteration # 84     ecut=    30.00 Ry     beta=0.70
     Davidson diagonalization with overlap
     ethr =  1.00E-02,  avg # of iterations =  4.0

     negative rho (up, down):  5.239E-01 0.000E+00

     total cpu time spent up to now is       20.8 secs

     total energy              =     -24.58253544 Ry
     Harris-Foulkes estimate   =   -1406.29440741 Ry
     estimated scf accuracy    <      52.62845310 Ry

     iteration # 85     ecut=    30.00 Ry     beta=0.70
     Davidson diagonalization with overlap
     ethr =  1.00E-02,  avg # of iterations =  5.0

     negative rho (up, down):  6.242E-01 0.000E+00

     total cpu time spent up to now is       20.9 secs

     total energy              =     146.51926142 Ry
     Harris-Foulkes estimate   =    -975.54971523 Ry
     estimated scf accuracy    <      47.13079202 Ry

     iteration # 86     ecut=    30.00 Ry     beta=0.70
     Davidson diagonalization with overlap
     ethr =  1.00E-02,  avg # of iterations =  9.0

     negative rho (up, down):  7.787E-01 0.000E+00

     total cpu time spent up to now is       21.0 secs

     total energy              =     -10.53333014 Ry
     Harris-Foulkes estimate   =    -465.91305291 Ry
     estimated scf accuracy    <      40.50632382 Ry

     iteration # 87     ecut=    30.00 Ry     beta=0.70
     Davidson diagonalization with overlap
     ethr =  1.00E-02,  avg # of iterations = 10.0

     negative rho (up, down):  6.714E-01 0.000E+00

     total cpu time spent up to now is       21.1 secs

     total energy              =     -34.94020703 Ry
     Harris-Foulkes estimate   =   -1451.63451457 Ry
     estimated scf accuracy    <      42.29099526 Ry

     iteration # 88     ecut=    30.00 Ry     beta=0.70
     Davidson diagonalization with overlap
     ethr =  1.00E-02,  avg # of iterations =  6.0

     negative rho (up, down):  7.633E-01 0.000E+00

     total cpu time spent up to now is       21.2 secs

     total energy              =   -1327.80678600 Ry
     Harris-Foulkes estimate   =   -3252.06276957 Ry
     estimated scf accuracy    <      38.06630343 Ry

     iteration # 89     ecut=    30.00 Ry     beta=0.70
     Davidson diagonalization with overlap
     ethr =  1.00E-02,  avg # of iterations =  9.0

     negative rho (up, down):  1.036E+00 0.000E+00

     total cpu time spent up to now is       21.2 secs

     total energy              =     171.69588253 Ry
     Harris-Foulkes estimate   =   -9107.12423137 Ry
     estimated scf accuracy    <      34.08525921 Ry

     iteration # 90     ecut=    30.00 Ry     beta=0.70
     Davidson diagonalization with overlap
     ethr =  1.00E-02,  avg # of iterations =  6.0

     negative rho (up, down):  6.428E-01 0.000E+00

     total cpu time spent up to now is       21.3 secs

     total energy              =      20.39944088 Ry
     Harris-Foulkes estimate   =   -4878.08954736 Ry
     estimated scf accuracy    <      32.52260146 Ry

     iteration # 91     ecut=    30.00 Ry     beta=0.70
     Davidson diagonalization with overlap
     ethr =  1.00E-02,  avg # of iterations =  5.0

     negative rho (up, down):  6.750E-01 0.000E+00

     total cpu time spent up to now is       21.4 secs

     total energy              =      71.53362052 Ry
     Harris-Foulkes estimate   =   -1147.84147861 Ry
     estimated scf accuracy    <      37.08441801 Ry

     iteration # 92     ecut=    30.00 Ry     beta=0.70
     Davidson diagonalization with overlap
     ethr =  1.00E-02,  avg # of iterations =  9.0

     negative rho (up, down):  9.809E-01 0.000E+00

     total cpu time spent up to now is       21.5 secs

     total energy              =      22.58170082 Ry
     Harris-Foulkes estimate   =   -2589.56070969 Ry
     estimated scf accuracy    <      32.91305483 Ry

     iteration # 93     ecut=    30.00 Ry     beta=0.70
     Davidson diagonalization with overlap
     ethr =  1.00E-02,  avg # of iterations =  8.0

     negative rho (up, down):  1.192E+00 0.000E+00

     total cpu time spent up to now is       21.6 secs

     total energy              =    -206.10435380 Ry
     Harris-Foulkes estimate   =   -2125.35199920 Ry
     estimated scf accuracy    <      33.58913309 Ry

     iteration # 94     ecut=    30.00 Ry     beta=0.70
     Davidson diagonalization with overlap
     ethr =  1.00E-02,  avg # of iterations =  6.0

     negative rho (up, down):  1.074E+00 0.000E+00

     total cpu time spent up to now is       21.7 secs

     total energy              =     115.85825863 Ry
     Harris-Foulkes estimate   =   -9329.53452200 Ry
     estimated scf accuracy    <      18.83828717 Ry

     iteration # 95     ecut=    30.00 Ry     beta=0.70
     Davidson diagonalization with overlap
     ethr =  1.00E-02,  avg # of iterations =  6.0

     negative rho (up, down):  5.839E-01 0.000E+00

     total cpu time spent up to now is       21.8 secs

     total energy              =     102.13689671 Ry
     Harris-Foulkes estimate   =   -1684.31602160 Ry
     estimated scf accuracy    <      23.88841725 Ry

     iteration # 96     ecut=    30.00 Ry     beta=0.70
     Davidson diagonalization with overlap
     ethr =  1.00E-02,  avg # of iterations =  6.0

     negative rho (up, down):  4.081E-01 0.000E+00

     total cpu time spent up to now is       21.9 secs

     total energy              =    -127.68272613 Ry
     Harris-Foulkes estimate   =   -4159.64346835 Ry
     estimated scf accuracy    <      20.21156652 Ry

     iteration # 97     ecut=    30.00 Ry     beta=0.70
     Davidson diagonalization with overlap
     ethr =  1.00E-02,  avg # of iterations =  6.0

     negative rho (up, down):  3.565E-01 0.000E+00

     total cpu time spent up to now is       21.9 secs

     total energy              =     134.28744343 Ry
     Harris-Foulkes estimate   =   -6226.29001326 Ry
     estimated scf accuracy    <      22.70933170 Ry

     iteration # 98     ecut=    30.00 Ry     beta=0.70
     Davidson diagonalization with overlap
     ethr =  1.00E-02,  avg # of iterations = 11.0

     negative rho (up, down):  3.028E-01 0.000E+00

     total cpu time spent up to now is       22.1 secs

     total energy              =      53.62404961 Ry
     Harris-Foulkes estimate   =    -585.74123006 Ry
     estimated scf accuracy    <      17.09636024 Ry

     iteration # 99     ecut=    30.00 Ry     beta=0.70
     Davidson diagonalization with overlap
     ethr =  1.00E-02,  avg # of iterations = 10.0

     negative rho (up, down):  1.071E-01 0.000E+00

     total cpu time spent up to now is       22.1 secs

     total energy              =    -129.20239164 Ry
     Harris-Foulkes estimate   =   -2287.74366990 Ry
     estimated scf accuracy    <      25.52147345 Ry

     iteration #100     ecut=    30.00 Ry     beta=0.70
     Davidson diagonalization with overlap
     ethr =  1.00E-02,  avg # of iterations =  9.0

     negative rho (up, down):  4.440E-02 0.000E+00

     total cpu time spent up to now is       22.2 secs

     total energy              =      79.63213862 Ry
     Harris-Foulkes estimate   =    -712.53368582 Ry
     estimated scf accuracy    <      21.36730542 Ry

     End of self-consistent calculation

     convergence NOT achieved after 100 iterations: stopping

     Writing output data file pwscf.save
 
     init_run     :      0.17s CPU      0.19s WALL (       1 calls)
     electrons    :     16.26s CPU     19.43s WALL (       7 calls)
     update_pot   :      1.27s CPU      1.65s WALL (       6 calls)
     forces       :      0.27s CPU      0.32s WALL (       6 calls)

     Called by init_run:
     wfcinit      :      0.01s CPU      0.02s WALL (       1 calls)
     potinit      :      0.05s CPU      0.05s WALL (       1 calls)

     Called by electrons:
     c_bands      :      8.76s CPU      9.17s WALL (     275 calls)
     sum_band     :      1.39s CPU      1.50s WALL (     275 calls)
     v_of_rho     :      3.46s CPU      3.61s WALL (     282 calls)
     mix_rho      :      1.99s CPU      3.87s WALL (     275 calls)

     Called by c_bands:
     init_us_2    :      0.04s CPU      0.05s WALL (     551 calls)
     cegterg      :      8.68s CPU      9.01s WALL (     276 calls)

     Called by sum_band:

     Called by *egterg:
     h_psi        :      7.33s CPU      7.59s WALL (    1447 calls)
     g_psi        :      0.08s CPU      0.09s WALL (    1170 calls)
     cdiaghg      :      0.50s CPU      0.53s WALL (    1439 calls)

     Called by h_psi:
     h_psi:pot    :      7.29s CPU      7.54s WALL (    1447 calls)
     h_psi:calbec :      0.12s CPU      0.13s WALL (    1447 calls)
     vloc_psi     :      7.14s CPU      7.37s WALL (    1447 calls)
     add_vuspsi   :      0.02s CPU      0.02s WALL (    1447 calls)

     General routines
     calbec       :      0.14s CPU      0.16s WALL (    1476 calls)
     fft          :      2.27s CPU      2.37s WALL (    3114 calls)
     fftw         :      7.40s CPU      7.71s WALL (   18600 calls)
     davcio       :      0.33s CPU      1.71s WALL (    4890 calls)
 
     Parallel routines
     fft_scatter  :      3.27s CPU      3.55s WALL (   21714 calls)
 
     PWSCF        :    18.38s CPU        22.39s WALL

 
   This run was terminated on:  13:11: 6  13Feb2018            

=------------------------------------------------------------------------------=
   JOB DONE.
=------------------------------------------------------------------------------=
