
     Program PWSCF v.6.0 (svn rev. 13079) starts on 13Feb2018 at 15:13:23 

     This program is part of the open-source Quantum ESPRESSO suite
     for quantum simulation of materials; please cite
         "P. Giannozzi et al., J. Phys.:Condens. Matter 21 395502 (2009);
          URL http://www.quantum-espresso.org", 
     in publications or presentations arising from this work. More details at
     http://www.quantum-espresso.org/quote

     Parallel version (MPI), running on    28 processors
     R & G space division:  proc/nbgrp/npool/nimage =      28
     Reading input from inputs/MD-H2O-round1/413.in

     Current dimensions of program PWSCF are:
     Max number of different atomic species (ntypx) = 10
     Max number of k-points (npk) =  40000
     Max angular momentum in pseudopotentials (lmaxx) =  3

     Subspace diagonalization in iterative solution of the eigenvalue problem:
     a serial algorithm will be used

 
     Parallelization info
     --------------------
     sticks:   dense  smooth     PW     G-vecs:    dense   smooth      PW
     Min         136     136     33                 6338     6338     787
     Max         137     137     34                 6341     6341     792
     Sum        3809    3809    949               177509   177509   22119
 


     bravais-lattice index     =            1
     lattice parameter (alat)  =      20.0000  a.u.
     unit-cell volume          =    8000.0000 (a.u.)^3
     number of atoms/cell      =            3
     number of atomic types    =            2
     number of electrons       =         8.00
     number of Kohn-Sham states=            8
     kinetic-energy cutoff     =      30.0000  Ry
     charge density cutoff     =     120.0000  Ry
     convergence threshold     =      1.0E-08
     mixing beta               =       0.7000
     number of iterations used =            8  plain     mixing
     Exchange-correlation      = BLYP ( 1  3  1  3 0 0)
     nstep                     =         5000


     celldm(1)=  20.000000  celldm(2)=   0.000000  celldm(3)=   0.000000
     celldm(4)=   0.000000  celldm(5)=   0.000000  celldm(6)=   0.000000

     crystal axes: (cart. coord. in units of alat)
               a(1) = (   1.000000   0.000000   0.000000 )  
               a(2) = (   0.000000   1.000000   0.000000 )  
               a(3) = (   0.000000   0.000000   1.000000 )  

     reciprocal axes: (cart. coord. in units 2 pi/alat)
               b(1) = (  1.000000  0.000000  0.000000 )  
               b(2) = (  0.000000  1.000000  0.000000 )  
               b(3) = (  0.000000  0.000000  1.000000 )  


     PseudoPot. # 1 for  H read from file:
     ./H.blyp-hgh.UPF
     MD5 check sum: c576e69559cde411e611be972c763230
     Pseudo is Norm-conserving, Zval =  1.0
     Generated in analytical, separable form
     Using radial grid of  929 points,  0 beta functions with: 

     PseudoPot. # 2 for  O read from file:
     ./O.blyp-hgh.UPF
     MD5 check sum: d0b7156309aa9befef28faac7bc56342
     Pseudo is Norm-conserving, Zval =  6.0
     Generated in analytical, separable form
     Using radial grid of 1095 points,  1 beta functions with: 
                l(1) =   0

     atomic species   valence    mass     pseudopotential
        H              1.00     1.01000      H( 1.00)
        O              6.00    16.00000      O( 1.00)

     No symmetry found



   Cartesian axes

     site n.     atom                  positions (alat units)
         1           O   tau(   1) = (   0.3234124   0.7455076   0.2178007  )
         2           H   tau(   2) = (   0.2360231  -0.0863391   0.9826584  )
         3           H   tau(   3) = (   0.2080218   0.8960535   0.0198209  )

     number of k points=     1  Marzari-Vanderbilt smearing, width (Ry)=  0.0250
                       cart. coord. in units 2pi/alat
        k(    1) = (   0.0000000   0.0000000   0.0000000), wk =   2.0000000

     Dense  grid:   177509 G-vectors     FFT dimensions: (  72,  72,  72)

     Estimated max dynamical RAM per process >       6.09Mb

     Estimated total allocated dynamical RAM >     170.64Mb

     Initial potential from superposition of free atoms
     Check: negative starting charge=   -0.356403

     starting charge    7.99998, renormalised to    8.00000

     negative rho (up, down):  3.564E-01 0.000E+00
     Starting wfc are    6 randomized atomic wfcs +    2 random wfc

     total cpu time spent up to now is        0.3 secs

     per-process dynamical memory:    18.8 Mb

     Self-consistent Calculation

     iteration #  1     ecut=    30.00 Ry     beta=0.70
     Davidson diagonalization with overlap
     ethr =  1.00E-02,  avg # of iterations =  6.0

     negative rho (up, down):  9.443E-02 0.000E+00

     total cpu time spent up to now is        0.4 secs

     total energy              =     -31.46129048 Ry
     Harris-Foulkes estimate   =     -32.29578065 Ry
     estimated scf accuracy    <       0.91611739 Ry

     iteration #  2     ecut=    30.00 Ry     beta=0.70
     Davidson diagonalization with overlap
     ethr =  1.00E-02,  avg # of iterations =  2.0

     negative rho (up, down):  5.648E-02 0.000E+00

     total cpu time spent up to now is        0.5 secs

     total energy              =     -31.51417019 Ry
     Harris-Foulkes estimate   =     -31.81840683 Ry
     estimated scf accuracy    <       0.62454263 Ry

     iteration #  3     ecut=    30.00 Ry     beta=0.70
     Davidson diagonalization with overlap
     ethr =  7.81E-03,  avg # of iterations =  2.0

     negative rho (up, down):  2.231E-02 0.000E+00

     total cpu time spent up to now is        0.5 secs

     total energy              =     -31.80247729 Ry
     Harris-Foulkes estimate   =     -31.80060251 Ry
     estimated scf accuracy    <       0.08180011 Ry

     iteration #  4     ecut=    30.00 Ry     beta=0.70
     Davidson diagonalization with overlap
     ethr =  1.02E-03,  avg # of iterations =  3.0

     negative rho (up, down):  1.020E-02 0.000E+00

     total cpu time spent up to now is        0.6 secs

     total energy              =     -31.81080004 Ry
     Harris-Foulkes estimate   =     -31.80897949 Ry
     estimated scf accuracy    <       0.03192653 Ry

     iteration #  5     ecut=    30.00 Ry     beta=0.70
     Davidson diagonalization with overlap
     ethr =  3.99E-04,  avg # of iterations =  3.0

     negative rho (up, down):  2.492E-03 0.000E+00

     total cpu time spent up to now is        0.6 secs

     total energy              =     -31.81625399 Ry
     Harris-Foulkes estimate   =     -31.81316232 Ry
     estimated scf accuracy    <       0.00915514 Ry

     iteration #  6     ecut=    30.00 Ry     beta=0.70
     Davidson diagonalization with overlap
     ethr =  1.14E-04,  avg # of iterations =  9.0

     negative rho (up, down):  4.228E-04 0.000E+00

     total cpu time spent up to now is        0.7 secs

     total energy              =     -31.81739589 Ry
     Harris-Foulkes estimate   =     -31.81710351 Ry
     estimated scf accuracy    <       0.00094894 Ry

     iteration #  7     ecut=    30.00 Ry     beta=0.70
     Davidson diagonalization with overlap
     ethr =  1.19E-05,  avg # of iterations =  8.0

     negative rho (up, down):  1.503E-05 0.000E+00

     total cpu time spent up to now is        0.8 secs

     total energy              =     -31.81750757 Ry
     Harris-Foulkes estimate   =     -31.81752078 Ry
     estimated scf accuracy    <       0.00016590 Ry

     iteration #  8     ecut=    30.00 Ry     beta=0.70
     Davidson diagonalization with overlap
     ethr =  2.07E-06,  avg # of iterations =  6.0

     total cpu time spent up to now is        0.8 secs

     total energy              =     -31.81752246 Ry
     Harris-Foulkes estimate   =     -31.81753831 Ry
     estimated scf accuracy    <       0.00001657 Ry

     iteration #  9     ecut=    30.00 Ry     beta=0.70
     Davidson diagonalization with overlap
     ethr =  2.07E-07,  avg # of iterations =  2.0

     total cpu time spent up to now is        0.9 secs

     total energy              =     -31.81752213 Ry
     Harris-Foulkes estimate   =     -31.81752426 Ry
     estimated scf accuracy    <       0.00000103 Ry

     iteration # 10     ecut=    30.00 Ry     beta=0.70
     Davidson diagonalization with overlap
     ethr =  1.29E-08,  avg # of iterations =  2.0

     total cpu time spent up to now is        0.9 secs

     total energy              =     -31.81752252 Ry
     Harris-Foulkes estimate   =     -31.81752234 Ry
     estimated scf accuracy    <       0.00000003 Ry

     iteration # 11     ecut=    30.00 Ry     beta=0.70
     Davidson diagonalization with overlap
     ethr =  3.23E-10,  avg # of iterations =  1.0

     total cpu time spent up to now is        1.0 secs

     End of self-consistent calculation

          k = 0.0000 0.0000 0.0000 ( 22119 PWs)   bands (ev):

   -25.0725 -11.4176  -8.3744  -8.3740  -8.3685  -0.2926   0.7091   0.8787

     the Fermi energy is    -8.2493 ev

!    total energy              =     -31.81752250 Ry
     Harris-Foulkes estimate   =     -31.81752252 Ry
     estimated scf accuracy    <          8.6E-09 Ry

     convergence has been achieved in  11 iterations

     Forces acting on atoms (Ry/au):

     atom    1 type  2   force =     0.00069979   -0.00077082   -0.00031462
     atom    2 type  1   force =     0.38902270    0.24529072   -0.51697528
     atom    3 type  1   force =    -0.38972249   -0.24451991    0.51728990

     Total force =     0.978792     Total SCF correction =     0.000081

     Molecular Dynamics Calculation

     Starting temperature  =  1000.00 K

     temperature is controlled by Andersen thermostat
     Collision frequency = 1.0000/timestep
     mass H                =     1.01
     mass O                =    16.00
     Time step             =   100.00 a.u.,  4.8378 femto-seconds

     Entering Dynamics:    iteration =     1
                           time      =   0.0048 pico-seconds


     Andersen thermostat:    3 collisions

ATOMIC_POSITIONS (bohr)
O        6.455977713  14.902458403   4.334174873
H        6.834966385  -0.214035132  16.747890944
H        2.240297558  16.530218736   3.647661420


     kinetic energy (Ekin) =     0.01337019 Ry
     temperature           =   703.66124461 K 
     Ekin + Etot (const)   =   -31.80415231 Ry

     Linear momentum :    0.0000000000   -0.0000000000    0.0000000000

     Writing output data file pwscf.save
     Check: negative starting charge=   -0.356403
     NEW-OLD atomic charge density approx. for the potential
     Check: negative starting charge=   -0.340980

     negative rho (up, down):  2.810E-01 0.000E+00

     total cpu time spent up to now is        1.3 secs

     per-process dynamical memory:    20.4 Mb

     Self-consistent Calculation

     iteration #  1     ecut=    30.00 Ry     beta=0.70
     Davidson diagonalization with overlap
     c_bands:  1 eigenvalues not converged
     ethr =  1.00E-06,  avg # of iterations = 20.0

     negative rho (up, down):  7.235E-02 0.000E+00

     total cpu time spent up to now is        1.6 secs

     total energy              =     -30.05516631 Ry
     Harris-Foulkes estimate   =     -31.82004396 Ry
     estimated scf accuracy    <       2.28035149 Ry

     iteration #  2     ecut=    30.00 Ry     beta=0.70
     Davidson diagonalization with overlap
     ethr =  1.00E-02,  avg # of iterations =  5.0

     negative rho (up, down):  2.930E-02 0.000E+00

     total cpu time spent up to now is        1.6 secs

     total energy              =     -31.13956238 Ry
     Harris-Foulkes estimate   =     -36.38671295 Ry
     estimated scf accuracy    <      17.58557752 Ry

     iteration #  3     ecut=    30.00 Ry     beta=0.70
     Davidson diagonalization with overlap
     ethr =  1.00E-02,  avg # of iterations =  2.0

     negative rho (up, down):  7.843E-03 0.000E+00

     total cpu time spent up to now is        1.7 secs

     total energy              =     -27.92641272 Ry
     Harris-Foulkes estimate   =     -31.26423379 Ry
     estimated scf accuracy    <      10.51664747 Ry

     iteration #  4     ecut=    30.00 Ry     beta=0.70
     Davidson diagonalization with overlap
     ethr =  1.00E-02,  avg # of iterations =  5.0

     negative rho (up, down):  2.281E-04 0.000E+00

     total cpu time spent up to now is        1.8 secs

     total energy              =     -32.31757731 Ry
     Harris-Foulkes estimate   =     -33.08968710 Ry
     estimated scf accuracy    <       5.16780251 Ry

     iteration #  5     ecut=    30.00 Ry     beta=0.70
     Davidson diagonalization with overlap
     ethr =  1.00E-02,  avg # of iterations =  1.0

     total cpu time spent up to now is        1.8 secs

     total energy              =     -31.84429552 Ry
     Harris-Foulkes estimate   =     -32.35137272 Ry
     estimated scf accuracy    <       3.62886067 Ry

     iteration #  6     ecut=    30.00 Ry     beta=0.70
     Davidson diagonalization with overlap
     ethr =  1.00E-02,  avg # of iterations =  1.0

     total cpu time spent up to now is        1.8 secs

     total energy              =     -31.78211013 Ry
     Harris-Foulkes estimate   =     -31.86156028 Ry
     estimated scf accuracy    <       2.29136031 Ry

     iteration #  7     ecut=    30.00 Ry     beta=0.70
     Davidson diagonalization with overlap
     ethr =  1.00E-02,  avg # of iterations =  1.0

     total cpu time spent up to now is        1.9 secs

     total energy              =     -31.80514940 Ry
     Harris-Foulkes estimate   =     -31.78300413 Ry
     estimated scf accuracy    <       2.07008739 Ry

     iteration #  8     ecut=    30.00 Ry     beta=0.70
     Davidson diagonalization with overlap
     ethr =  1.00E-02,  avg # of iterations =  1.0

     total cpu time spent up to now is        1.9 secs

     total energy              =     -31.79312177 Ry
     Harris-Foulkes estimate   =     -31.80517586 Ry
     estimated scf accuracy    <       2.10241128 Ry

     iteration #  9     ecut=    30.00 Ry     beta=0.70
     Davidson diagonalization with overlap
     ethr =  1.00E-02,  avg # of iterations =  1.0

     total cpu time spent up to now is        2.0 secs

     total energy              =     -31.73113662 Ry
     Harris-Foulkes estimate   =     -31.79314850 Ry
     estimated scf accuracy    <       2.06302743 Ry

     iteration # 10     ecut=    30.00 Ry     beta=0.70
     Davidson diagonalization with overlap
     ethr =  1.00E-02,  avg # of iterations =  1.0

     total cpu time spent up to now is        2.0 secs

     total energy              =     -30.94824597 Ry
     Harris-Foulkes estimate   =     -31.73308201 Ry
     estimated scf accuracy    <       1.75895709 Ry

     iteration # 11     ecut=    30.00 Ry     beta=0.70
     Davidson diagonalization with overlap
     ethr =  1.00E-02,  avg # of iterations =  1.0

     total cpu time spent up to now is        2.1 secs

     total energy              =     -32.38208681 Ry
     Harris-Foulkes estimate   =     -32.65409972 Ry
     estimated scf accuracy    <       5.08444482 Ry

     iteration # 12     ecut=    30.00 Ry     beta=0.70
     Davidson diagonalization with overlap
     ethr =  1.00E-02,  avg # of iterations =  1.0

     negative rho (up, down):  4.419E-03 0.000E+00

     total cpu time spent up to now is        2.2 secs

     total energy              =     -33.11499473 Ry
     Harris-Foulkes estimate   =     -32.39039906 Ry
     estimated scf accuracy    <       4.21107391 Ry

     iteration # 13     ecut=    30.00 Ry     beta=0.70
     Davidson diagonalization with overlap
     ethr =  1.00E-02,  avg # of iterations =  3.0

     negative rho (up, down):  3.880E-04 0.000E+00

     total cpu time spent up to now is        2.2 secs

     total energy              =     -32.23305273 Ry
     Harris-Foulkes estimate   =     -33.26659447 Ry
     estimated scf accuracy    <      12.97171405 Ry

     iteration # 14     ecut=    30.00 Ry     beta=0.70
     Davidson diagonalization with overlap
     ethr =  1.00E-02,  avg # of iterations =  1.0

     total cpu time spent up to now is        2.3 secs

     total energy              =     -32.46915122 Ry
     Harris-Foulkes estimate   =     -32.58108240 Ry
     estimated scf accuracy    <       4.87877061 Ry

     iteration # 15     ecut=    30.00 Ry     beta=0.70
     Davidson diagonalization with overlap
     ethr =  1.00E-02,  avg # of iterations =  1.0

     total cpu time spent up to now is        2.4 secs

     total energy              =     -32.43201344 Ry
     Harris-Foulkes estimate   =     -32.47366138 Ry
     estimated scf accuracy    <       4.44507910 Ry

     iteration # 16     ecut=    30.00 Ry     beta=0.70
     Davidson diagonalization with overlap
     ethr =  1.00E-02,  avg # of iterations =  1.0

     total cpu time spent up to now is        2.4 secs

     total energy              =     -31.82069789 Ry
     Harris-Foulkes estimate   =     -32.43288895 Ry
     estimated scf accuracy    <       4.32506937 Ry

     iteration # 17     ecut=    30.00 Ry     beta=0.70
     Davidson diagonalization with overlap
     ethr =  1.00E-02,  avg # of iterations =  1.0

     total cpu time spent up to now is        2.4 secs

     total energy              =     -31.94431293 Ry
     Harris-Foulkes estimate   =     -31.86923518 Ry
     estimated scf accuracy    <       2.19230605 Ry

     iteration # 18     ecut=    30.00 Ry     beta=0.70
     Davidson diagonalization with overlap
     ethr =  1.00E-02,  avg # of iterations =  1.0

     negative rho (up, down):  1.252E-04 0.000E+00

     total cpu time spent up to now is        2.5 secs

     total energy              =     -31.91112423 Ry
     Harris-Foulkes estimate   =     -31.94527500 Ry
     estimated scf accuracy    <       2.32905659 Ry

     iteration # 19     ecut=    30.00 Ry     beta=0.70
     Davidson diagonalization with overlap
     ethr =  1.00E-02,  avg # of iterations =  1.0

     negative rho (up, down):  2.758E-01 0.000E+00

     total cpu time spent up to now is        2.5 secs

     total energy              =     -31.54082652 Ry
     Harris-Foulkes estimate   =     -31.91123390 Ry
     estimated scf accuracy    <       2.29688521 Ry

     iteration # 20     ecut=    30.00 Ry     beta=0.70
     Davidson diagonalization with overlap
     ethr =  1.00E-02,  avg # of iterations =  4.0

     negative rho (up, down):  5.837E-02 0.000E+00

     total cpu time spent up to now is        2.6 secs

     total energy              =     -31.50505262 Ry
     Harris-Foulkes estimate   =     -35.69692355 Ry
     estimated scf accuracy    <       6.24999102 Ry

     iteration # 21     ecut=    30.00 Ry     beta=0.70
     Davidson diagonalization with overlap
     ethr =  1.00E-02,  avg # of iterations =  2.0

     negative rho (up, down):  1.160E-02 0.000E+00

     total cpu time spent up to now is        2.7 secs

     total energy              =     -31.67942119 Ry
     Harris-Foulkes estimate   =     -32.26706191 Ry
     estimated scf accuracy    <       2.26116189 Ry

     iteration # 22     ecut=    30.00 Ry     beta=0.70
     Davidson diagonalization with overlap
     ethr =  1.00E-02,  avg # of iterations =  2.0

     negative rho (up, down):  5.123E-03 0.000E+00

     total cpu time spent up to now is        2.7 secs

     total energy              =     -31.90443494 Ry
     Harris-Foulkes estimate   =     -31.72491944 Ry
     estimated scf accuracy    <       1.37365087 Ry

     iteration # 23     ecut=    30.00 Ry     beta=0.70
     Davidson diagonalization with overlap
     ethr =  1.00E-02,  avg # of iterations =  3.0

     negative rho (up, down):  2.608E-02 0.000E+00

     total cpu time spent up to now is        2.8 secs

     total energy              =     -36.37280994 Ry
     Harris-Foulkes estimate   =     -33.79245646 Ry
     estimated scf accuracy    <       5.93664709 Ry

     iteration # 24     ecut=    30.00 Ry     beta=0.70
     Davidson diagonalization with overlap
     ethr =  1.00E-02,  avg # of iterations =  3.0

     negative rho (up, down):  1.139E-02 0.000E+00

     total cpu time spent up to now is        2.8 secs

     total energy              =       3.17067947 Ry
     Harris-Foulkes estimate   =     -41.59720854 Ry
     estimated scf accuracy    <       9.94663575 Ry

     iteration # 25     ecut=    30.00 Ry     beta=0.70
     Davidson diagonalization with overlap
     ethr =  1.00E-02,  avg # of iterations =  4.0

     negative rho (up, down):  6.520E-02 0.000E+00

     total cpu time spent up to now is        2.9 secs

     total energy              =     -30.23169312 Ry
     Harris-Foulkes estimate   =     -32.64969785 Ry
     estimated scf accuracy    <       5.75188965 Ry

     iteration # 26     ecut=    30.00 Ry     beta=0.70
     Davidson diagonalization with overlap
     ethr =  1.00E-02,  avg # of iterations =  4.0

     negative rho (up, down):  9.457E-02 0.000E+00

     total cpu time spent up to now is        2.9 secs

     total energy              =     -30.02166766 Ry
     Harris-Foulkes estimate   =     -35.23014070 Ry
     estimated scf accuracy    <       7.91122880 Ry

     iteration # 27     ecut=    30.00 Ry     beta=0.70
     Davidson diagonalization with overlap
     ethr =  1.00E-02,  avg # of iterations =  5.0

     negative rho (up, down):  9.027E-02 0.000E+00

     total cpu time spent up to now is        3.0 secs

     total energy              =     -64.56950321 Ry
     Harris-Foulkes estimate   =     -46.41144858 Ry
     estimated scf accuracy    <      21.33318559 Ry

     iteration # 28     ecut=    30.00 Ry     beta=0.70
     Davidson diagonalization with overlap
     ethr =  1.00E-02,  avg # of iterations =  4.0

     negative rho (up, down):  1.674E-01 0.000E+00

     total cpu time spent up to now is        3.1 secs

     total energy              =      10.38918904 Ry
     Harris-Foulkes estimate   =    -196.22483192 Ry
     estimated scf accuracy    <      74.11936927 Ry

     iteration # 29     ecut=    30.00 Ry     beta=0.70
     Davidson diagonalization with overlap
     ethr =  1.00E-02,  avg # of iterations =  6.0

     negative rho (up, down):  1.983E-01 0.000E+00

     total cpu time spent up to now is        3.1 secs

     total energy              =      -7.49231674 Ry
     Harris-Foulkes estimate   =     -92.05137031 Ry
     estimated scf accuracy    <      35.07657087 Ry

     iteration # 30     ecut=    30.00 Ry     beta=0.70
     Davidson diagonalization with overlap
     ethr =  1.00E-02,  avg # of iterations =  5.0

     negative rho (up, down):  1.851E-01 0.000E+00

     total cpu time spent up to now is        3.2 secs

     total energy              =     207.89889937 Ry
     Harris-Foulkes estimate   =     -89.59816554 Ry
     estimated scf accuracy    <      35.77602902 Ry

     iteration # 31     ecut=    30.00 Ry     beta=0.70
     Davidson diagonalization with overlap
     ethr =  1.00E-02,  avg # of iterations =  5.0

     negative rho (up, down):  9.745E-01 0.000E+00

     total cpu time spent up to now is        3.3 secs

     total energy              =     -28.29969302 Ry
     Harris-Foulkes estimate   =   -2165.71639163 Ry
     estimated scf accuracy    <      62.14114092 Ry

     iteration # 32     ecut=    30.00 Ry     beta=0.70
     Davidson diagonalization with overlap
     ethr =  1.00E-02,  avg # of iterations =  7.0

     negative rho (up, down):  9.254E-01 0.000E+00

     total cpu time spent up to now is        3.4 secs

     total energy              =      12.25117830 Ry
     Harris-Foulkes estimate   =   -6412.76554935 Ry
     estimated scf accuracy    <      60.85550970 Ry

     iteration # 33     ecut=    30.00 Ry     beta=0.70
     Davidson diagonalization with overlap
     ethr =  1.00E-02,  avg # of iterations =  8.0

     negative rho (up, down):  1.099E+00 0.000E+00

     total cpu time spent up to now is        3.4 secs

     total energy              =      37.66826532 Ry
     Harris-Foulkes estimate   =   -2042.18694782 Ry
     estimated scf accuracy    <      55.07679473 Ry

     iteration # 34     ecut=    30.00 Ry     beta=0.70
     Davidson diagonalization with overlap
     ethr =  1.00E-02,  avg # of iterations =  7.0

     negative rho (up, down):  1.412E+00 0.000E+00

     total cpu time spent up to now is        3.5 secs

     total energy              =   -2166.48217193 Ry
     Harris-Foulkes estimate   =   -3415.12694038 Ry
     estimated scf accuracy    <      48.03551343 Ry

     iteration # 35     ecut=    30.00 Ry     beta=0.70
     Davidson diagonalization with overlap
     ethr =  1.00E-02,  avg # of iterations =  8.0

     negative rho (up, down):  1.879E+00 0.000E+00

     total cpu time spent up to now is        3.6 secs

     total energy              =     -70.92032208 Ry
     Harris-Foulkes estimate   =  -29218.46524343 Ry
     estimated scf accuracy    <      54.34347080 Ry

     iteration # 36     ecut=    30.00 Ry     beta=0.70
     Davidson diagonalization with overlap
     ethr =  1.00E-02,  avg # of iterations =  7.0

     negative rho (up, down):  3.377E+00 0.000E+00

     total cpu time spent up to now is        3.7 secs

     total energy              =       7.56740941 Ry
     Harris-Foulkes estimate   =   -1212.28851870 Ry
     estimated scf accuracy    <      52.55820447 Ry

     iteration # 37     ecut=    30.00 Ry     beta=0.70
     Davidson diagonalization with overlap
     ethr =  1.00E-02,  avg # of iterations =  9.0

     negative rho (up, down):  2.573E+00 0.000E+00

     total cpu time spent up to now is        3.8 secs

     total energy              =       5.69708876 Ry
     Harris-Foulkes estimate   =  -46840.94340778 Ry
     estimated scf accuracy    <      36.70249222 Ry

     iteration # 38     ecut=    30.00 Ry     beta=0.70
     Davidson diagonalization with overlap
     ethr =  1.00E-02,  avg # of iterations =  7.0

     negative rho (up, down):  3.139E+00 0.000E+00

     total cpu time spent up to now is        3.9 secs

     total energy              =     -15.05413400 Ry
     Harris-Foulkes estimate   =    -915.21540365 Ry
     estimated scf accuracy    <      32.01591260 Ry

     iteration # 39     ecut=    30.00 Ry     beta=0.70
     Davidson diagonalization with overlap
     ethr =  1.00E-02,  avg # of iterations =  7.0

     negative rho (up, down):  1.875E+00 0.000E+00

     total cpu time spent up to now is        4.0 secs

     total energy              =    -408.90960305 Ry
     Harris-Foulkes estimate   =  -30744.68937622 Ry
     estimated scf accuracy    <      27.28686533 Ry

     iteration # 40     ecut=    30.00 Ry     beta=0.70
     Davidson diagonalization with overlap
     ethr =  1.00E-02,  avg # of iterations = 11.0

     negative rho (up, down):  1.195E+00 0.000E+00

     total cpu time spent up to now is        4.1 secs

     total energy              =     -21.15265036 Ry
     Harris-Foulkes estimate   =  -26755.62086938 Ry
     estimated scf accuracy    <      21.77440997 Ry

     iteration # 41     ecut=    30.00 Ry     beta=0.70
     Davidson diagonalization with overlap
     ethr =  1.00E-02,  avg # of iterations =  6.0

     negative rho (up, down):  2.902E-01 0.000E+00

     total cpu time spent up to now is        4.2 secs

     total energy              =      95.86486800 Ry
     Harris-Foulkes estimate   =  -17042.58835849 Ry
     estimated scf accuracy    <      24.63922000 Ry

     iteration # 42     ecut=    30.00 Ry     beta=0.70
     Davidson diagonalization with overlap
     ethr =  1.00E-02,  avg # of iterations =  8.0

     negative rho (up, down):  1.816E-01 0.000E+00

     total cpu time spent up to now is        4.3 secs

     total energy              =      40.01008457 Ry
     Harris-Foulkes estimate   =    -563.60493095 Ry
     estimated scf accuracy    <      21.41971709 Ry

     iteration # 43     ecut=    30.00 Ry     beta=0.70
     Davidson diagonalization with overlap
     ethr =  1.00E-02,  avg # of iterations =  7.0

     negative rho (up, down):  2.085E-01 0.000E+00

     total cpu time spent up to now is        4.4 secs

     total energy              =     137.89490485 Ry
     Harris-Foulkes estimate   =   -5336.63627299 Ry
     estimated scf accuracy    <      21.01193350 Ry

     iteration # 44     ecut=    30.00 Ry     beta=0.70
     Davidson diagonalization with overlap
     ethr =  1.00E-02,  avg # of iterations = 10.0

     negative rho (up, down):  1.767E-03 0.000E+00

     total cpu time spent up to now is        4.4 secs

     total energy              =      29.24943558 Ry
     Harris-Foulkes estimate   =    -316.54533841 Ry
     estimated scf accuracy    <      35.16083351 Ry

     iteration # 45     ecut=    30.00 Ry     beta=0.70
     Davidson diagonalization with overlap
     ethr =  1.00E-02,  avg # of iterations =  6.0

     negative rho (up, down):  1.757E-02 0.000E+00

     total cpu time spent up to now is        4.5 secs

     total energy              =     -59.48601559 Ry
     Harris-Foulkes estimate   =     -67.54911283 Ry
     estimated scf accuracy    <      51.10737343 Ry

     iteration # 46     ecut=    30.00 Ry     beta=0.70
     Davidson diagonalization with overlap
     ethr =  1.00E-02,  avg # of iterations =  5.0

     negative rho (up, down):  2.372E-02 0.000E+00

     total cpu time spent up to now is        4.6 secs

     total energy              =      31.44466726 Ry
     Harris-Foulkes estimate   =    -296.62942200 Ry
     estimated scf accuracy    <      13.01302784 Ry

     iteration # 47     ecut=    30.00 Ry     beta=0.70
     Davidson diagonalization with overlap
     ethr =  1.00E-02,  avg # of iterations =  8.0

     negative rho (up, down):  7.164E-02 0.000E+00

     total cpu time spent up to now is        4.6 secs

     total energy              =     -57.09858229 Ry
     Harris-Foulkes estimate   =     -62.08378729 Ry
     estimated scf accuracy    <      43.62903235 Ry

     iteration # 48     ecut=    30.00 Ry     beta=0.70
     Davidson diagonalization with overlap
     ethr =  1.00E-02,  avg # of iterations =  5.0

     negative rho (up, down):  6.744E-02 0.000E+00

     total cpu time spent up to now is        4.7 secs

     total energy              =      20.88237379 Ry
     Harris-Foulkes estimate   =    -204.10104769 Ry
     estimated scf accuracy    <      19.03155469 Ry

     iteration # 49     ecut=    30.00 Ry     beta=0.70
     Davidson diagonalization with overlap
     ethr =  1.00E-02,  avg # of iterations =  6.0

     negative rho (up, down):  4.838E-01 0.000E+00

     total cpu time spent up to now is        4.8 secs

     total energy              =     273.13978365 Ry
     Harris-Foulkes estimate   =    -200.65157145 Ry
     estimated scf accuracy    <      27.25025942 Ry

     iteration # 50     ecut=    30.00 Ry     beta=0.70
     Davidson diagonalization with overlap
     ethr =  1.00E-02,  avg # of iterations =  6.0

     negative rho (up, down):  2.066E-01 0.000E+00

     total cpu time spent up to now is        4.9 secs

     total energy              =      74.76798743 Ry
     Harris-Foulkes estimate   =   -2561.18010248 Ry
     estimated scf accuracy    <      24.63630339 Ry

     iteration # 51     ecut=    30.00 Ry     beta=0.70
     Davidson diagonalization with overlap
     ethr =  1.00E-02,  avg # of iterations = 15.0

     negative rho (up, down):  2.219E-01 0.000E+00

     total cpu time spent up to now is        5.0 secs

     total energy              =      45.11375586 Ry
     Harris-Foulkes estimate   =    -421.21050676 Ry
     estimated scf accuracy    <      36.03173568 Ry

     iteration # 52     ecut=    30.00 Ry     beta=0.70
     Davidson diagonalization with overlap
     ethr =  1.00E-02,  avg # of iterations =  8.0

     negative rho (up, down):  3.036E-01 0.000E+00

     total cpu time spent up to now is        5.1 secs

     total energy              =     -23.27986012 Ry
     Harris-Foulkes estimate   =    -228.34767867 Ry
     estimated scf accuracy    <      14.57974873 Ry

     iteration # 53     ecut=    30.00 Ry     beta=0.70
     Davidson diagonalization with overlap
     ethr =  1.00E-02,  avg # of iterations =  9.0

     negative rho (up, down):  1.031E-02 0.000E+00

     total cpu time spent up to now is        5.2 secs

     total energy              =     113.49456407 Ry
     Harris-Foulkes estimate   =   -4370.54692156 Ry
     estimated scf accuracy    <      35.12607750 Ry

     iteration # 54     ecut=    30.00 Ry     beta=0.70
     Davidson diagonalization with overlap
     ethr =  1.00E-02,  avg # of iterations = 12.0

     negative rho (up, down):  2.790E-02 0.000E+00

     total cpu time spent up to now is        5.3 secs

     total energy              =     -45.24923678 Ry
     Harris-Foulkes estimate   =     -49.93932283 Ry
     estimated scf accuracy    <      27.97453909 Ry

     iteration # 55     ecut=    30.00 Ry     beta=0.70
     Davidson diagonalization with overlap
     ethr =  1.00E-02,  avg # of iterations =  6.0

     negative rho (up, down):  7.145E-02 0.000E+00

     total cpu time spent up to now is        5.3 secs

     total energy              =      22.03310394 Ry
     Harris-Foulkes estimate   =    -256.84638245 Ry
     estimated scf accuracy    <      12.60422285 Ry

     iteration # 56     ecut=    30.00 Ry     beta=0.70
     Davidson diagonalization with overlap
     ethr =  1.00E-02,  avg # of iterations =  5.0

     negative rho (up, down):  1.686E-01 0.000E+00

     total cpu time spent up to now is        5.4 secs

     total energy              =    -118.56408377 Ry
     Harris-Foulkes estimate   =     -60.50547913 Ry
     estimated scf accuracy    <      12.30218296 Ry

     iteration # 57     ecut=    30.00 Ry     beta=0.70
     Davidson diagonalization with overlap
     ethr =  1.00E-02,  avg # of iterations =  7.0

     negative rho (up, down):  1.948E-01 0.000E+00

     total cpu time spent up to now is        5.5 secs

     total energy              =   -1818.36706468 Ry
     Harris-Foulkes estimate   =    -677.58777741 Ry
     estimated scf accuracy    <      28.81888744 Ry

     iteration # 58     ecut=    30.00 Ry     beta=0.70
     Davidson diagonalization with overlap
     ethr =  1.00E-02,  avg # of iterations =  7.0

     negative rho (up, down):  1.852E-01 0.000E+00

     total cpu time spent up to now is        5.6 secs

     total energy              =   -1844.98683175 Ry
     Harris-Foulkes estimate   =   -7369.25446417 Ry
     estimated scf accuracy    <      34.65020847 Ry

     iteration # 59     ecut=    30.00 Ry     beta=0.70
     Davidson diagonalization with overlap
     ethr =  1.00E-02,  avg # of iterations =  9.0

     negative rho (up, down):  3.771E-01 0.000E+00

     total cpu time spent up to now is        5.7 secs

     total energy              =      68.98842176 Ry
     Harris-Foulkes estimate   =  -15429.64284936 Ry
     estimated scf accuracy    <      34.04108027 Ry

     iteration # 60     ecut=    30.00 Ry     beta=0.70
     Davidson diagonalization with overlap
     ethr =  1.00E-02,  avg # of iterations =  8.0

     negative rho (up, down):  7.386E-02 0.000E+00

     total cpu time spent up to now is        5.8 secs

     total energy              =     102.46406651 Ry
     Harris-Foulkes estimate   =    -413.25535326 Ry
     estimated scf accuracy    <      28.71995861 Ry

     iteration # 61     ecut=    30.00 Ry     beta=0.70
     Davidson diagonalization with overlap
     ethr =  1.00E-02,  avg # of iterations = 10.0

     negative rho (up, down):  5.408E-02 0.000E+00

     total cpu time spent up to now is        5.9 secs

     total energy              =      24.12876853 Ry
     Harris-Foulkes estimate   =   -2960.99021325 Ry
     estimated scf accuracy    <      25.37501334 Ry

     iteration # 62     ecut=    30.00 Ry     beta=0.70
     Davidson diagonalization with overlap
     ethr =  1.00E-02,  avg # of iterations =  5.0

     negative rho (up, down):  2.307E-01 0.000E+00

     total cpu time spent up to now is        5.9 secs

     total energy              =    -830.94142831 Ry
     Harris-Foulkes estimate   =   -1278.50537706 Ry
     estimated scf accuracy    <      22.18289462 Ry

     iteration # 63     ecut=    30.00 Ry     beta=0.70
     Davidson diagonalization with overlap
     ethr =  1.00E-02,  avg # of iterations =  8.0

     negative rho (up, down):  4.495E-01 0.000E+00

     total cpu time spent up to now is        6.0 secs

     total energy              =      97.70425871 Ry
     Harris-Foulkes estimate   =   -4828.31772981 Ry
     estimated scf accuracy    <      26.10988579 Ry

     iteration # 64     ecut=    30.00 Ry     beta=0.70
     Davidson diagonalization with overlap
     ethr =  1.00E-02,  avg # of iterations =  7.0

     negative rho (up, down):  6.895E-01 0.000E+00

     total cpu time spent up to now is        6.1 secs

     total energy              =    -113.16303109 Ry
     Harris-Foulkes estimate   =    -985.58332008 Ry
     estimated scf accuracy    <      31.58888546 Ry

     iteration # 65     ecut=    30.00 Ry     beta=0.70
     Davidson diagonalization with overlap
     ethr =  1.00E-02,  avg # of iterations = 12.0

     negative rho (up, down):  1.034E+00 0.000E+00

     total cpu time spent up to now is        6.2 secs

     total energy              =    -680.27053747 Ry
     Harris-Foulkes estimate   =  -28442.80059089 Ry
     estimated scf accuracy    <      25.99333617 Ry

     iteration # 66     ecut=    30.00 Ry     beta=0.70
     Davidson diagonalization with overlap
     ethr =  1.00E-02,  avg # of iterations =  9.0

     negative rho (up, down):  9.574E-01 0.000E+00

     total cpu time spent up to now is        6.3 secs

     total energy              =     -21.46464626 Ry
     Harris-Foulkes estimate   =   -4394.68008266 Ry
     estimated scf accuracy    <      22.68423056 Ry

     iteration # 67     ecut=    30.00 Ry     beta=0.70
     Davidson diagonalization with overlap
     ethr =  1.00E-02,  avg # of iterations =  7.0

     negative rho (up, down):  4.147E-01 0.000E+00

     total cpu time spent up to now is        6.4 secs

     total energy              =     228.97315806 Ry
     Harris-Foulkes estimate   =   -1983.49509548 Ry
     estimated scf accuracy    <      27.71549978 Ry

     iteration # 68     ecut=    30.00 Ry     beta=0.70
     Davidson diagonalization with overlap
     ethr =  1.00E-02,  avg # of iterations =  9.0

     negative rho (up, down):  3.556E-01 0.000E+00

     total cpu time spent up to now is        6.5 secs

     total energy              =      46.96119388 Ry
     Harris-Foulkes estimate   =   -2147.38306424 Ry
     estimated scf accuracy    <      17.96279020 Ry

     iteration # 69     ecut=    30.00 Ry     beta=0.70
     Davidson diagonalization with overlap
     ethr =  1.00E-02,  avg # of iterations =  8.0

     negative rho (up, down):  7.622E-01 0.000E+00

     total cpu time spent up to now is        6.6 secs

     total energy              =    -188.89674638 Ry
     Harris-Foulkes estimate   =    -844.41392751 Ry
     estimated scf accuracy    <      17.43360547 Ry

     iteration # 70     ecut=    30.00 Ry     beta=0.70
     Davidson diagonalization with overlap
     ethr =  1.00E-02,  avg # of iterations =  8.0

     negative rho (up, down):  6.263E-01 0.000E+00

     total cpu time spent up to now is        6.7 secs

     total energy              =      89.25498020 Ry
     Harris-Foulkes estimate   =   -3098.00845442 Ry
     estimated scf accuracy    <      30.72097307 Ry

     iteration # 71     ecut=    30.00 Ry     beta=0.70
     Davidson diagonalization with overlap
     ethr =  1.00E-02,  avg # of iterations =  9.0

     negative rho (up, down):  4.539E-01 0.000E+00

     total cpu time spent up to now is        6.8 secs

     total energy              =      90.81632549 Ry
     Harris-Foulkes estimate   =   -3514.57120543 Ry
     estimated scf accuracy    <      23.30800854 Ry

     iteration # 72     ecut=    30.00 Ry     beta=0.70
     Davidson diagonalization with overlap
     ethr =  1.00E-02,  avg # of iterations = 10.0

     negative rho (up, down):  2.201E-01 0.000E+00

     total cpu time spent up to now is        6.9 secs

     total energy              =     113.33752885 Ry
     Harris-Foulkes estimate   =   -1696.00011368 Ry
     estimated scf accuracy    <      25.04590536 Ry

     iteration # 73     ecut=    30.00 Ry     beta=0.70
     Davidson diagonalization with overlap
     ethr =  1.00E-02,  avg # of iterations = 10.0

     negative rho (up, down):  9.500E-03 0.000E+00

     total cpu time spent up to now is        7.0 secs

     total energy              =      65.97626270 Ry
     Harris-Foulkes estimate   =    -239.55082842 Ry
     estimated scf accuracy    <      23.24534766 Ry

     iteration # 74     ecut=    30.00 Ry     beta=0.70
     Davidson diagonalization with overlap
     ethr =  1.00E-02,  avg # of iterations =  9.0

     negative rho (up, down):  8.935E-03 0.000E+00

     total cpu time spent up to now is        7.0 secs

     total energy              =     -56.65478329 Ry
     Harris-Foulkes estimate   =     -64.94099061 Ry
     estimated scf accuracy    <      50.03861928 Ry

     iteration # 75     ecut=    30.00 Ry     beta=0.70
     Davidson diagonalization with overlap
     ethr =  1.00E-02,  avg # of iterations =  2.0

     negative rho (up, down):  6.662E-03 0.000E+00

     total cpu time spent up to now is        7.1 secs

     total energy              =     -50.40851756 Ry
     Harris-Foulkes estimate   =     -56.73995451 Ry
     estimated scf accuracy    <      38.09798815 Ry

     iteration # 76     ecut=    30.00 Ry     beta=0.70
     Davidson diagonalization with overlap
     ethr =  1.00E-02,  avg # of iterations =  6.0

     negative rho (up, down):  1.265E+00 0.000E+00

     total cpu time spent up to now is        7.1 secs

     total energy              =     -36.52225140 Ry
     Harris-Foulkes estimate   =     -50.45533625 Ry
     estimated scf accuracy    <      29.67678822 Ry

     iteration # 77     ecut=    30.00 Ry     beta=0.70
     Davidson diagonalization with overlap
     ethr =  1.00E-02,  avg # of iterations =  8.0

     negative rho (up, down):  1.312E+00 0.000E+00

     total cpu time spent up to now is        7.2 secs

     total energy              =    -235.47758418 Ry
     Harris-Foulkes estimate   =   -1411.97304216 Ry
     estimated scf accuracy    <      42.42407714 Ry

     iteration # 78     ecut=    30.00 Ry     beta=0.70
     Davidson diagonalization with overlap
     ethr =  1.00E-02,  avg # of iterations =  6.0

     negative rho (up, down):  8.815E-02 0.000E+00

     total cpu time spent up to now is        7.3 secs

     total energy              =     107.26097615 Ry
     Harris-Foulkes estimate   =   -4234.98309229 Ry
     estimated scf accuracy    <      35.53485045 Ry

     iteration # 79     ecut=    30.00 Ry     beta=0.70
     Davidson diagonalization with overlap
     ethr =  1.00E-02,  avg # of iterations =  9.0

     negative rho (up, down):  4.797E-04 0.000E+00

     total cpu time spent up to now is        7.4 secs

     total energy              =      73.02203903 Ry
     Harris-Foulkes estimate   =   -1499.06713369 Ry
     estimated scf accuracy    <      15.69227644 Ry

     iteration # 80     ecut=    30.00 Ry     beta=0.70
     Davidson diagonalization with overlap
     ethr =  1.00E-02,  avg # of iterations =  6.0

     negative rho (up, down):  1.924E-01 0.000E+00

     total cpu time spent up to now is        7.5 secs

     total energy              =    -225.88610681 Ry
     Harris-Foulkes estimate   =    -124.72424256 Ry
     estimated scf accuracy    <      11.29176698 Ry

     iteration # 81     ecut=    30.00 Ry     beta=0.70
     Davidson diagonalization with overlap
     ethr =  1.00E-02,  avg # of iterations =  8.0

     negative rho (up, down):  1.162E-01 0.000E+00

     total cpu time spent up to now is        7.6 secs

     total energy              =      31.20322151 Ry
     Harris-Foulkes estimate   =   -5989.44687470 Ry
     estimated scf accuracy    <      29.19847676 Ry

     iteration # 82     ecut=    30.00 Ry     beta=0.70
     Davidson diagonalization with overlap
     ethr =  1.00E-02,  avg # of iterations = 15.0

     negative rho (up, down):  1.234E-03 0.000E+00

     total cpu time spent up to now is        7.7 secs

     total energy              =      82.20537899 Ry
     Harris-Foulkes estimate   =   -3018.84838360 Ry
     estimated scf accuracy    <      12.89248397 Ry

     iteration # 83     ecut=    30.00 Ry     beta=0.70
     Davidson diagonalization with overlap
     ethr =  1.00E-02,  avg # of iterations =  5.0

     negative rho (up, down):  2.932E-02 0.000E+00

     total cpu time spent up to now is        7.8 secs

     total energy              =     -40.41525240 Ry
     Harris-Foulkes estimate   =     -50.37527655 Ry
     estimated scf accuracy    <      29.86996482 Ry

     iteration # 84     ecut=    30.00 Ry     beta=0.70
     Davidson diagonalization with overlap
     ethr =  1.00E-02,  avg # of iterations =  7.0

     negative rho (up, down):  1.693E-02 0.000E+00

     total cpu time spent up to now is        7.9 secs

     total energy              =       3.70628174 Ry
     Harris-Foulkes estimate   =     -62.87999758 Ry
     estimated scf accuracy    <      13.97325560 Ry

     iteration # 85     ecut=    30.00 Ry     beta=0.70
     Davidson diagonalization with overlap
     ethr =  1.00E-02,  avg # of iterations =  6.0

     negative rho (up, down):  1.941E-04 0.000E+00

     total cpu time spent up to now is        7.9 secs

     total energy              =       1.71675770 Ry
     Harris-Foulkes estimate   =     -45.56473352 Ry
     estimated scf accuracy    <      13.77762252 Ry

     iteration # 86     ecut=    30.00 Ry     beta=0.70
     Davidson diagonalization with overlap
     ethr =  1.00E-02,  avg # of iterations =  7.0

     negative rho (up, down):  2.764E-02 0.000E+00

     total cpu time spent up to now is        8.0 secs

     total energy              =     -34.67138423 Ry
     Harris-Foulkes estimate   =     -39.24231765 Ry
     estimated scf accuracy    <      14.56426124 Ry

     iteration # 87     ecut=    30.00 Ry     beta=0.70
     Davidson diagonalization with overlap
     ethr =  1.00E-02,  avg # of iterations =  9.0

     negative rho (up, down):  2.698E-01 0.000E+00

     total cpu time spent up to now is        8.1 secs

     total energy              =      24.47506898 Ry
     Harris-Foulkes estimate   =    -254.42188862 Ry
     estimated scf accuracy    <      35.85091739 Ry

     iteration # 88     ecut=    30.00 Ry     beta=0.70
     Davidson diagonalization with overlap
     ethr =  1.00E-02,  avg # of iterations =  7.0

     negative rho (up, down):  3.113E-01 0.000E+00

     total cpu time spent up to now is        8.2 secs

     total energy              =      53.92338378 Ry
     Harris-Foulkes estimate   =   -1095.07078289 Ry
     estimated scf accuracy    <      56.90912517 Ry

     iteration # 89     ecut=    30.00 Ry     beta=0.70
     Davidson diagonalization with overlap
     ethr =  1.00E-02,  avg # of iterations =  8.0

     negative rho (up, down):  2.594E-01 0.000E+00

     total cpu time spent up to now is        8.3 secs

     total energy              =      19.90720691 Ry
     Harris-Foulkes estimate   =    -592.79810302 Ry
     estimated scf accuracy    <      50.08150743 Ry

     iteration # 90     ecut=    30.00 Ry     beta=0.70
     Davidson diagonalization with overlap
     ethr =  1.00E-02,  avg # of iterations =  6.0

     negative rho (up, down):  1.469E-01 0.000E+00

     total cpu time spent up to now is        8.3 secs

     total energy              =      49.48640977 Ry
     Harris-Foulkes estimate   =    -693.82324441 Ry
     estimated scf accuracy    <      43.61605525 Ry

     iteration # 91     ecut=    30.00 Ry     beta=0.70
     Davidson diagonalization with overlap
     ethr =  1.00E-02,  avg # of iterations =  7.0

     negative rho (up, down):  1.482E-02 0.000E+00

     total cpu time spent up to now is        8.4 secs

     total energy              =      56.00910444 Ry
     Harris-Foulkes estimate   =    -210.84398777 Ry
     estimated scf accuracy    <      46.23942479 Ry

     iteration # 92     ecut=    30.00 Ry     beta=0.70
     Davidson diagonalization with overlap
     ethr =  1.00E-02,  avg # of iterations =  8.0

     negative rho (up, down):  2.510E-03 0.000E+00

     total cpu time spent up to now is        8.5 secs

     total energy              =     100.12581135 Ry
     Harris-Foulkes estimate   =    -233.86897178 Ry
     estimated scf accuracy    <      41.66721099 Ry

     iteration # 93     ecut=    30.00 Ry     beta=0.70
     Davidson diagonalization with overlap
     ethr =  1.00E-02,  avg # of iterations =  9.0

     negative rho (up, down):  5.915E-03 0.000E+00

     total cpu time spent up to now is        8.6 secs

     total energy              =     -35.77311956 Ry
     Harris-Foulkes estimate   =     -36.18421363 Ry
     estimated scf accuracy    <       8.23439026 Ry

     iteration # 94     ecut=    30.00 Ry     beta=0.70
     Davidson diagonalization with overlap
     ethr =  1.00E-02,  avg # of iterations =  1.0

     negative rho (up, down):  1.986E-02 0.000E+00

     total cpu time spent up to now is        8.7 secs

     total energy              =     -34.96167052 Ry
     Harris-Foulkes estimate   =     -35.83764115 Ry
     estimated scf accuracy    <       7.33342292 Ry

     iteration # 95     ecut=    30.00 Ry     beta=0.70
     Davidson diagonalization with overlap
     ethr =  1.00E-02,  avg # of iterations =  5.0

     negative rho (up, down):  1.108E-01 0.000E+00

     total cpu time spent up to now is        8.7 secs

     total energy              =      31.95327459 Ry
     Harris-Foulkes estimate   =    -371.84166165 Ry
     estimated scf accuracy    <      21.49143391 Ry

     iteration # 96     ecut=    30.00 Ry     beta=0.70
     Davidson diagonalization with overlap
     ethr =  1.00E-02,  avg # of iterations =  7.0

     negative rho (up, down):  3.011E-01 0.000E+00

     total cpu time spent up to now is        8.8 secs

     total energy              =      -6.72048627 Ry
     Harris-Foulkes estimate   =    -308.58444442 Ry
     estimated scf accuracy    <      17.89902802 Ry

     iteration # 97     ecut=    30.00 Ry     beta=0.70
     Davidson diagonalization with overlap
     ethr =  1.00E-02,  avg # of iterations =  6.0

     negative rho (up, down):  1.862E-01 0.000E+00

     total cpu time spent up to now is        8.9 secs

     total energy              =     -40.69384784 Ry
     Harris-Foulkes estimate   =    -253.80997521 Ry
     estimated scf accuracy    <      54.14646881 Ry

     iteration # 98     ecut=    30.00 Ry     beta=0.70
     Davidson diagonalization with overlap
     ethr =  1.00E-02,  avg # of iterations =  7.0

     negative rho (up, down):  1.406E-01 0.000E+00

     total cpu time spent up to now is        9.0 secs

     total energy              =      55.71708242 Ry
     Harris-Foulkes estimate   =    -725.02370744 Ry
     estimated scf accuracy    <      35.58504815 Ry

     iteration # 99     ecut=    30.00 Ry     beta=0.70
     Davidson diagonalization with overlap
     ethr =  1.00E-02,  avg # of iterations =  5.0

     negative rho (up, down):  7.549E-02 0.000E+00

     total cpu time spent up to now is        9.0 secs

     total energy              =      89.98152031 Ry
     Harris-Foulkes estimate   =    -381.59726611 Ry
     estimated scf accuracy    <      50.03313807 Ry

     iteration #100     ecut=    30.00 Ry     beta=0.70
     Davidson diagonalization with overlap
     ethr =  1.00E-02,  avg # of iterations = 11.0

     negative rho (up, down):  7.741E-02 0.000E+00

     total cpu time spent up to now is        9.1 secs

     total energy              =      11.46093571 Ry
     Harris-Foulkes estimate   =    -273.46943267 Ry
     estimated scf accuracy    <       6.96162567 Ry

     End of self-consistent calculation

     convergence NOT achieved after 100 iterations: stopping

     Writing output data file pwscf.save
 
     init_run     :      0.17s CPU      0.19s WALL (       1 calls)
     electrons    :      7.43s CPU      8.53s WALL (       2 calls)
     update_pot   :      0.13s CPU      0.16s WALL (       1 calls)
     forces       :      0.04s CPU      0.04s WALL (       1 calls)

     Called by init_run:
     wfcinit      :      0.01s CPU      0.02s WALL (       1 calls)
     potinit      :      0.05s CPU      0.05s WALL (       1 calls)

     Called by electrons:
     c_bands      :      4.51s CPU      4.65s WALL (     111 calls)
     sum_band     :      0.56s CPU      0.59s WALL (     111 calls)
     v_of_rho     :      1.43s CPU      1.46s WALL (     113 calls)
     mix_rho      :      0.78s CPU      1.52s WALL (     111 calls)

     Called by c_bands:
     init_us_2    :      0.02s CPU      0.02s WALL (     223 calls)
     cegterg      :      4.48s CPU      4.58s WALL (     111 calls)

     Called by sum_band:

     Called by *egterg:
     h_psi        :      3.73s CPU      3.82s WALL (     778 calls)
     g_psi        :      0.05s CPU      0.05s WALL (     666 calls)
     cdiaghg      :      0.30s CPU      0.31s WALL (     776 calls)

     Called by h_psi:
     h_psi:pot    :      3.71s CPU      3.80s WALL (     778 calls)
     h_psi:calbec :      0.14s CPU      0.15s WALL (     778 calls)
     vloc_psi     :      3.55s CPU      3.63s WALL (     778 calls)
     add_vuspsi   :      0.01s CPU      0.01s WALL (     778 calls)

     General routines
     calbec       :      0.14s CPU      0.14s WALL (     782 calls)
     fft          :      0.80s CPU      0.82s WALL (    1245 calls)
     fftw         :      3.61s CPU      3.70s WALL (    9144 calls)
     davcio       :      0.14s CPU      0.62s WALL (    2056 calls)
 
     Parallel routines
     fft_scatter  :      1.36s CPU      1.42s WALL (   10389 calls)
 
     PWSCF        :     7.96s CPU         9.24s WALL

 
   This run was terminated on:  15:13:32  13Feb2018            

=------------------------------------------------------------------------------=
   JOB DONE.
=------------------------------------------------------------------------------=
