
     Program PWSCF v.6.0 (svn rev. 13079) starts on 13Feb2018 at 15:14:41 

     This program is part of the open-source Quantum ESPRESSO suite
     for quantum simulation of materials; please cite
         "P. Giannozzi et al., J. Phys.:Condens. Matter 21 395502 (2009);
          URL http://www.quantum-espresso.org", 
     in publications or presentations arising from this work. More details at
     http://www.quantum-espresso.org/quote

     Parallel version (MPI), running on    28 processors
     R & G space division:  proc/nbgrp/npool/nimage =      28
     Reading input from inputs/MD-H2O-round1/418.in

     Current dimensions of program PWSCF are:
     Max number of different atomic species (ntypx) = 10
     Max number of k-points (npk) =  40000
     Max angular momentum in pseudopotentials (lmaxx) =  3

     Subspace diagonalization in iterative solution of the eigenvalue problem:
     a serial algorithm will be used

 
     Parallelization info
     --------------------
     sticks:   dense  smooth     PW     G-vecs:    dense   smooth      PW
     Min         136     136     33                 6338     6338     787
     Max         137     137     34                 6341     6341     792
     Sum        3809    3809    949               177509   177509   22119
 


     bravais-lattice index     =            1
     lattice parameter (alat)  =      20.0000  a.u.
     unit-cell volume          =    8000.0000 (a.u.)^3
     number of atoms/cell      =            3
     number of atomic types    =            2
     number of electrons       =         8.00
     number of Kohn-Sham states=            8
     kinetic-energy cutoff     =      30.0000  Ry
     charge density cutoff     =     120.0000  Ry
     convergence threshold     =      1.0E-08
     mixing beta               =       0.7000
     number of iterations used =            8  plain     mixing
     Exchange-correlation      = BLYP ( 1  3  1  3 0 0)
     nstep                     =         5000


     celldm(1)=  20.000000  celldm(2)=   0.000000  celldm(3)=   0.000000
     celldm(4)=   0.000000  celldm(5)=   0.000000  celldm(6)=   0.000000

     crystal axes: (cart. coord. in units of alat)
               a(1) = (   1.000000   0.000000   0.000000 )  
               a(2) = (   0.000000   1.000000   0.000000 )  
               a(3) = (   0.000000   0.000000   1.000000 )  

     reciprocal axes: (cart. coord. in units 2 pi/alat)
               b(1) = (  1.000000  0.000000  0.000000 )  
               b(2) = (  0.000000  1.000000  0.000000 )  
               b(3) = (  0.000000  0.000000  1.000000 )  


     PseudoPot. # 1 for  H read from file:
     ./H.blyp-hgh.UPF
     MD5 check sum: c576e69559cde411e611be972c763230
     Pseudo is Norm-conserving, Zval =  1.0
     Generated in analytical, separable form
     Using radial grid of  929 points,  0 beta functions with: 

     PseudoPot. # 2 for  O read from file:
     ./O.blyp-hgh.UPF
     MD5 check sum: d0b7156309aa9befef28faac7bc56342
     Pseudo is Norm-conserving, Zval =  6.0
     Generated in analytical, separable form
     Using radial grid of 1095 points,  1 beta functions with: 
                l(1) =   0

     atomic species   valence    mass     pseudopotential
        H              1.00     1.01000      H( 1.00)
        O              6.00    16.00000      O( 1.00)

     No symmetry found



   Cartesian axes

     site n.     atom                  positions (alat units)
         1           O   tau(   1) = (   0.4402263   0.5570103   0.0706002  )
         2           H   tau(   2) = (   0.4947844   0.5690474   0.1273734  )
         3           H   tau(   3) = (   0.8386744   0.8341344   0.5443683  )

     number of k points=     1  Marzari-Vanderbilt smearing, width (Ry)=  0.0250
                       cart. coord. in units 2pi/alat
        k(    1) = (   0.0000000   0.0000000   0.0000000), wk =   2.0000000

     Dense  grid:   177509 G-vectors     FFT dimensions: (  72,  72,  72)

     Estimated max dynamical RAM per process >       6.09Mb

     Estimated total allocated dynamical RAM >     170.64Mb

     Initial potential from superposition of free atoms
     Check: negative starting charge=   -0.352298

     starting charge    7.99998, renormalised to    8.00000

     negative rho (up, down):  3.523E-01 0.000E+00
     Starting wfc are    6 randomized atomic wfcs +    2 random wfc

     total cpu time spent up to now is        0.3 secs

     per-process dynamical memory:    18.8 Mb

     Self-consistent Calculation

     iteration #  1     ecut=    30.00 Ry     beta=0.70
     Davidson diagonalization with overlap
     ethr =  1.00E-02,  avg # of iterations =  5.0

     negative rho (up, down):  9.531E-02 0.000E+00

     total cpu time spent up to now is        0.4 secs

     total energy              =     -31.52707797 Ry
     Harris-Foulkes estimate   =     -32.06725663 Ry
     estimated scf accuracy    <       0.57545037 Ry

     iteration #  2     ecut=    30.00 Ry     beta=0.70
     Davidson diagonalization with overlap
     ethr =  7.19E-03,  avg # of iterations =  3.0

     negative rho (up, down):  7.350E-02 0.000E+00

     total cpu time spent up to now is        0.5 secs

     total energy              =     -31.73125460 Ry
     Harris-Foulkes estimate   =     -32.46104654 Ry
     estimated scf accuracy    <       2.42276881 Ry

     iteration #  3     ecut=    30.00 Ry     beta=0.70
     Davidson diagonalization with overlap
     ethr =  7.19E-03,  avg # of iterations =  2.0

     negative rho (up, down):  2.983E-02 0.000E+00

     total cpu time spent up to now is        0.5 secs

     total energy              =     -31.78785300 Ry
     Harris-Foulkes estimate   =     -31.78164814 Ry
     estimated scf accuracy    <       0.08993659 Ry

     iteration #  4     ecut=    30.00 Ry     beta=0.70
     Davidson diagonalization with overlap
     ethr =  1.12E-03,  avg # of iterations =  3.0

     negative rho (up, down):  6.187E-03 0.000E+00

     total cpu time spent up to now is        0.6 secs

     total energy              =     -31.60437004 Ry
     Harris-Foulkes estimate   =     -31.83849422 Ry
     estimated scf accuracy    <       0.92565130 Ry

     iteration #  5     ecut=    30.00 Ry     beta=0.70
     Davidson diagonalization with overlap
     ethr =  1.12E-03,  avg # of iterations =  2.0

     negative rho (up, down):  1.257E-03 0.000E+00

     total cpu time spent up to now is        0.6 secs

     total energy              =     -31.90993955 Ry
     Harris-Foulkes estimate   =     -32.10912513 Ry
     estimated scf accuracy    <       1.67058483 Ry

     iteration #  6     ecut=    30.00 Ry     beta=0.70
     Davidson diagonalization with overlap
     ethr =  1.12E-03,  avg # of iterations =  1.0

     negative rho (up, down):  9.744E-04 0.000E+00

     total cpu time spent up to now is        0.7 secs

     total energy              =     -31.85520074 Ry
     Harris-Foulkes estimate   =     -31.91279287 Ry
     estimated scf accuracy    <       1.35556824 Ry

     iteration #  7     ecut=    30.00 Ry     beta=0.70
     Davidson diagonalization with overlap
     ethr =  1.12E-03,  avg # of iterations =  1.0

     negative rho (up, down):  7.263E-04 0.000E+00

     total cpu time spent up to now is        0.7 secs

     total energy              =     -31.74292179 Ry
     Harris-Foulkes estimate   =     -31.85185861 Ry
     estimated scf accuracy    <       1.27193619 Ry

     iteration #  8     ecut=    30.00 Ry     beta=0.70
     Davidson diagonalization with overlap
     ethr =  1.12E-03,  avg # of iterations =  1.0

     negative rho (up, down):  1.084E-05 0.000E+00

     total cpu time spent up to now is        0.7 secs

     total energy              =     -31.82861982 Ry
     Harris-Foulkes estimate   =     -31.88483289 Ry
     estimated scf accuracy    <       0.95304089 Ry

     iteration #  9     ecut=    30.00 Ry     beta=0.70
     Davidson diagonalization with overlap
     ethr =  1.12E-03,  avg # of iterations =  1.0

     negative rho (up, down):  9.280E-07 0.000E+00

     total cpu time spent up to now is        0.8 secs

     total energy              =     -31.82647491 Ry
     Harris-Foulkes estimate   =     -31.83585986 Ry
     estimated scf accuracy    <       0.14217874 Ry

     iteration # 10     ecut=    30.00 Ry     beta=0.70
     Davidson diagonalization with overlap
     ethr =  1.12E-03,  avg # of iterations =  1.0

     negative rho (up, down):  3.998E-08 0.000E+00

     total cpu time spent up to now is        0.8 secs

     total energy              =     -31.80449610 Ry
     Harris-Foulkes estimate   =     -31.83848446 Ry
     estimated scf accuracy    <       0.37728247 Ry

     iteration # 11     ecut=    30.00 Ry     beta=0.70
     Davidson diagonalization with overlap
     ethr =  1.12E-03,  avg # of iterations =  1.0

     negative rho (up, down):  1.905E-08 0.000E+00

     total cpu time spent up to now is        0.9 secs

     total energy              =     -31.81769850 Ry
     Harris-Foulkes estimate   =     -31.85876994 Ry
     estimated scf accuracy    <       0.86445631 Ry

     iteration # 12     ecut=    30.00 Ry     beta=0.70
     Davidson diagonalization with overlap
     ethr =  1.12E-03,  avg # of iterations =  1.0

     total cpu time spent up to now is        0.9 secs

     total energy              =     -31.83316790 Ry
     Harris-Foulkes estimate   =     -31.83402928 Ry
     estimated scf accuracy    <       0.01408836 Ry

     iteration # 13     ecut=    30.00 Ry     beta=0.70
     Davidson diagonalization with overlap
     ethr =  1.76E-04,  avg # of iterations =  1.0

     total cpu time spent up to now is        1.0 secs

     total energy              =     -31.83409760 Ry
     Harris-Foulkes estimate   =     -31.83422776 Ry
     estimated scf accuracy    <       0.02790592 Ry

     iteration # 14     ecut=    30.00 Ry     beta=0.70
     Davidson diagonalization with overlap
     ethr =  1.76E-04,  avg # of iterations =  1.0

     negative rho (up, down):  1.533E-08 0.000E+00

     total cpu time spent up to now is        1.0 secs

     total energy              =     -31.83311187 Ry
     Harris-Foulkes estimate   =     -31.83410901 Ry
     estimated scf accuracy    <       0.01905552 Ry

     iteration # 15     ecut=    30.00 Ry     beta=0.70
     Davidson diagonalization with overlap
     ethr =  1.76E-04,  avg # of iterations =  1.0

     total cpu time spent up to now is        1.1 secs

     total energy              =     -31.83351729 Ry
     Harris-Foulkes estimate   =     -31.83413883 Ry
     estimated scf accuracy    <       0.02264371 Ry

     iteration # 16     ecut=    30.00 Ry     beta=0.70
     Davidson diagonalization with overlap
     ethr =  1.76E-04,  avg # of iterations =  1.0

     total cpu time spent up to now is        1.1 secs

     total energy              =     -31.83385474 Ry
     Harris-Foulkes estimate   =     -31.83386390 Ry
     estimated scf accuracy    <       0.00027933 Ry

     iteration # 17     ecut=    30.00 Ry     beta=0.70
     Davidson diagonalization with overlap
     ethr =  3.49E-06,  avg # of iterations =  9.0

     total cpu time spent up to now is        1.2 secs

     total energy              =     -31.83386778 Ry
     Harris-Foulkes estimate   =     -31.83386093 Ry
     estimated scf accuracy    <       0.00002834 Ry

     iteration # 18     ecut=    30.00 Ry     beta=0.70
     Davidson diagonalization with overlap
     ethr =  3.54E-07,  avg # of iterations =  1.0

     total cpu time spent up to now is        1.2 secs

     total energy              =     -31.83387048 Ry
     Harris-Foulkes estimate   =     -31.83389458 Ry
     estimated scf accuracy    <       0.00268603 Ry

     iteration # 19     ecut=    30.00 Ry     beta=0.70
     Davidson diagonalization with overlap
     ethr =  3.54E-07,  avg # of iterations =  1.0

     total cpu time spent up to now is        1.3 secs

     total energy              =     -31.83385717 Ry
     Harris-Foulkes estimate   =     -31.83387480 Ry
     estimated scf accuracy    <       0.00110133 Ry

     iteration # 20     ecut=    30.00 Ry     beta=0.70
     Davidson diagonalization with overlap
     ethr =  3.54E-07,  avg # of iterations =  1.0

     total cpu time spent up to now is        1.3 secs

     total energy              =     -31.83385950 Ry
     Harris-Foulkes estimate   =     -31.83386292 Ry
     estimated scf accuracy    <       0.00013636 Ry

     iteration # 21     ecut=    30.00 Ry     beta=0.70
     Davidson diagonalization with overlap
     ethr =  3.54E-07,  avg # of iterations =  1.0

     total cpu time spent up to now is        1.4 secs

     total energy              =     -31.83386127 Ry
     Harris-Foulkes estimate   =     -31.83386126 Ry
     estimated scf accuracy    <       0.00000003 Ry

     iteration # 22     ecut=    30.00 Ry     beta=0.70
     Davidson diagonalization with overlap
     ethr =  3.86E-10,  avg # of iterations =  1.0

     total cpu time spent up to now is        1.4 secs

     total energy              =     -31.83386129 Ry
     Harris-Foulkes estimate   =     -31.83386127 Ry
     estimated scf accuracy    <       0.00000002 Ry

     iteration # 23     ecut=    30.00 Ry     beta=0.70
     Davidson diagonalization with overlap
     ethr =  2.33E-10,  avg # of iterations =  1.0

     total cpu time spent up to now is        1.5 secs

     End of self-consistent calculation

          k = 0.0000 0.0000 0.0000 ( 22119 PWs)   bands (ev):

   -26.2317 -11.0956  -7.1754  -7.1748  -7.0318  -0.4550   0.5059   0.8101

     the Fermi energy is    -7.0034 ev

!    total energy              =     -31.83386129 Ry
     Harris-Foulkes estimate   =     -31.83386129 Ry
     estimated scf accuracy    <          1.3E-09 Ry

     convergence has been achieved in  23 iterations

     Forces acting on atoms (Ry/au):

     atom    1 type  2   force =    -0.44186510   -0.09654956   -0.45731704
     atom    2 type  1   force =     0.44104660    0.09695188    0.45779486
     atom    3 type  1   force =     0.00081850   -0.00040232   -0.00047781

     Total force =     0.909508     Total SCF correction =     0.000019

     Molecular Dynamics Calculation

     Starting temperature  =  1000.00 K

     temperature is controlled by Andersen thermostat
     Collision frequency = 1.0000/timestep
     mass H                =     1.01
     mass O                =    16.00
     Time step             =   100.00 a.u.,  4.8378 femto-seconds

     Entering Dynamics:    iteration =     1
                           time      =   0.0048 pico-seconds


     Andersen thermostat:    3 collisions

ATOMIC_POSITIONS (bohr)
O        8.640518835  11.099671469   1.233474905
H       12.292757363  12.087993794   4.936638576
H       16.974566778  16.617756555  11.326363270


     kinetic energy (Ekin) =     0.01337019 Ry
     temperature           =   703.66124461 K 
     Ekin + Etot (const)   =   -31.82049110 Ry

     Linear momentum :    0.0000000000    0.0000000000    0.0000000000

     Writing output data file pwscf.save
     Check: negative starting charge=   -0.352298
     NEW-OLD atomic charge density approx. for the potential
     Check: negative starting charge=   -0.344464

     negative rho (up, down):  4.798E-01 0.000E+00

     total cpu time spent up to now is        1.8 secs

     per-process dynamical memory:    20.4 Mb

     Self-consistent Calculation

     iteration #  1     ecut=    30.00 Ry     beta=0.70
     Davidson diagonalization with overlap
     c_bands:  1 eigenvalues not converged
     ethr =  1.00E-06,  avg # of iterations = 20.0

     negative rho (up, down):  1.145E-01 0.000E+00

     total cpu time spent up to now is        2.0 secs

     total energy              =     -23.94066188 Ry
     Harris-Foulkes estimate   =     -33.29257664 Ry
     estimated scf accuracy    <       6.41534287 Ry

     iteration #  2     ecut=    30.00 Ry     beta=0.70
     Davidson diagonalization with overlap
     ethr =  1.00E-02,  avg # of iterations =  3.0

     negative rho (up, down):  8.243E-02 0.000E+00

     total cpu time spent up to now is        2.1 secs

     total energy              =     -32.73546036 Ry
     Harris-Foulkes estimate   =     -39.09557000 Ry
     estimated scf accuracy    <      15.28206131 Ry

     iteration #  3     ecut=    30.00 Ry     beta=0.70
     Davidson diagonalization with overlap
     ethr =  1.00E-02,  avg # of iterations =  2.0

     negative rho (up, down):  6.559E-02 0.000E+00

     total cpu time spent up to now is        2.2 secs

     total energy              =     -31.84591051 Ry
     Harris-Foulkes estimate   =     -33.15805116 Ry
     estimated scf accuracy    <       5.54455933 Ry

     iteration #  4     ecut=    30.00 Ry     beta=0.70
     Davidson diagonalization with overlap
     ethr =  1.00E-02,  avg # of iterations =  1.0

     negative rho (up, down):  2.718E-02 0.000E+00

     total cpu time spent up to now is        2.2 secs

     total energy              =     -30.42853340 Ry
     Harris-Foulkes estimate   =     -31.88767214 Ry
     estimated scf accuracy    <       3.25886684 Ry

     iteration #  5     ecut=    30.00 Ry     beta=0.70
     Davidson diagonalization with overlap
     ethr =  1.00E-02,  avg # of iterations =  3.0

     negative rho (up, down):  1.035E-02 0.000E+00

     total cpu time spent up to now is        2.3 secs

     total energy              =     -31.03543221 Ry
     Harris-Foulkes estimate   =     -33.32098524 Ry
     estimated scf accuracy    <      13.63917558 Ry

     iteration #  6     ecut=    30.00 Ry     beta=0.70
     Davidson diagonalization with overlap
     ethr =  1.00E-02,  avg # of iterations =  2.0

     negative rho (up, down):  2.658E-02 0.000E+00

     total cpu time spent up to now is        2.3 secs

     total energy              =     -31.66205384 Ry
     Harris-Foulkes estimate   =     -31.81826084 Ry
     estimated scf accuracy    <       3.62941596 Ry

     iteration #  7     ecut=    30.00 Ry     beta=0.70
     Davidson diagonalization with overlap
     ethr =  1.00E-02,  avg # of iterations =  1.0

     negative rho (up, down):  4.980E-02 0.000E+00

     total cpu time spent up to now is        2.4 secs

     total energy              =     -31.70250411 Ry
     Harris-Foulkes estimate   =     -31.66932269 Ry
     estimated scf accuracy    <       2.89465990 Ry

     iteration #  8     ecut=    30.00 Ry     beta=0.70
     Davidson diagonalization with overlap
     ethr =  1.00E-02,  avg # of iterations =  1.0

     negative rho (up, down):  1.525E-01 0.000E+00

     total cpu time spent up to now is        2.4 secs

     total energy              =     -31.47757517 Ry
     Harris-Foulkes estimate   =     -31.70512965 Ry
     estimated scf accuracy    <       3.26722375 Ry

     iteration #  9     ecut=    30.00 Ry     beta=0.70
     Davidson diagonalization with overlap
     ethr =  1.00E-02,  avg # of iterations =  1.0

     negative rho (up, down):  4.056E-01 0.000E+00

     total cpu time spent up to now is        2.5 secs

     total energy              =     -31.38653531 Ry
     Harris-Foulkes estimate   =     -31.49981796 Ry
     estimated scf accuracy    <       0.35252165 Ry

     iteration # 10     ecut=    30.00 Ry     beta=0.70
     Davidson diagonalization with overlap
     ethr =  4.41E-03,  avg # of iterations =  1.0

     negative rho (up, down):  5.305E-01 0.000E+00

     total cpu time spent up to now is        2.5 secs

     total energy              =     -31.79912212 Ry
     Harris-Foulkes estimate   =     -31.86835071 Ry
     estimated scf accuracy    <       2.97850880 Ry

     iteration # 11     ecut=    30.00 Ry     beta=0.70
     Davidson diagonalization with overlap
     ethr =  4.41E-03,  avg # of iterations =  1.0

     negative rho (up, down):  4.958E-01 0.000E+00

     total cpu time spent up to now is        2.6 secs

     total energy              =     -31.86572587 Ry
     Harris-Foulkes estimate   =     -31.81001227 Ry
     estimated scf accuracy    <       2.39413134 Ry

     iteration # 12     ecut=    30.00 Ry     beta=0.70
     Davidson diagonalization with overlap
     ethr =  4.41E-03,  avg # of iterations =  1.0

     negative rho (up, down):  3.091E-01 0.000E+00

     total cpu time spent up to now is        2.6 secs

     total energy              =     -31.76740858 Ry
     Harris-Foulkes estimate   =     -31.86757014 Ry
     estimated scf accuracy    <       2.65743712 Ry

     iteration # 13     ecut=    30.00 Ry     beta=0.70
     Davidson diagonalization with overlap
     ethr =  4.41E-03,  avg # of iterations =  1.0

     negative rho (up, down):  6.063E-02 0.000E+00

     total cpu time spent up to now is        2.7 secs

     total energy              =     -31.53906043 Ry
     Harris-Foulkes estimate   =     -31.76782091 Ry
     estimated scf accuracy    <       2.43816653 Ry

     iteration # 14     ecut=    30.00 Ry     beta=0.70
     Davidson diagonalization with overlap
     ethr =  4.41E-03,  avg # of iterations =  1.0

     negative rho (up, down):  5.358E-05 0.000E+00

     total cpu time spent up to now is        2.7 secs

     total energy              =     -31.51760011 Ry
     Harris-Foulkes estimate   =     -31.55379804 Ry
     estimated scf accuracy    <       0.76764667 Ry

     iteration # 15     ecut=    30.00 Ry     beta=0.70
     Davidson diagonalization with overlap
     ethr =  4.41E-03,  avg # of iterations =  1.0

     negative rho (up, down):  6.596E-08 0.000E+00

     total cpu time spent up to now is        2.8 secs

     total energy              =     -31.52715975 Ry
     Harris-Foulkes estimate   =     -31.54896882 Ry
     estimated scf accuracy    <       0.67269942 Ry

     iteration # 16     ecut=    30.00 Ry     beta=0.70
     Davidson diagonalization with overlap
     ethr =  4.41E-03,  avg # of iterations =  1.0

     negative rho (up, down):  3.108E-04 0.000E+00

     total cpu time spent up to now is        2.8 secs

     total energy              =     -31.49973388 Ry
     Harris-Foulkes estimate   =     -31.56093699 Ry
     estimated scf accuracy    <       0.74962320 Ry

     iteration # 17     ecut=    30.00 Ry     beta=0.70
     Davidson diagonalization with overlap
     ethr =  4.41E-03,  avg # of iterations =  1.0

     negative rho (up, down):  5.556E-05 0.000E+00

     total cpu time spent up to now is        2.9 secs

     total energy              =     -31.59489818 Ry
     Harris-Foulkes estimate   =     -31.58429873 Ry
     estimated scf accuracy    <       1.63815995 Ry

     iteration # 18     ecut=    30.00 Ry     beta=0.70
     Davidson diagonalization with overlap
     ethr =  4.41E-03,  avg # of iterations =  1.0

     negative rho (up, down):  1.660E-04 0.000E+00

     total cpu time spent up to now is        2.9 secs

     total energy              =     -31.61035108 Ry
     Harris-Foulkes estimate   =     -31.59872269 Ry
     estimated scf accuracy    <       1.89211732 Ry

     iteration # 19     ecut=    30.00 Ry     beta=0.70
     Davidson diagonalization with overlap
     ethr =  4.41E-03,  avg # of iterations =  1.0

     negative rho (up, down):  8.489E-04 0.000E+00

     total cpu time spent up to now is        3.0 secs

     total energy              =     -31.51976546 Ry
     Harris-Foulkes estimate   =     -31.61040052 Ry
     estimated scf accuracy    <       1.73968597 Ry

     iteration # 20     ecut=    30.00 Ry     beta=0.70
     Davidson diagonalization with overlap
     ethr =  4.41E-03,  avg # of iterations =  1.0

     negative rho (up, down):  5.079E-07 0.000E+00

     total cpu time spent up to now is        3.0 secs

     total energy              =     -31.54036923 Ry
     Harris-Foulkes estimate   =     -31.54437651 Ry
     estimated scf accuracy    <       0.11238823 Ry

     iteration # 21     ecut=    30.00 Ry     beta=0.70
     Davidson diagonalization with overlap
     ethr =  1.40E-03,  avg # of iterations =  1.0

     negative rho (up, down):  5.891E-07 0.000E+00

     total cpu time spent up to now is        3.1 secs

     total energy              =     -31.57104709 Ry
     Harris-Foulkes estimate   =     -31.58014199 Ry
     estimated scf accuracy    <       1.80487556 Ry

     iteration # 22     ecut=    30.00 Ry     beta=0.70
     Davidson diagonalization with overlap
     ethr =  1.40E-03,  avg # of iterations =  1.0

     negative rho (up, down):  4.691E-03 0.000E+00

     total cpu time spent up to now is        3.1 secs

     total energy              =     -31.54200585 Ry
     Harris-Foulkes estimate   =     -31.57094889 Ry
     estimated scf accuracy    <       1.84992464 Ry

     iteration # 23     ecut=    30.00 Ry     beta=0.70
     Davidson diagonalization with overlap
     ethr =  1.40E-03,  avg # of iterations =  1.0

     negative rho (up, down):  5.181E-04 0.000E+00

     total cpu time spent up to now is        3.2 secs

     total energy              =     -31.53956412 Ry
     Harris-Foulkes estimate   =     -31.54748134 Ry
     estimated scf accuracy    <       0.66736003 Ry

     iteration # 24     ecut=    30.00 Ry     beta=0.70
     Davidson diagonalization with overlap
     ethr =  1.40E-03,  avg # of iterations =  1.0

     negative rho (up, down):  9.969E-05 0.000E+00

     total cpu time spent up to now is        3.2 secs

     total energy              =     -31.52410376 Ry
     Harris-Foulkes estimate   =     -31.54141334 Ry
     estimated scf accuracy    <       0.18966324 Ry

     iteration # 25     ecut=    30.00 Ry     beta=0.70
     Davidson diagonalization with overlap
     ethr =  1.40E-03,  avg # of iterations =  1.0

     negative rho (up, down):  1.867E-04 0.000E+00

     total cpu time spent up to now is        3.3 secs

     total energy              =     -31.52932880 Ry
     Harris-Foulkes estimate   =     -31.54531495 Ry
     estimated scf accuracy    <       0.42441359 Ry

     iteration # 26     ecut=    30.00 Ry     beta=0.70
     Davidson diagonalization with overlap
     ethr =  1.40E-03,  avg # of iterations =  1.0

     negative rho (up, down):  5.842E-06 0.000E+00

     total cpu time spent up to now is        3.3 secs

     total energy              =     -31.53699250 Ry
     Harris-Foulkes estimate   =     -31.53779138 Ry
     estimated scf accuracy    <       0.01308506 Ry

     iteration # 27     ecut=    30.00 Ry     beta=0.70
     Davidson diagonalization with overlap
     ethr =  1.64E-04,  avg # of iterations =  1.0

     total cpu time spent up to now is        3.4 secs

     total energy              =     -31.53699620 Ry
     Harris-Foulkes estimate   =     -31.53792837 Ry
     estimated scf accuracy    <       0.02537424 Ry

     iteration # 28     ecut=    30.00 Ry     beta=0.70
     Davidson diagonalization with overlap
     ethr =  1.64E-04,  avg # of iterations =  1.0

     total cpu time spent up to now is        3.4 secs

     total energy              =     -31.53751156 Ry
     Harris-Foulkes estimate   =     -31.53770012 Ry
     estimated scf accuracy    <       0.00686356 Ry

     iteration # 29     ecut=    30.00 Ry     beta=0.70
     Davidson diagonalization with overlap
     ethr =  8.58E-05,  avg # of iterations =  1.0

     total cpu time spent up to now is        3.4 secs

     total energy              =     -31.53761332 Ry
     Harris-Foulkes estimate   =     -31.53761486 Ry
     estimated scf accuracy    <       0.00007489 Ry

     iteration # 30     ecut=    30.00 Ry     beta=0.70
     Davidson diagonalization with overlap
     ethr =  9.36E-07,  avg # of iterations = 12.0

     total cpu time spent up to now is        3.5 secs

     total energy              =     -31.53761465 Ry
     Harris-Foulkes estimate   =     -31.53761462 Ry
     estimated scf accuracy    <       0.00000318 Ry

     iteration # 31     ecut=    30.00 Ry     beta=0.70
     Davidson diagonalization with overlap
     ethr =  3.98E-08,  avg # of iterations =  1.0

     total cpu time spent up to now is        3.6 secs

     total energy              =     -31.53761464 Ry
     Harris-Foulkes estimate   =     -31.53761465 Ry
     estimated scf accuracy    <       0.00000314 Ry

     iteration # 32     ecut=    30.00 Ry     beta=0.70
     Davidson diagonalization with overlap
     ethr =  3.93E-08,  avg # of iterations =  1.0

     total cpu time spent up to now is        3.6 secs

     total energy              =     -31.53761470 Ry
     Harris-Foulkes estimate   =     -31.53761466 Ry
     estimated scf accuracy    <       0.00000014 Ry

     iteration # 33     ecut=    30.00 Ry     beta=0.70
     Davidson diagonalization with overlap
     ethr =  1.81E-09,  avg # of iterations =  1.0

     total cpu time spent up to now is        3.7 secs

     total energy              =     -31.53761470 Ry
     Harris-Foulkes estimate   =     -31.53761470 Ry
     estimated scf accuracy    <       0.00000003 Ry

     iteration # 34     ecut=    30.00 Ry     beta=0.70
     Davidson diagonalization with overlap
     ethr =  3.79E-10,  avg # of iterations =  1.0

     total cpu time spent up to now is        3.7 secs

     End of self-consistent calculation

          k = 0.0000 0.0000 0.0000 ( 22119 PWs)   bands (ev):

   -23.6678  -7.5180  -7.0312  -7.0303  -6.9160  -6.5641  -0.1645   0.7099

     the Fermi energy is    -6.8829 ev

!    total energy              =     -31.53761469 Ry
     Harris-Foulkes estimate   =     -31.53761470 Ry
     estimated scf accuracy    <          2.7E-09 Ry

     convergence has been achieved in  34 iterations

     Forces acting on atoms (Ry/au):

     atom    1 type  2   force =     0.03175108    0.00851263    0.03211972
     atom    2 type  1   force =    -0.03151986   -0.00859460   -0.03190920
     atom    3 type  1   force =    -0.00023122    0.00008198   -0.00021053

     Total force =     0.064792     Total SCF correction =     0.000005

     Entering Dynamics:    iteration =     2
                           time      =   0.0097 pico-seconds


     Andersen thermostat:    3 collisions

ATOMIC_POSITIONS (bohr)
O        8.664800938  11.089830270   1.251402890
H       11.994154193  11.869086088   4.734140239
H       16.888502985  16.992564439  11.244853912


     kinetic energy (Ekin) =     0.01156007 Ry
     temperature           =   608.39594631 K 
     Ekin + Etot (const)   =   -31.52605463 Ry
     Message from routine dynamics:
     Total linear momentum <> 0

     Linear momentum :    0.0316409203    0.3676783473    0.1781879288

     Writing output data file pwscf.save

     first order wave-functions extrapolation
     Check: negative starting charge=   -0.344464
     first order charge density extrapolation
     Check: negative starting charge=   -0.344775

     negative rho (up, down):  4.886E-01 0.000E+00

     total cpu time spent up to now is        4.1 secs

     per-process dynamical memory:    20.4 Mb

     Self-consistent Calculation

     iteration #  1     ecut=    30.00 Ry     beta=0.70
     Davidson diagonalization with overlap
     ethr =  1.00E-06,  avg # of iterations = 12.0

     negative rho (up, down):  1.141E-01 0.000E+00

     total cpu time spent up to now is        4.3 secs

     total energy              =      49.85615615 Ry
     Harris-Foulkes estimate   =    -384.78456437 Ry
     estimated scf accuracy    <      24.43265971 Ry

     iteration #  2     ecut=    30.00 Ry     beta=0.70
     Davidson diagonalization with overlap
     ethr =  1.00E-02,  avg # of iterations =  8.0

     negative rho (up, down):  6.826E-02 0.000E+00

     total cpu time spent up to now is        4.4 secs

     total energy              =     -34.78641563 Ry
     Harris-Foulkes estimate   =     -45.46095890 Ry
     estimated scf accuracy    <      20.38574699 Ry

     iteration #  3     ecut=    30.00 Ry     beta=0.70
     Davidson diagonalization with overlap
     ethr =  1.00E-02,  avg # of iterations =  3.0

     negative rho (up, down):  5.442E-02 0.000E+00

     total cpu time spent up to now is        4.5 secs

     total energy              =     -33.67694129 Ry
     Harris-Foulkes estimate   =     -35.46253948 Ry
     estimated scf accuracy    <       7.53925787 Ry

     iteration #  4     ecut=    30.00 Ry     beta=0.70
     Davidson diagonalization with overlap
     ethr =  1.00E-02,  avg # of iterations =  2.0

     negative rho (up, down):  3.415E-02 0.000E+00

     total cpu time spent up to now is        4.5 secs

     total energy              =     -32.16259225 Ry
     Harris-Foulkes estimate   =     -34.32636495 Ry
     estimated scf accuracy    <       5.67313060 Ry

     iteration #  5     ecut=    30.00 Ry     beta=0.70
     Davidson diagonalization with overlap
     ethr =  1.00E-02,  avg # of iterations =  3.0

     negative rho (up, down):  3.466E-02 0.000E+00

     total cpu time spent up to now is        4.6 secs

     total energy              =     -32.45082594 Ry
     Harris-Foulkes estimate   =     -32.63038553 Ry
     estimated scf accuracy    <       3.10451897 Ry

     iteration #  6     ecut=    30.00 Ry     beta=0.70
     Davidson diagonalization with overlap
     ethr =  1.00E-02,  avg # of iterations =  1.0

     negative rho (up, down):  3.598E-02 0.000E+00

     total cpu time spent up to now is        4.6 secs

     total energy              =     -32.68041202 Ry
     Harris-Foulkes estimate   =     -32.50025679 Ry
     estimated scf accuracy    <       2.66650349 Ry

     iteration #  7     ecut=    30.00 Ry     beta=0.70
     Davidson diagonalization with overlap
     ethr =  1.00E-02,  avg # of iterations =  1.0

     negative rho (up, down):  1.953E-02 0.000E+00

     total cpu time spent up to now is        4.7 secs

     total energy              =     -31.05622885 Ry
     Harris-Foulkes estimate   =     -32.68705640 Ry
     estimated scf accuracy    <       3.13803110 Ry

     iteration #  8     ecut=    30.00 Ry     beta=0.70
     Davidson diagonalization with overlap
     ethr =  1.00E-02,  avg # of iterations =  2.0

     negative rho (up, down):  1.746E-02 0.000E+00

     total cpu time spent up to now is        4.7 secs

     total energy              =     -32.23926425 Ry
     Harris-Foulkes estimate   =     -32.32875862 Ry
     estimated scf accuracy    <       2.63893205 Ry

     iteration #  9     ecut=    30.00 Ry     beta=0.70
     Davidson diagonalization with overlap
     ethr =  1.00E-02,  avg # of iterations =  1.0

     negative rho (up, down):  1.424E-02 0.000E+00

     total cpu time spent up to now is        4.8 secs

     total energy              =     -31.84669970 Ry
     Harris-Foulkes estimate   =     -32.24101871 Ry
     estimated scf accuracy    <       2.46819637 Ry

     iteration # 10     ecut=    30.00 Ry     beta=0.70
     Davidson diagonalization with overlap
     ethr =  1.00E-02,  avg # of iterations =  1.0

     negative rho (up, down):  1.187E-03 0.000E+00

     total cpu time spent up to now is        4.8 secs

     total energy              =     -31.41485193 Ry
     Harris-Foulkes estimate   =     -31.85281735 Ry
     estimated scf accuracy    <       1.79412944 Ry

     iteration # 11     ecut=    30.00 Ry     beta=0.70
     Davidson diagonalization with overlap
     ethr =  1.00E-02,  avg # of iterations =  1.0

     negative rho (up, down):  4.295E-04 0.000E+00

     total cpu time spent up to now is        4.9 secs

     total energy              =     -31.49499510 Ry
     Harris-Foulkes estimate   =     -31.65187260 Ry
     estimated scf accuracy    <       1.45781507 Ry

     iteration # 12     ecut=    30.00 Ry     beta=0.70
     Davidson diagonalization with overlap
     ethr =  1.00E-02,  avg # of iterations =  1.0

     negative rho (up, down):  3.454E-04 0.000E+00

     total cpu time spent up to now is        4.9 secs

     total energy              =     -31.56543968 Ry
     Harris-Foulkes estimate   =     -31.69414413 Ry
     estimated scf accuracy    <       2.12145006 Ry

     iteration # 13     ecut=    30.00 Ry     beta=0.70
     Davidson diagonalization with overlap
     ethr =  1.00E-02,  avg # of iterations =  1.0

     negative rho (up, down):  7.860E-04 0.000E+00

     total cpu time spent up to now is        5.0 secs

     total energy              =     -31.29017754 Ry
     Harris-Foulkes estimate   =     -31.63869894 Ry
     estimated scf accuracy    <       1.02830000 Ry

     iteration # 14     ecut=    30.00 Ry     beta=0.70
     Davidson diagonalization with overlap
     ethr =  1.00E-02,  avg # of iterations =  1.0

     negative rho (up, down):  6.891E-04 0.000E+00

     total cpu time spent up to now is        5.1 secs

     total energy              =     -31.45164655 Ry
     Harris-Foulkes estimate   =     -31.94332593 Ry
     estimated scf accuracy    <       1.67031461 Ry

     iteration # 15     ecut=    30.00 Ry     beta=0.70
     Davidson diagonalization with overlap
     ethr =  1.00E-02,  avg # of iterations =  1.0

     negative rho (up, down):  1.087E-04 0.000E+00

     total cpu time spent up to now is        5.1 secs

     total energy              =     -31.34772072 Ry
     Harris-Foulkes estimate   =     -31.62826113 Ry
     estimated scf accuracy    <       0.98732715 Ry

     iteration # 16     ecut=    30.00 Ry     beta=0.70
     Davidson diagonalization with overlap
     ethr =  1.00E-02,  avg # of iterations =  1.0

     negative rho (up, down):  1.521E-05 0.000E+00

     total cpu time spent up to now is        5.2 secs

     total energy              =     -31.62122481 Ry
     Harris-Foulkes estimate   =     -31.75481487 Ry
     estimated scf accuracy    <       1.44966237 Ry

     iteration # 17     ecut=    30.00 Ry     beta=0.70
     Davidson diagonalization with overlap
     ethr =  1.00E-02,  avg # of iterations =  1.0

     negative rho (up, down):  1.106E-06 0.000E+00

     total cpu time spent up to now is        5.2 secs

     total energy              =     -31.52080631 Ry
     Harris-Foulkes estimate   =     -31.62244112 Ry
     estimated scf accuracy    <       1.29116172 Ry

     iteration # 18     ecut=    30.00 Ry     beta=0.70
     Davidson diagonalization with overlap
     ethr =  1.00E-02,  avg # of iterations =  1.0

     negative rho (up, down):  6.641E-08 0.000E+00

     total cpu time spent up to now is        5.3 secs

     total energy              =     -31.54652671 Ry
     Harris-Foulkes estimate   =     -31.57551494 Ry
     estimated scf accuracy    <       0.81505770 Ry

     iteration # 19     ecut=    30.00 Ry     beta=0.70
     Davidson diagonalization with overlap
     ethr =  1.00E-02,  avg # of iterations =  1.0

     total cpu time spent up to now is        5.3 secs

     total energy              =     -31.55080738 Ry
     Harris-Foulkes estimate   =     -31.56216513 Ry
     estimated scf accuracy    <       0.04646391 Ry

     iteration # 20     ecut=    30.00 Ry     beta=0.70
     Davidson diagonalization with overlap
     ethr =  5.81E-04,  avg # of iterations =  1.0

     negative rho (up, down):  1.536E-08 0.000E+00

     total cpu time spent up to now is        5.4 secs

     total energy              =     -31.58197866 Ry
     Harris-Foulkes estimate   =     -31.59671698 Ry
     estimated scf accuracy    <       1.15994728 Ry

     iteration # 21     ecut=    30.00 Ry     beta=0.70
     Davidson diagonalization with overlap
     ethr =  5.81E-04,  avg # of iterations =  1.0

     total cpu time spent up to now is        5.4 secs

     total energy              =     -31.58621197 Ry
     Harris-Foulkes estimate   =     -31.58236706 Ry
     estimated scf accuracy    <       0.98398820 Ry

     iteration # 22     ecut=    30.00 Ry     beta=0.70
     Davidson diagonalization with overlap
     ethr =  5.81E-04,  avg # of iterations =  1.0

     total cpu time spent up to now is        5.5 secs

     total energy              =     -31.55885035 Ry
     Harris-Foulkes estimate   =     -31.58628254 Ry
     estimated scf accuracy    <       1.05408766 Ry

     iteration # 23     ecut=    30.00 Ry     beta=0.70
     Davidson diagonalization with overlap
     ethr =  5.81E-04,  avg # of iterations =  1.0

     total cpu time spent up to now is        5.5 secs

     total energy              =     -31.56452539 Ry
     Harris-Foulkes estimate   =     -31.56384503 Ry
     estimated scf accuracy    <       0.29099455 Ry

     iteration # 24     ecut=    30.00 Ry     beta=0.70
     Davidson diagonalization with overlap
     ethr =  5.81E-04,  avg # of iterations =  1.0

     total cpu time spent up to now is        5.6 secs

     total energy              =     -31.56150882 Ry
     Harris-Foulkes estimate   =     -31.56456214 Ry
     estimated scf accuracy    <       0.33691117 Ry

     iteration # 25     ecut=    30.00 Ry     beta=0.70
     Davidson diagonalization with overlap
     ethr =  5.81E-04,  avg # of iterations =  1.0

     total cpu time spent up to now is        5.6 secs

     total energy              =     -31.55362836 Ry
     Harris-Foulkes estimate   =     -31.56191263 Ry
     estimated scf accuracy    <       0.17856887 Ry

     iteration # 26     ecut=    30.00 Ry     beta=0.70
     Davidson diagonalization with overlap
     ethr =  5.81E-04,  avg # of iterations =  1.0

     total cpu time spent up to now is        5.7 secs

     total energy              =     -31.55825976 Ry
     Harris-Foulkes estimate   =     -31.56119585 Ry
     estimated scf accuracy    <       0.14454641 Ry

     iteration # 27     ecut=    30.00 Ry     beta=0.70
     Davidson diagonalization with overlap
     ethr =  5.81E-04,  avg # of iterations =  1.0

     total cpu time spent up to now is        5.7 secs

     total energy              =     -31.55933221 Ry
     Harris-Foulkes estimate   =     -31.55947991 Ry
     estimated scf accuracy    <       0.00307868 Ry

     iteration # 28     ecut=    30.00 Ry     beta=0.70
     Davidson diagonalization with overlap
     ethr =  3.85E-05,  avg # of iterations =  1.0

     total cpu time spent up to now is        5.8 secs

     total energy              =     -31.55935771 Ry
     Harris-Foulkes estimate   =     -31.55946431 Ry
     estimated scf accuracy    <       0.00241671 Ry

     iteration # 29     ecut=    30.00 Ry     beta=0.70
     Davidson diagonalization with overlap
     ethr =  3.02E-05,  avg # of iterations =  1.0

     total cpu time spent up to now is        5.8 secs

     total energy              =     -31.55941963 Ry
     Harris-Foulkes estimate   =     -31.55945634 Ry
     estimated scf accuracy    <       0.00178620 Ry

     iteration # 30     ecut=    30.00 Ry     beta=0.70
     Davidson diagonalization with overlap
     ethr =  2.23E-05,  avg # of iterations =  1.0

     total cpu time spent up to now is        5.9 secs

     total energy              =     -31.55943410 Ry
     Harris-Foulkes estimate   =     -31.55943485 Ry
     estimated scf accuracy    <       0.00004247 Ry

     iteration # 31     ecut=    30.00 Ry     beta=0.70
     Davidson diagonalization with overlap
     ethr =  5.31E-07,  avg # of iterations = 15.0

     total cpu time spent up to now is        5.9 secs

     total energy              =     -31.55943411 Ry
     Harris-Foulkes estimate   =     -31.55943430 Ry
     estimated scf accuracy    <       0.00000643 Ry

     iteration # 32     ecut=    30.00 Ry     beta=0.70
     Davidson diagonalization with overlap
     ethr =  8.04E-08,  avg # of iterations =  1.0

     total cpu time spent up to now is        6.0 secs

     total energy              =     -31.55943422 Ry
     Harris-Foulkes estimate   =     -31.55943420 Ry
     estimated scf accuracy    <       0.00000001 Ry

     iteration # 33     ecut=    30.00 Ry     beta=0.70
     Davidson diagonalization with overlap
     ethr =  1.30E-10,  avg # of iterations =  1.0

     total cpu time spent up to now is        6.1 secs

     total energy              =     -31.55943419 Ry
     Harris-Foulkes estimate   =     -31.55943422 Ry
     estimated scf accuracy    <       0.00000006 Ry

     iteration # 34     ecut=    30.00 Ry     beta=0.70
     Davidson diagonalization with overlap
     ethr =  1.30E-10,  avg # of iterations =  1.0

     total cpu time spent up to now is        6.1 secs

     End of self-consistent calculation

          k = 0.0000 0.0000 0.0000 ( 22119 PWs)   bands (ev):

   -23.6480  -7.7265  -6.9770  -6.9761  -6.8486  -6.4403  -0.1577   0.7192

     the Fermi energy is    -6.8142 ev

!    total energy              =     -31.55943415 Ry
     Harris-Foulkes estimate   =     -31.55943419 Ry
     estimated scf accuracy    <          2.0E-09 Ry

     convergence has been achieved in  34 iterations

     Forces acting on atoms (Ry/au):

     atom    1 type  2   force =     0.04439123    0.00998131    0.04585997
     atom    2 type  1   force =    -0.04412763   -0.01021039   -0.04587332
     atom    3 type  1   force =    -0.00026361    0.00022908    0.00001335

     Total force =     0.091265     Total SCF correction =     0.000022

     Entering Dynamics:    iteration =     3
                           time      =   0.0145 pico-seconds


     Andersen thermostat:    3 collisions

ATOMIC_POSITIONS (bohr)
O        8.679959410  11.103082141   1.280731856
H       11.642768517  11.844332691   4.525458741
H       16.999754450  16.807387209  10.988918129


     kinetic energy (Ekin) =     0.00980667 Ry
     temperature           =   516.11624638 K 
     Ekin + Etot (const)   =   -31.54962748 Ry
     Message from routine dynamics:
     Total linear momentum <> 0

     Linear momentum :    0.3679424336   -0.4059240373    0.0655390169

     Writing output data file pwscf.save

     second order wave-functions extrapolation
     Check: negative starting charge=   -0.344775
     second order charge density extrapolation
     Check: negative starting charge=   -0.344771

     negative rho (up, down):  6.112E-02 0.000E+00

     total cpu time spent up to now is        6.7 secs

     per-process dynamical memory:    20.4 Mb

     Self-consistent Calculation

     iteration #  1     ecut=    30.00 Ry     beta=0.70
     Davidson diagonalization with overlap
     c_bands:  1 eigenvalues not converged
     ethr =  1.00E-06,  avg # of iterations = 20.0

     negative rho (up, down):  1.445E-02 0.000E+00

     total cpu time spent up to now is        6.8 secs

     total energy              =     -31.55839030 Ry
     Harris-Foulkes estimate   =     -31.53748116 Ry
     estimated scf accuracy    <       0.02719051 Ry

     iteration #  2     ecut=    30.00 Ry     beta=0.70
     Davidson diagonalization with overlap
     ethr =  3.40E-04,  avg # of iterations =  2.0

     negative rho (up, down):  1.336E-02 0.000E+00

     total cpu time spent up to now is        6.9 secs

     total energy              =     -31.53008763 Ry
     Harris-Foulkes estimate   =     -31.83333802 Ry
     estimated scf accuracy    <       2.99946024 Ry

     iteration #  3     ecut=    30.00 Ry     beta=0.70
     Davidson diagonalization with overlap
     ethr =  3.40E-04,  avg # of iterations =  2.0

     negative rho (up, down):  1.334E-02 0.000E+00

     total cpu time spent up to now is        6.9 secs

     total energy              =     -31.58169461 Ry
     Harris-Foulkes estimate   =     -31.58175935 Ry
     estimated scf accuracy    <       0.14849875 Ry

     iteration #  4     ecut=    30.00 Ry     beta=0.70
     Davidson diagonalization with overlap
     ethr =  3.40E-04,  avg # of iterations =  1.0

     negative rho (up, down):  4.734E-03 0.000E+00

     total cpu time spent up to now is        7.0 secs

     total energy              =     -31.58392282 Ry
     Harris-Foulkes estimate   =     -31.58170633 Ry
     estimated scf accuracy    <       0.14034109 Ry

     iteration #  5     ecut=    30.00 Ry     beta=0.70
     Davidson diagonalization with overlap
     ethr =  3.40E-04,  avg # of iterations =  1.0

     negative rho (up, down):  1.166E-03 0.000E+00

     total cpu time spent up to now is        7.0 secs

     total energy              =     -31.59171965 Ry
     Harris-Foulkes estimate   =     -31.59104345 Ry
     estimated scf accuracy    <       0.14028952 Ry

     iteration #  6     ecut=    30.00 Ry     beta=0.70
     Davidson diagonalization with overlap
     ethr =  3.40E-04,  avg # of iterations =  3.0

     negative rho (up, down):  2.258E-05 0.000E+00

     total cpu time spent up to now is        7.1 secs

     total energy              =     -31.59259173 Ry
     Harris-Foulkes estimate   =     -31.59262419 Ry
     estimated scf accuracy    <       0.01298610 Ry

     iteration #  7     ecut=    30.00 Ry     beta=0.70
     Davidson diagonalization with overlap
     ethr =  1.62E-04,  avg # of iterations =  1.0

     negative rho (up, down):  8.453E-06 0.000E+00

     total cpu time spent up to now is        7.1 secs

     total energy              =     -31.59275204 Ry
     Harris-Foulkes estimate   =     -31.59275257 Ry
     estimated scf accuracy    <       0.00001534 Ry

     iteration #  8     ecut=    30.00 Ry     beta=0.70
     Davidson diagonalization with overlap
     c_bands:  1 eigenvalues not converged
     ethr =  1.92E-07,  avg # of iterations = 20.0

     negative rho (up, down):  7.716E-07 0.000E+00

     total cpu time spent up to now is        7.2 secs

     total energy              =     -31.59274636 Ry
     Harris-Foulkes estimate   =     -31.59275376 Ry
     estimated scf accuracy    <       0.00002625 Ry

     iteration #  9     ecut=    30.00 Ry     beta=0.70
     Davidson diagonalization with overlap
     ethr =  1.92E-07,  avg # of iterations = 16.0

     total cpu time spent up to now is        7.3 secs

     total energy              =     -31.59274573 Ry
     Harris-Foulkes estimate   =     -31.59274688 Ry
     estimated scf accuracy    <       0.00001180 Ry

     iteration # 10     ecut=    30.00 Ry     beta=0.70
     Davidson diagonalization with overlap
     ethr =  1.48E-07,  avg # of iterations =  1.0

     total cpu time spent up to now is        7.3 secs

     total energy              =     -31.59274446 Ry
     Harris-Foulkes estimate   =     -31.59274586 Ry
     estimated scf accuracy    <       0.00000209 Ry

     iteration # 11     ecut=    30.00 Ry     beta=0.70
     Davidson diagonalization with overlap
     ethr =  2.61E-08,  avg # of iterations =  1.0

     total cpu time spent up to now is        7.4 secs

     total energy              =     -31.59274363 Ry
     Harris-Foulkes estimate   =     -31.59274447 Ry
     estimated scf accuracy    <       0.00000272 Ry

     iteration # 12     ecut=    30.00 Ry     beta=0.70
     Davidson diagonalization with overlap
     ethr =  2.61E-08,  avg # of iterations =  1.0

     total cpu time spent up to now is        7.4 secs

     total energy              =     -31.59274333 Ry
     Harris-Foulkes estimate   =     -31.59274366 Ry
     estimated scf accuracy    <       0.00000004 Ry

     iteration # 13     ecut=    30.00 Ry     beta=0.70
     Davidson diagonalization with overlap
     ethr =  5.01E-10,  avg # of iterations =  2.0

     total cpu time spent up to now is        7.5 secs

     End of self-consistent calculation

          k = 0.0000 0.0000 0.0000 ( 22119 PWs)   bands (ev):

   -23.6317  -7.9533  -6.9499  -6.9488  -6.8164  -6.1357  -0.1471   0.7405

     the Fermi energy is    -6.7813 ev

!    total energy              =     -31.59274309 Ry
     Harris-Foulkes estimate   =     -31.59274333 Ry
     estimated scf accuracy    <          8.9E-09 Ry

     convergence has been achieved in  13 iterations

     Forces acting on atoms (Ry/au):

     atom    1 type  2   force =     0.06028826    0.01483801    0.06514673
     atom    2 type  1   force =    -0.05997472   -0.01491882   -0.06530950
     atom    3 type  1   force =    -0.00031354    0.00008081    0.00016277

     Total force =     0.127216     Total SCF correction =     0.000363

     Entering Dynamics:    iteration =     4
                           time      =   0.0194 pico-seconds


     Andersen thermostat:    3 collisions

ATOMIC_POSITIONS (bohr)
O        8.688820571  11.093902535   1.348029845
H       10.884946398  11.444806022   3.611491463
H       17.617201735  17.352333372  10.836778650


     kinetic energy (Ekin) =     0.06362083 Ry
     temperature           =  3348.30735048 K 
     Ekin + Etot (const)   =   -31.52912227 Ry
     Message from routine dynamics:
     Total linear momentum <> 0

     Linear momentum :    0.2868737536    0.0527050046   -0.2617939527

     Writing output data file pwscf.save

     second order wave-functions extrapolation
     Check: negative starting charge=   -0.344771
     second order charge density extrapolation
     Check: negative starting charge=   -0.346659

     negative rho (up, down):  1.965E-01 0.000E+00

     total cpu time spent up to now is        8.0 secs

     per-process dynamical memory:    20.4 Mb

     Self-consistent Calculation

     iteration #  1     ecut=    30.00 Ry     beta=0.70
     Davidson diagonalization with overlap
     ethr =  1.00E-06,  avg # of iterations =  9.0

     negative rho (up, down):  2.229E-02 0.000E+00

     total cpu time spent up to now is        8.1 secs

     total energy              =      57.80349436 Ry
     Harris-Foulkes estimate   =    -352.82619647 Ry
     estimated scf accuracy    <      28.96462479 Ry

     iteration #  2     ecut=    30.00 Ry     beta=0.70
     Davidson diagonalization with overlap
     ethr =  1.00E-02,  avg # of iterations =  4.0

     negative rho (up, down):  1.420E-02 0.000E+00

     total cpu time spent up to now is        8.2 secs

     total energy              =     -36.15888312 Ry
     Harris-Foulkes estimate   =     -51.44061084 Ry
     estimated scf accuracy    <      29.80149422 Ry

     iteration #  3     ecut=    30.00 Ry     beta=0.70
     Davidson diagonalization with overlap
     ethr =  1.00E-02,  avg # of iterations =  3.0

     negative rho (up, down):  8.924E-03 0.000E+00

     total cpu time spent up to now is        8.3 secs

     total energy              =     -32.75904138 Ry
     Harris-Foulkes estimate   =     -36.95430046 Ry
     estimated scf accuracy    <       9.36766621 Ry

     iteration #  4     ecut=    30.00 Ry     beta=0.70
     Davidson diagonalization with overlap
     ethr =  1.00E-02,  avg # of iterations =  2.0

     negative rho (up, down):  4.869E-03 0.000E+00

     total cpu time spent up to now is        8.3 secs

     total energy              =     -31.80556794 Ry
     Harris-Foulkes estimate   =     -32.93594526 Ry
     estimated scf accuracy    <       3.28615229 Ry

     iteration #  5     ecut=    30.00 Ry     beta=0.70
     Davidson diagonalization with overlap
     ethr =  1.00E-02,  avg # of iterations =  1.0

     negative rho (up, down):  5.264E-04 0.000E+00

     total cpu time spent up to now is        8.4 secs

     total energy              =     -30.82690088 Ry
     Harris-Foulkes estimate   =     -31.81690604 Ry
     estimated scf accuracy    <       1.57131603 Ry

     iteration #  6     ecut=    30.00 Ry     beta=0.70
     Davidson diagonalization with overlap
     ethr =  1.00E-02,  avg # of iterations =  5.0

     negative rho (up, down):  6.433E-04 0.000E+00

     total cpu time spent up to now is        8.4 secs

     total energy              =     -31.79720826 Ry
     Harris-Foulkes estimate   =     -34.39038710 Ry
     estimated scf accuracy    <      14.51583090 Ry

     iteration #  7     ecut=    30.00 Ry     beta=0.70
     Davidson diagonalization with overlap
     ethr =  1.00E-02,  avg # of iterations =  6.0

     negative rho (up, down):  2.261E-03 0.000E+00

     total cpu time spent up to now is        8.5 secs

     total energy              =     -32.40374072 Ry
     Harris-Foulkes estimate   =     -32.50505382 Ry
     estimated scf accuracy    <       2.69792344 Ry

     iteration #  8     ecut=    30.00 Ry     beta=0.70
     Davidson diagonalization with overlap
     ethr =  1.00E-02,  avg # of iterations =  1.0

     negative rho (up, down):  3.636E-03 0.000E+00

     total cpu time spent up to now is        8.5 secs

     total energy              =     -32.45458788 Ry
     Harris-Foulkes estimate   =     -32.40952667 Ry
     estimated scf accuracy    <       2.43278394 Ry

     iteration #  9     ecut=    30.00 Ry     beta=0.70
     Davidson diagonalization with overlap
     ethr =  1.00E-02,  avg # of iterations =  1.0

     negative rho (up, down):  6.967E-04 0.000E+00

     total cpu time spent up to now is        8.6 secs

     total energy              =     -32.73395076 Ry
     Harris-Foulkes estimate   =     -32.45669348 Ry
     estimated scf accuracy    <       2.54486011 Ry

     iteration # 10     ecut=    30.00 Ry     beta=0.70
     Davidson diagonalization with overlap
     ethr =  1.00E-02,  avg # of iterations =  1.0

     negative rho (up, down):  1.031E-01 0.000E+00

     total cpu time spent up to now is        8.6 secs

     total energy              =     -34.23848868 Ry
     Harris-Foulkes estimate   =     -32.76913223 Ry
     estimated scf accuracy    <       3.54827149 Ry

     iteration # 11     ecut=    30.00 Ry     beta=0.70
     Davidson diagonalization with overlap
     ethr =  1.00E-02,  avg # of iterations =  4.0

     negative rho (up, down):  4.232E-01 0.000E+00

     total cpu time spent up to now is        8.7 secs

     total energy              =     -36.35159876 Ry
     Harris-Foulkes estimate   =     -35.43576170 Ry
     estimated scf accuracy    <      17.22963979 Ry

     iteration # 12     ecut=    30.00 Ry     beta=0.70
     Davidson diagonalization with overlap
     ethr =  1.00E-02,  avg # of iterations =  3.0

     negative rho (up, down):  9.565E-01 0.000E+00

     total cpu time spent up to now is        8.8 secs

     total energy              =     -41.65513607 Ry
     Harris-Foulkes estimate   =     -36.59652437 Ry
     estimated scf accuracy    <      26.91576405 Ry

     iteration # 13     ecut=    30.00 Ry     beta=0.70
     Davidson diagonalization with overlap
     ethr =  1.00E-02,  avg # of iterations =  4.0

     negative rho (up, down):  1.309E+00 0.000E+00

     total cpu time spent up to now is        8.8 secs

     total energy              =     -88.43508601 Ry
     Harris-Foulkes estimate   =     -64.39131535 Ry
     estimated scf accuracy    <      45.19246126 Ry

     iteration # 14     ecut=    30.00 Ry     beta=0.70
     Davidson diagonalization with overlap
     ethr =  1.00E-02,  avg # of iterations =  3.0

     negative rho (up, down):  4.906E-01 0.000E+00

     total cpu time spent up to now is        8.9 secs

     total energy              =     -55.78791885 Ry
     Harris-Foulkes estimate   =    -128.79873743 Ry
     estimated scf accuracy    <      45.00194240 Ry

     iteration # 15     ecut=    30.00 Ry     beta=0.70
     Davidson diagonalization with overlap
     ethr =  1.00E-02,  avg # of iterations =  5.0

     negative rho (up, down):  4.860E-01 0.000E+00

     total cpu time spent up to now is        9.0 secs

     total energy              =      10.16441442 Ry
     Harris-Foulkes estimate   =    -102.15356566 Ry
     estimated scf accuracy    <      32.30787151 Ry

     iteration # 16     ecut=    30.00 Ry     beta=0.70
     Davidson diagonalization with overlap
     ethr =  1.00E-02,  avg # of iterations =  5.0

     negative rho (up, down):  5.498E-01 0.000E+00

     total cpu time spent up to now is        9.0 secs

     total energy              =   -1101.10908038 Ry
     Harris-Foulkes estimate   =    -333.63816752 Ry
     estimated scf accuracy    <      24.75380358 Ry

     iteration # 17     ecut=    30.00 Ry     beta=0.70
     Davidson diagonalization with overlap
     ethr =  1.00E-02,  avg # of iterations =  4.0

     negative rho (up, down):  4.254E-01 0.000E+00

     total cpu time spent up to now is        9.1 secs

     total energy              =    -482.69665008 Ry
     Harris-Foulkes estimate   =   -2310.69612547 Ry
     estimated scf accuracy    <      42.51210457 Ry

     iteration # 18     ecut=    30.00 Ry     beta=0.70
     Davidson diagonalization with overlap
     ethr =  1.00E-02,  avg # of iterations =  5.0

     negative rho (up, down):  5.937E-01 0.000E+00

     total cpu time spent up to now is        9.2 secs

     total energy              =    -740.58991319 Ry
     Harris-Foulkes estimate   =   -1328.18884995 Ry
     estimated scf accuracy    <      79.85301814 Ry

     iteration # 19     ecut=    30.00 Ry     beta=0.70
     Davidson diagonalization with overlap
     ethr =  1.00E-02,  avg # of iterations =  6.0

     negative rho (up, down):  1.264E+00 0.000E+00

     total cpu time spent up to now is        9.3 secs

     total energy              =    -285.67490774 Ry
     Harris-Foulkes estimate   =   -2459.76146408 Ry
     estimated scf accuracy    <      73.69999065 Ry

     iteration # 20     ecut=    30.00 Ry     beta=0.70
     Davidson diagonalization with overlap
     ethr =  1.00E-02,  avg # of iterations =  7.0

     negative rho (up, down):  1.775E+00 0.000E+00

     total cpu time spent up to now is        9.3 secs

     total energy              =    -113.13662155 Ry
     Harris-Foulkes estimate   =    -928.77860972 Ry
     estimated scf accuracy    <      70.59295961 Ry

     iteration # 21     ecut=    30.00 Ry     beta=0.70
     Davidson diagonalization with overlap
     ethr =  1.00E-02,  avg # of iterations =  5.0

     negative rho (up, down):  2.600E+00 0.000E+00

     total cpu time spent up to now is        9.4 secs

     total energy              =      95.95417256 Ry
     Harris-Foulkes estimate   =   -1563.69673863 Ry
     estimated scf accuracy    <      56.65636865 Ry

     iteration # 22     ecut=    30.00 Ry     beta=0.70
     Davidson diagonalization with overlap
     ethr =  1.00E-02,  avg # of iterations =  8.0

     negative rho (up, down):  3.132E+00 0.000E+00

     total cpu time spent up to now is        9.5 secs

     total energy              =       0.13031158 Ry
     Harris-Foulkes estimate   =    -351.72356774 Ry
     estimated scf accuracy    <      49.28232956 Ry

     iteration # 23     ecut=    30.00 Ry     beta=0.70
     Davidson diagonalization with overlap
     ethr =  1.00E-02,  avg # of iterations = 10.0

     negative rho (up, down):  3.323E+00 0.000E+00

     total cpu time spent up to now is        9.6 secs

     total energy              =   -2942.64019998 Ry
     Harris-Foulkes estimate   =   -5484.72787259 Ry
     estimated scf accuracy    <      46.94570247 Ry

     iteration # 24     ecut=    30.00 Ry     beta=0.70
     Davidson diagonalization with overlap
     ethr =  1.00E-02,  avg # of iterations =  8.0

     negative rho (up, down):  3.637E+00 0.000E+00

     total cpu time spent up to now is        9.7 secs

     total energy              =      63.47493370 Ry
     Harris-Foulkes estimate   =   -8072.90622791 Ry
     estimated scf accuracy    <      45.67841624 Ry

     iteration # 25     ecut=    30.00 Ry     beta=0.70
     Davidson diagonalization with overlap
     ethr =  1.00E-02,  avg # of iterations = 10.0

     negative rho (up, down):  4.068E+00 0.000E+00

     total cpu time spent up to now is        9.8 secs

     total energy              =      97.31106331 Ry
     Harris-Foulkes estimate   =   -4069.17639186 Ry
     estimated scf accuracy    <      64.02372596 Ry

     iteration # 26     ecut=    30.00 Ry     beta=0.70
     Davidson diagonalization with overlap
     ethr =  1.00E-02,  avg # of iterations =  9.0

     negative rho (up, down):  1.869E+00 0.000E+00

     total cpu time spent up to now is        9.9 secs

     total energy              =      26.20951825 Ry
     Harris-Foulkes estimate   =   -1356.27851495 Ry
     estimated scf accuracy    <      55.09363412 Ry

     iteration # 27     ecut=    30.00 Ry     beta=0.70
     Davidson diagonalization with overlap
     ethr =  1.00E-02,  avg # of iterations =  9.0

     negative rho (up, down):  2.260E+00 0.000E+00

     total cpu time spent up to now is       10.1 secs

     total energy              =    -241.25179178 Ry
     Harris-Foulkes estimate   =    -941.24132689 Ry
     estimated scf accuracy    <      22.00052247 Ry

     iteration # 28     ecut=    30.00 Ry     beta=0.70
     Davidson diagonalization with overlap
     ethr =  1.00E-02,  avg # of iterations =  8.0

     negative rho (up, down):  7.021E-01 0.000E+00

     total cpu time spent up to now is       10.2 secs

     total energy              =       1.89625453 Ry
     Harris-Foulkes estimate   =  -17406.13192267 Ry
     estimated scf accuracy    <      26.37738087 Ry

     iteration # 29     ecut=    30.00 Ry     beta=0.70
     Davidson diagonalization with overlap
     ethr =  1.00E-02,  avg # of iterations = 12.0

     negative rho (up, down):  8.149E-01 0.000E+00

     total cpu time spent up to now is       10.2 secs

     total energy              =      64.82199199 Ry
     Harris-Foulkes estimate   =   -9216.82242717 Ry
     estimated scf accuracy    <      32.31342380 Ry

     iteration # 30     ecut=    30.00 Ry     beta=0.70
     Davidson diagonalization with overlap
     ethr =  1.00E-02,  avg # of iterations =  8.0

     negative rho (up, down):  7.604E-01 0.000E+00

     total cpu time spent up to now is       10.3 secs

     total energy              =    -286.09498442 Ry
     Harris-Foulkes estimate   =   -1588.87305868 Ry
     estimated scf accuracy    <      18.64009880 Ry

     iteration # 31     ecut=    30.00 Ry     beta=0.70
     Davidson diagonalization with overlap
     ethr =  1.00E-02,  avg # of iterations =  5.0

     negative rho (up, down):  6.502E-01 0.000E+00

     total cpu time spent up to now is       10.4 secs

     total energy              =     128.59256441 Ry
     Harris-Foulkes estimate   =   -5677.13902172 Ry
     estimated scf accuracy    <      26.95586926 Ry

     iteration # 32     ecut=    30.00 Ry     beta=0.70
     Davidson diagonalization with overlap
     ethr =  1.00E-02,  avg # of iterations = 13.0

     negative rho (up, down):  4.082E-01 0.000E+00

     total cpu time spent up to now is       10.5 secs

     total energy              =     -15.03933011 Ry
     Harris-Foulkes estimate   =    -213.41447020 Ry
     estimated scf accuracy    <      35.75182570 Ry

     iteration # 33     ecut=    30.00 Ry     beta=0.70
     Davidson diagonalization with overlap
     ethr =  1.00E-02,  avg # of iterations =  7.0

     negative rho (up, down):  2.626E-01 0.000E+00

     total cpu time spent up to now is       10.6 secs

     total energy              =     125.84255122 Ry
     Harris-Foulkes estimate   =    -971.84415314 Ry
     estimated scf accuracy    <      23.61956227 Ry

     iteration # 34     ecut=    30.00 Ry     beta=0.70
     Davidson diagonalization with overlap
     ethr =  1.00E-02,  avg # of iterations =  8.0

     negative rho (up, down):  2.962E-02 0.000E+00

     total cpu time spent up to now is       10.7 secs

     total energy              =     -38.55765950 Ry
     Harris-Foulkes estimate   =    -111.70324838 Ry
     estimated scf accuracy    <      51.94018119 Ry

     iteration # 35     ecut=    30.00 Ry     beta=0.70
     Davidson diagonalization with overlap
     ethr =  1.00E-02,  avg # of iterations =  4.0

     negative rho (up, down):  2.198E-02 0.000E+00

     total cpu time spent up to now is       10.7 secs

     total energy              =     -68.92752756 Ry
     Harris-Foulkes estimate   =    -132.21169987 Ry
     estimated scf accuracy    <      41.00615366 Ry

     iteration # 36     ecut=    30.00 Ry     beta=0.70
     Davidson diagonalization with overlap
     ethr =  1.00E-02,  avg # of iterations =  5.0

     negative rho (up, down):  5.572E-02 0.000E+00

     total cpu time spent up to now is       10.8 secs

     total energy              =     -11.22768155 Ry
     Harris-Foulkes estimate   =    -395.49134831 Ry
     estimated scf accuracy    <      22.93207649 Ry

     iteration # 37     ecut=    30.00 Ry     beta=0.70
     Davidson diagonalization with overlap
     ethr =  1.00E-02,  avg # of iterations =  7.0

     negative rho (up, down):  3.368E-01 0.000E+00

     total cpu time spent up to now is       10.9 secs

     total energy              =       7.52674106 Ry
     Harris-Foulkes estimate   =    -391.78300704 Ry
     estimated scf accuracy    <      25.73814667 Ry

     iteration # 38     ecut=    30.00 Ry     beta=0.70
     Davidson diagonalization with overlap
     ethr =  1.00E-02,  avg # of iterations =  9.0

     negative rho (up, down):  5.016E-01 0.000E+00

     total cpu time spent up to now is       11.0 secs

     total energy              =    -860.95675231 Ry
     Harris-Foulkes estimate   =   -1288.40892111 Ry
     estimated scf accuracy    <      25.36602868 Ry

     iteration # 39     ecut=    30.00 Ry     beta=0.70
     Davidson diagonalization with overlap
     ethr =  1.00E-02,  avg # of iterations =  9.0

     negative rho (up, down):  3.858E-01 0.000E+00

     total cpu time spent up to now is       11.1 secs

     total energy              =     121.56357815 Ry
     Harris-Foulkes estimate   =   -2794.73221675 Ry
     estimated scf accuracy    <      24.57430889 Ry

     iteration # 40     ecut=    30.00 Ry     beta=0.70
     Davidson diagonalization with overlap
     ethr =  1.00E-02,  avg # of iterations = 10.0

     negative rho (up, down):  8.901E-02 0.000E+00

     total cpu time spent up to now is       11.2 secs

     total energy              =     153.30261821 Ry
     Harris-Foulkes estimate   =   -3095.62540281 Ry
     estimated scf accuracy    <      35.66470771 Ry

     iteration # 41     ecut=    30.00 Ry     beta=0.70
     Davidson diagonalization with overlap
     ethr =  1.00E-02,  avg # of iterations = 12.0

     negative rho (up, down):  1.491E-01 0.000E+00

     total cpu time spent up to now is       11.3 secs

     total energy              =     110.58457577 Ry
     Harris-Foulkes estimate   =    -565.10669631 Ry
     estimated scf accuracy    <      36.02433822 Ry

     iteration # 42     ecut=    30.00 Ry     beta=0.70
     Davidson diagonalization with overlap
     ethr =  1.00E-02,  avg # of iterations =  6.0

     negative rho (up, down):  8.539E-02 0.000E+00

     total cpu time spent up to now is       11.3 secs

     total energy              =      65.33650847 Ry
     Harris-Foulkes estimate   =   -1464.62919933 Ry
     estimated scf accuracy    <      32.77660161 Ry

     iteration # 43     ecut=    30.00 Ry     beta=0.70
     Davidson diagonalization with overlap
     ethr =  1.00E-02,  avg # of iterations =  9.0

     negative rho (up, down):  1.936E-01 0.000E+00

     total cpu time spent up to now is       11.4 secs

     total energy              =     -21.11580378 Ry
     Harris-Foulkes estimate   =    -443.88705443 Ry
     estimated scf accuracy    <      16.50018429 Ry

     iteration # 44     ecut=    30.00 Ry     beta=0.70
     Davidson diagonalization with overlap
     ethr =  1.00E-02,  avg # of iterations =  6.0

     negative rho (up, down):  2.697E-01 0.000E+00

     total cpu time spent up to now is       11.5 secs

     total energy              =     -52.06554168 Ry
     Harris-Foulkes estimate   =   -4540.55111835 Ry
     estimated scf accuracy    <      15.56305599 Ry

     iteration # 45     ecut=    30.00 Ry     beta=0.70
     Davidson diagonalization with overlap
     ethr =  1.00E-02,  avg # of iterations =  5.0

     negative rho (up, down):  7.901E-02 0.000E+00

     total cpu time spent up to now is       11.6 secs

     total energy              =      29.74481954 Ry
     Harris-Foulkes estimate   =  -17018.43084768 Ry
     estimated scf accuracy    <      27.06610408 Ry

     iteration # 46     ecut=    30.00 Ry     beta=0.70
     Davidson diagonalization with overlap
     ethr =  1.00E-02,  avg # of iterations =  5.0

     negative rho (up, down):  7.941E-02 0.000E+00

     total cpu time spent up to now is       11.7 secs

     total energy              =     124.14510005 Ry
     Harris-Foulkes estimate   =   -1550.87686488 Ry
     estimated scf accuracy    <      21.24820418 Ry

     iteration # 47     ecut=    30.00 Ry     beta=0.70
     Davidson diagonalization with overlap
     ethr =  1.00E-02,  avg # of iterations =  8.0

     negative rho (up, down):  9.506E-02 0.000E+00

     total cpu time spent up to now is       11.7 secs

     total energy              =    -123.78859570 Ry
     Harris-Foulkes estimate   =    -763.24270662 Ry
     estimated scf accuracy    <      20.15755383 Ry

     iteration # 48     ecut=    30.00 Ry     beta=0.70
     Davidson diagonalization with overlap
     ethr =  1.00E-02,  avg # of iterations =  5.0

     negative rho (up, down):  1.125E-01 0.000E+00

     total cpu time spent up to now is       11.8 secs

     total energy              =      -0.43627643 Ry
     Harris-Foulkes estimate   =   -2087.05125995 Ry
     estimated scf accuracy    <      23.98489345 Ry

     iteration # 49     ecut=    30.00 Ry     beta=0.70
     Davidson diagonalization with overlap
     ethr =  1.00E-02,  avg # of iterations =  5.0

     negative rho (up, down):  2.653E-01 0.000E+00

     total cpu time spent up to now is       11.9 secs

     total energy              =   -1393.70294223 Ry
     Harris-Foulkes estimate   =   -2123.82226919 Ry
     estimated scf accuracy    <      25.59166078 Ry

     iteration # 50     ecut=    30.00 Ry     beta=0.70
     Davidson diagonalization with overlap
     ethr =  1.00E-02,  avg # of iterations =  9.0

     negative rho (up, down):  2.212E-01 0.000E+00

     total cpu time spent up to now is       12.0 secs

     total energy              =      67.61209818 Ry
     Harris-Foulkes estimate   =   -3681.59219356 Ry
     estimated scf accuracy    <      12.48288696 Ry

     iteration # 51     ecut=    30.00 Ry     beta=0.70
     Davidson diagonalization with overlap
     ethr =  1.00E-02,  avg # of iterations =  6.0

     negative rho (up, down):  3.550E-03 0.000E+00

     total cpu time spent up to now is       12.0 secs

     total energy              =      90.30978358 Ry
     Harris-Foulkes estimate   =   -2409.96728086 Ry
     estimated scf accuracy    <      16.06426144 Ry

     iteration # 52     ecut=    30.00 Ry     beta=0.70
     Davidson diagonalization with overlap
     ethr =  1.00E-02,  avg # of iterations =  5.0

     negative rho (up, down):  5.992E-02 0.000E+00

     total cpu time spent up to now is       12.1 secs

     total energy              =     -65.10915209 Ry
     Harris-Foulkes estimate   =     -67.52578057 Ry
     estimated scf accuracy    <      47.43821179 Ry

     iteration # 53     ecut=    30.00 Ry     beta=0.70
     Davidson diagonalization with overlap
     ethr =  1.00E-02,  avg # of iterations =  5.0

     negative rho (up, down):  2.354E-01 0.000E+00

     total cpu time spent up to now is       12.2 secs

     total energy              =      11.55501908 Ry
     Harris-Foulkes estimate   =    -233.30160677 Ry
     estimated scf accuracy    <      16.44373552 Ry

     iteration # 54     ecut=    30.00 Ry     beta=0.70
     Davidson diagonalization with overlap
     ethr =  1.00E-02,  avg # of iterations =  5.0

     negative rho (up, down):  2.613E-01 0.000E+00

     total cpu time spent up to now is       12.2 secs

     total energy              =       4.77919047 Ry
     Harris-Foulkes estimate   =   -1070.49080628 Ry
     estimated scf accuracy    <      14.55075978 Ry

     iteration # 55     ecut=    30.00 Ry     beta=0.70
     Davidson diagonalization with overlap
     ethr =  1.00E-02,  avg # of iterations =  5.0

     negative rho (up, down):  3.023E-01 0.000E+00

     total cpu time spent up to now is       12.3 secs

     total energy              =      41.25908737 Ry
     Harris-Foulkes estimate   =   -1419.65986189 Ry
     estimated scf accuracy    <      27.95151721 Ry

     iteration # 56     ecut=    30.00 Ry     beta=0.70
     Davidson diagonalization with overlap
     ethr =  1.00E-02,  avg # of iterations =  7.0

     negative rho (up, down):  4.725E-02 0.000E+00

     total cpu time spent up to now is       12.4 secs

     total energy              =     128.42403674 Ry
     Harris-Foulkes estimate   =    -650.89293075 Ry
     estimated scf accuracy    <      26.47539204 Ry

     iteration # 57     ecut=    30.00 Ry     beta=0.70
     Davidson diagonalization with overlap
     ethr =  1.00E-02,  avg # of iterations =  5.0

     negative rho (up, down):  9.809E-02 0.000E+00

     total cpu time spent up to now is       12.4 secs

     total energy              =     -40.86038090 Ry
     Harris-Foulkes estimate   =    -299.27089504 Ry
     estimated scf accuracy    <      26.66338750 Ry

     iteration # 58     ecut=    30.00 Ry     beta=0.70
     Davidson diagonalization with overlap
     ethr =  1.00E-02,  avg # of iterations =  6.0

     negative rho (up, down):  1.066E-01 0.000E+00

     total cpu time spent up to now is       12.5 secs

     total energy              =      46.45307908 Ry
     Harris-Foulkes estimate   =    -372.28038593 Ry
     estimated scf accuracy    <      22.00492512 Ry

     iteration # 59     ecut=    30.00 Ry     beta=0.70
     Davidson diagonalization with overlap
     ethr =  1.00E-02,  avg # of iterations =  6.0

     negative rho (up, down):  2.231E-01 0.000E+00

     total cpu time spent up to now is       12.6 secs

     total energy              =     -22.71175205 Ry
     Harris-Foulkes estimate   =     -89.25193358 Ry
     estimated scf accuracy    <      21.45673178 Ry

     iteration # 60     ecut=    30.00 Ry     beta=0.70
     Davidson diagonalization with overlap
     ethr =  1.00E-02,  avg # of iterations =  4.0

     negative rho (up, down):  2.816E-01 0.000E+00

     total cpu time spent up to now is       12.7 secs

     total energy              =      23.77608090 Ry
     Harris-Foulkes estimate   =   -1783.08746520 Ry
     estimated scf accuracy    <      17.04014184 Ry

     iteration # 61     ecut=    30.00 Ry     beta=0.70
     Davidson diagonalization with overlap
     ethr =  1.00E-02,  avg # of iterations =  8.0

     negative rho (up, down):  1.447E-01 0.000E+00

     total cpu time spent up to now is       12.7 secs

     total energy              =    -122.98555034 Ry
     Harris-Foulkes estimate   =    -141.17437960 Ry
     estimated scf accuracy    <      13.01993653 Ry

     iteration # 62     ecut=    30.00 Ry     beta=0.70
     Davidson diagonalization with overlap
     ethr =  1.00E-02,  avg # of iterations =  7.0

     negative rho (up, down):  2.913E-02 0.000E+00

     total cpu time spent up to now is       12.8 secs

     total energy              =     132.13082282 Ry
     Harris-Foulkes estimate   =    -447.17965111 Ry
     estimated scf accuracy    <      32.24210945 Ry

     iteration # 63     ecut=    30.00 Ry     beta=0.70
     Davidson diagonalization with overlap
     ethr =  1.00E-02,  avg # of iterations =  6.0

     negative rho (up, down):  5.588E-02 0.000E+00

     total cpu time spent up to now is       12.9 secs

     total energy              =     -21.32540740 Ry
     Harris-Foulkes estimate   =     -78.18932052 Ry
     estimated scf accuracy    <      22.90858830 Ry

     iteration # 64     ecut=    30.00 Ry     beta=0.70
     Davidson diagonalization with overlap
     ethr =  1.00E-02,  avg # of iterations =  9.0

     negative rho (up, down):  7.982E-04 0.000E+00

     total cpu time spent up to now is       13.0 secs

     total energy              =     -21.89109238 Ry
     Harris-Foulkes estimate   =     -74.80975213 Ry
     estimated scf accuracy    <      21.82932991 Ry

     iteration # 65     ecut=    30.00 Ry     beta=0.70
     Davidson diagonalization with overlap
     ethr =  1.00E-02,  avg # of iterations =  4.0

     negative rho (up, down):  8.060E-04 0.000E+00

     total cpu time spent up to now is       13.0 secs

     total energy              =     -57.25478940 Ry
     Harris-Foulkes estimate   =     -59.01224280 Ry
     estimated scf accuracy    <      36.73949874 Ry

     iteration # 66     ecut=    30.00 Ry     beta=0.70
     Davidson diagonalization with overlap
     ethr =  1.00E-02,  avg # of iterations =  1.0

     negative rho (up, down):  1.101E-01 0.000E+00

     total cpu time spent up to now is       13.1 secs

     total energy              =     -57.12341019 Ry
     Harris-Foulkes estimate   =     -57.26042230 Ry
     estimated scf accuracy    <      34.43566306 Ry

     iteration # 67     ecut=    30.00 Ry     beta=0.70
     Davidson diagonalization with overlap
     ethr =  1.00E-02,  avg # of iterations = 11.0

     negative rho (up, down):  3.296E-03 0.000E+00

     total cpu time spent up to now is       13.2 secs

     total energy              =     147.64682797 Ry
     Harris-Foulkes estimate   =   -3328.85022082 Ry
     estimated scf accuracy    <      34.79052062 Ry

     iteration # 68     ecut=    30.00 Ry     beta=0.70
     Davidson diagonalization with overlap
     ethr =  1.00E-02,  avg # of iterations = 12.0

     negative rho (up, down):  9.156E-02 0.000E+00

     total cpu time spent up to now is       13.3 secs

     total energy              =     -56.48887587 Ry
     Harris-Foulkes estimate   =     -56.28812710 Ry
     estimated scf accuracy    <      33.39665867 Ry

     iteration # 69     ecut=    30.00 Ry     beta=0.70
     Davidson diagonalization with overlap
     ethr =  1.00E-02,  avg # of iterations =  5.0

     negative rho (up, down):  2.560E-02 0.000E+00

     total cpu time spent up to now is       13.4 secs

     total energy              =      74.90164047 Ry
     Harris-Foulkes estimate   =    -802.27679553 Ry
     estimated scf accuracy    <      22.65262065 Ry

     iteration # 70     ecut=    30.00 Ry     beta=0.70
     Davidson diagonalization with overlap
     ethr =  1.00E-02,  avg # of iterations =  6.0

     negative rho (up, down):  9.548E-02 0.000E+00

     total cpu time spent up to now is       13.4 secs

     total energy              =      -6.33747953 Ry
     Harris-Foulkes estimate   =    -171.08805095 Ry
     estimated scf accuracy    <      17.01712802 Ry

     iteration # 71     ecut=    30.00 Ry     beta=0.70
     Davidson diagonalization with overlap
     ethr =  1.00E-02,  avg # of iterations =  9.0

     negative rho (up, down):  1.713E-01 0.000E+00

     total cpu time spent up to now is       13.5 secs

     total energy              =     -22.11475830 Ry
     Harris-Foulkes estimate   =     -71.48947327 Ry
     estimated scf accuracy    <      14.71599996 Ry

     iteration # 72     ecut=    30.00 Ry     beta=0.70
     Davidson diagonalization with overlap
     ethr =  1.00E-02,  avg # of iterations =  5.0

     negative rho (up, down):  2.148E-01 0.000E+00

     total cpu time spent up to now is       13.6 secs

     total energy              =    -144.56674194 Ry
     Harris-Foulkes estimate   =    -362.54872201 Ry
     estimated scf accuracy    <      18.42929172 Ry

     iteration # 73     ecut=    30.00 Ry     beta=0.70
     Davidson diagonalization with overlap
     ethr =  1.00E-02,  avg # of iterations = 11.0

     negative rho (up, down):  3.143E-01 0.000E+00

     total cpu time spent up to now is       13.7 secs

     total energy              =     112.05347357 Ry
     Harris-Foulkes estimate   =   -1178.95360834 Ry
     estimated scf accuracy    <      32.81047904 Ry

     iteration # 74     ecut=    30.00 Ry     beta=0.70
     Davidson diagonalization with overlap
     ethr =  1.00E-02,  avg # of iterations = 10.0

     negative rho (up, down):  3.640E-01 0.000E+00

     total cpu time spent up to now is       13.8 secs

     total energy              =     -87.97360273 Ry
     Harris-Foulkes estimate   =     -53.38594079 Ry
     estimated scf accuracy    <      18.18044375 Ry

     iteration # 75     ecut=    30.00 Ry     beta=0.70
     Davidson diagonalization with overlap
     ethr =  1.00E-02,  avg # of iterations =  3.0

     negative rho (up, down):  3.153E-01 0.000E+00

     total cpu time spent up to now is       13.8 secs

     total energy              =    -133.48991977 Ry
     Harris-Foulkes estimate   =    -498.03013982 Ry
     estimated scf accuracy    <      15.27312947 Ry

     iteration # 76     ecut=    30.00 Ry     beta=0.70
     Davidson diagonalization with overlap
     ethr =  1.00E-02,  avg # of iterations =  6.0

     negative rho (up, down):  1.666E-01 0.000E+00

     total cpu time spent up to now is       13.9 secs

     total energy              =      42.80734389 Ry
     Harris-Foulkes estimate   =   -3960.27566378 Ry
     estimated scf accuracy    <      44.56722330 Ry

     iteration # 77     ecut=    30.00 Ry     beta=0.70
     Davidson diagonalization with overlap
     ethr =  1.00E-02,  avg # of iterations = 11.0

     negative rho (up, down):  2.782E-01 0.000E+00

     total cpu time spent up to now is       14.0 secs

     total energy              =      -6.28408615 Ry
     Harris-Foulkes estimate   =    -225.53795029 Ry
     estimated scf accuracy    <       9.25188827 Ry

     iteration # 78     ecut=    30.00 Ry     beta=0.70
     Davidson diagonalization with overlap
     ethr =  1.00E-02,  avg # of iterations =  9.0

     negative rho (up, down):  6.808E-02 0.000E+00

     total cpu time spent up to now is       14.1 secs

     total energy              =     121.76797772 Ry
     Harris-Foulkes estimate   =    -437.02357724 Ry
     estimated scf accuracy    <      35.83855100 Ry

     iteration # 79     ecut=    30.00 Ry     beta=0.70
     Davidson diagonalization with overlap
     ethr =  1.00E-02,  avg # of iterations =  6.0

     negative rho (up, down):  2.058E-01 0.000E+00

     total cpu time spent up to now is       14.2 secs

     total energy              =    -171.53349798 Ry
     Harris-Foulkes estimate   =    -206.35573836 Ry
     estimated scf accuracy    <      40.48002818 Ry

     iteration # 80     ecut=    30.00 Ry     beta=0.70
     Davidson diagonalization with overlap
     ethr =  1.00E-02,  avg # of iterations =  9.0

     negative rho (up, down):  2.899E-01 0.000E+00

     total cpu time spent up to now is       14.3 secs

     total energy              =     -77.93270601 Ry
     Harris-Foulkes estimate   =   -1189.95438351 Ry
     estimated scf accuracy    <      53.10246285 Ry

     iteration # 81     ecut=    30.00 Ry     beta=0.70
     Davidson diagonalization with overlap
     ethr =  1.00E-02,  avg # of iterations =  5.0

     negative rho (up, down):  3.210E-01 0.000E+00

     total cpu time spent up to now is       14.3 secs

     total energy              =     127.43512510 Ry
     Harris-Foulkes estimate   =   -2117.12396937 Ry
     estimated scf accuracy    <      42.52115704 Ry

     iteration # 82     ecut=    30.00 Ry     beta=0.70
     Davidson diagonalization with overlap
     ethr =  1.00E-02,  avg # of iterations = 10.0

     negative rho (up, down):  1.520E-01 0.000E+00

     total cpu time spent up to now is       14.4 secs

     total energy              =     -48.44955354 Ry
     Harris-Foulkes estimate   =     -50.23407677 Ry
     estimated scf accuracy    <      25.59862484 Ry

     iteration # 83     ecut=    30.00 Ry     beta=0.70
     Davidson diagonalization with overlap
     ethr =  1.00E-02,  avg # of iterations =  5.0

     negative rho (up, down):  6.298E-02 0.000E+00

     total cpu time spent up to now is       14.5 secs

     total energy              =      -9.26002839 Ry
     Harris-Foulkes estimate   =    -115.79096582 Ry
     estimated scf accuracy    <      10.96104630 Ry

     iteration # 84     ecut=    30.00 Ry     beta=0.70
     Davidson diagonalization with overlap
     ethr =  1.00E-02,  avg # of iterations =  5.0

     negative rho (up, down):  1.296E-01 0.000E+00

     total cpu time spent up to now is       14.5 secs

     total energy              =      -5.01272947 Ry
     Harris-Foulkes estimate   =    -133.71628125 Ry
     estimated scf accuracy    <      11.99756973 Ry

     iteration # 85     ecut=    30.00 Ry     beta=0.70
     Davidson diagonalization with overlap
     ethr =  1.00E-02,  avg # of iterations =  7.0

     negative rho (up, down):  8.361E-02 0.000E+00

     total cpu time spent up to now is       14.6 secs

     total energy              =      28.03110150 Ry
     Harris-Foulkes estimate   =    -116.52521870 Ry
     estimated scf accuracy    <      14.39902458 Ry

     iteration # 86     ecut=    30.00 Ry     beta=0.70
     Davidson diagonalization with overlap
     ethr =  1.00E-02,  avg # of iterations =  4.0

     negative rho (up, down):  1.970E-01 0.000E+00

     total cpu time spent up to now is       14.7 secs

     total energy              =    -307.66101103 Ry
     Harris-Foulkes estimate   =    -367.23698826 Ry
     estimated scf accuracy    <      14.87150152 Ry

     iteration # 87     ecut=    30.00 Ry     beta=0.70
     Davidson diagonalization with overlap
     ethr =  1.00E-02,  avg # of iterations =  6.0

     negative rho (up, down):  2.699E-01 0.000E+00

     total cpu time spent up to now is       14.8 secs

     total energy              =      78.16428392 Ry
     Harris-Foulkes estimate   =   -1023.17456834 Ry
     estimated scf accuracy    <      49.01570932 Ry

     iteration # 88     ecut=    30.00 Ry     beta=0.70
     Davidson diagonalization with overlap
     ethr =  1.00E-02,  avg # of iterations =  8.0

     negative rho (up, down):  4.758E-01 0.000E+00

     total cpu time spent up to now is       14.8 secs

     total energy              =    -275.63870465 Ry
     Harris-Foulkes estimate   =    -201.57674752 Ry
     estimated scf accuracy    <      21.33609799 Ry

     iteration # 89     ecut=    30.00 Ry     beta=0.70
     Davidson diagonalization with overlap
     ethr =  1.00E-02,  avg # of iterations =  7.0

     negative rho (up, down):  2.052E-01 0.000E+00

     total cpu time spent up to now is       14.9 secs

     total energy              =     116.72344624 Ry
     Harris-Foulkes estimate   =   -1891.11910818 Ry
     estimated scf accuracy    <      42.02098833 Ry

     iteration # 90     ecut=    30.00 Ry     beta=0.70
     Davidson diagonalization with overlap
     ethr =  1.00E-02,  avg # of iterations = 13.0

     negative rho (up, down):  3.325E-01 0.000E+00

     total cpu time spent up to now is       15.0 secs

     total energy              =   -2205.96008380 Ry
     Harris-Foulkes estimate   =    -592.89181879 Ry
     estimated scf accuracy    <      49.32506911 Ry

     iteration # 91     ecut=    30.00 Ry     beta=0.70
     Davidson diagonalization with overlap
     ethr =  1.00E-02,  avg # of iterations =  5.0

     negative rho (up, down):  3.138E-01 0.000E+00

     total cpu time spent up to now is       15.1 secs

     total energy              =       6.44021570 Ry
     Harris-Foulkes estimate   =   -6967.18127710 Ry
     estimated scf accuracy    <      40.04120852 Ry

     iteration # 92     ecut=    30.00 Ry     beta=0.70
     Davidson diagonalization with overlap
     ethr =  1.00E-02,  avg # of iterations =  5.0

     negative rho (up, down):  3.526E-01 0.000E+00

     total cpu time spent up to now is       15.2 secs

     total energy              =    -136.50198501 Ry
     Harris-Foulkes estimate   =    -656.37214678 Ry
     estimated scf accuracy    <      40.04252519 Ry

     iteration # 93     ecut=    30.00 Ry     beta=0.70
     Davidson diagonalization with overlap
     ethr =  1.00E-02,  avg # of iterations =  7.0

     negative rho (up, down):  9.130E-01 0.000E+00

     total cpu time spent up to now is       15.3 secs

     total energy              =     109.36790727 Ry
     Harris-Foulkes estimate   =    -657.02138023 Ry
     estimated scf accuracy    <      41.03565145 Ry

     iteration # 94     ecut=    30.00 Ry     beta=0.70
     Davidson diagonalization with overlap
     ethr =  1.00E-02,  avg # of iterations =  8.0

     negative rho (up, down):  1.321E+00 0.000E+00

     total cpu time spent up to now is       15.4 secs

     total energy              =      26.90076212 Ry
     Harris-Foulkes estimate   =    -489.16887143 Ry
     estimated scf accuracy    <      35.13752463 Ry

     iteration # 95     ecut=    30.00 Ry     beta=0.70
     Davidson diagonalization with overlap
     ethr =  1.00E-02,  avg # of iterations =  7.0

     negative rho (up, down):  1.562E+00 0.000E+00

     total cpu time spent up to now is       15.4 secs

     total energy              =    -167.68833289 Ry
     Harris-Foulkes estimate   =   -2320.56263122 Ry
     estimated scf accuracy    <      48.28512016 Ry

     iteration # 96     ecut=    30.00 Ry     beta=0.70
     Davidson diagonalization with overlap
     ethr =  1.00E-02,  avg # of iterations =  8.0

     negative rho (up, down):  1.388E+00 0.000E+00

     total cpu time spent up to now is       15.5 secs

     total energy              =      93.61305405 Ry
     Harris-Foulkes estimate   =  -29934.21528627 Ry
     estimated scf accuracy    <      29.62923257 Ry

     iteration # 97     ecut=    30.00 Ry     beta=0.70
     Davidson diagonalization with overlap
     ethr =  1.00E-02,  avg # of iterations = 14.0

     negative rho (up, down):  5.085E-01 0.000E+00

     total cpu time spent up to now is       15.6 secs

     total energy              =     124.41641099 Ry
     Harris-Foulkes estimate   =   -1459.10766804 Ry
     estimated scf accuracy    <      33.88715948 Ry

     iteration # 98     ecut=    30.00 Ry     beta=0.70
     Davidson diagonalization with overlap
     ethr =  1.00E-02,  avg # of iterations =  8.0

     negative rho (up, down):  1.592E-01 0.000E+00

     total cpu time spent up to now is       15.7 secs

     total energy              =     133.95370847 Ry
     Harris-Foulkes estimate   =   -1001.09876066 Ry
     estimated scf accuracy    <      23.00922650 Ry

     iteration # 99     ecut=    30.00 Ry     beta=0.70
     Davidson diagonalization with overlap
     ethr =  1.00E-02,  avg # of iterations = 11.0

     negative rho (up, down):  1.581E-01 0.000E+00

     total cpu time spent up to now is       15.8 secs

     total energy              =     133.84129060 Ry
     Harris-Foulkes estimate   =    -550.87266217 Ry
     estimated scf accuracy    <      18.99633055 Ry

     iteration #100     ecut=    30.00 Ry     beta=0.70
     Davidson diagonalization with overlap
     ethr =  1.00E-02,  avg # of iterations =  8.0

     negative rho (up, down):  1.407E-01 0.000E+00

     total cpu time spent up to now is       15.9 secs

     total energy              =      87.35031269 Ry
     Harris-Foulkes estimate   =   -1303.25072850 Ry
     estimated scf accuracy    <      31.11983360 Ry

     End of self-consistent calculation

     convergence NOT achieved after 100 iterations: stopping

     Writing output data file pwscf.save
 
     init_run     :      0.17s CPU      0.19s WALL (       1 calls)
     electrons    :     11.98s CPU     13.99s WALL (       5 calls)
     update_pot   :      0.81s CPU      1.14s WALL (       4 calls)
     forces       :      0.20s CPU      0.21s WALL (       4 calls)

     Called by init_run:
     wfcinit      :      0.01s CPU      0.02s WALL (       1 calls)
     potinit      :      0.05s CPU      0.05s WALL (       1 calls)

     Called by electrons:
     c_bands      :      6.41s CPU      6.65s WALL (     204 calls)
     sum_band     :      1.03s CPU      1.07s WALL (     204 calls)
     v_of_rho     :      2.55s CPU      2.66s WALL (     209 calls)
     mix_rho      :      1.60s CPU      2.86s WALL (     204 calls)

     Called by c_bands:
     init_us_2    :      0.03s CPU      0.04s WALL (     409 calls)
     cegterg      :      6.35s CPU      6.53s WALL (     204 calls)

     Called by sum_band:

     Called by *egterg:
     h_psi        :      5.35s CPU      5.49s WALL (    1125 calls)
     g_psi        :      0.06s CPU      0.06s WALL (     920 calls)
     cdiaghg      :      0.40s CPU      0.41s WALL (    1120 calls)

     Called by h_psi:
     h_psi:pot    :      5.31s CPU      5.45s WALL (    1125 calls)
     h_psi:calbec :      0.07s CPU      0.08s WALL (    1125 calls)
     vloc_psi     :      5.22s CPU      5.35s WALL (    1125 calls)
     add_vuspsi   :      0.01s CPU      0.01s WALL (    1125 calls)

     General routines
     calbec       :      0.09s CPU      0.09s WALL (    1144 calls)
     fft          :      1.49s CPU      1.58s WALL (    2307 calls)
     fftw         :      5.40s CPU      5.56s WALL (   13806 calls)
     davcio       :      0.27s CPU      0.97s WALL (    3648 calls)
 
     Parallel routines
     fft_scatter  :      2.15s CPU      2.30s WALL (   16113 calls)
 
     PWSCF        :    13.48s CPU        16.09s WALL

 
   This run was terminated on:  15:14:57  13Feb2018            

=------------------------------------------------------------------------------=
   JOB DONE.
=------------------------------------------------------------------------------=
