
     Program PWSCF v.6.0 (svn rev. 13079) starts on 13Feb2018 at 15:18: 0 

     This program is part of the open-source Quantum ESPRESSO suite
     for quantum simulation of materials; please cite
         "P. Giannozzi et al., J. Phys.:Condens. Matter 21 395502 (2009);
          URL http://www.quantum-espresso.org", 
     in publications or presentations arising from this work. More details at
     http://www.quantum-espresso.org/quote

     Parallel version (MPI), running on    28 processors
     R & G space division:  proc/nbgrp/npool/nimage =      28
     Reading input from inputs/MD-H2O-round1/429.in

     Current dimensions of program PWSCF are:
     Max number of different atomic species (ntypx) = 10
     Max number of k-points (npk) =  40000
     Max angular momentum in pseudopotentials (lmaxx) =  3

     Subspace diagonalization in iterative solution of the eigenvalue problem:
     a serial algorithm will be used

 
     Parallelization info
     --------------------
     sticks:   dense  smooth     PW     G-vecs:    dense   smooth      PW
     Min         136     136     33                 6338     6338     787
     Max         137     137     34                 6341     6341     792
     Sum        3809    3809    949               177509   177509   22119
 


     bravais-lattice index     =            1
     lattice parameter (alat)  =      20.0000  a.u.
     unit-cell volume          =    8000.0000 (a.u.)^3
     number of atoms/cell      =            3
     number of atomic types    =            2
     number of electrons       =         8.00
     number of Kohn-Sham states=            8
     kinetic-energy cutoff     =      30.0000  Ry
     charge density cutoff     =     120.0000  Ry
     convergence threshold     =      1.0E-08
     mixing beta               =       0.7000
     number of iterations used =            8  plain     mixing
     Exchange-correlation      = BLYP ( 1  3  1  3 0 0)
     nstep                     =         5000


     celldm(1)=  20.000000  celldm(2)=   0.000000  celldm(3)=   0.000000
     celldm(4)=   0.000000  celldm(5)=   0.000000  celldm(6)=   0.000000

     crystal axes: (cart. coord. in units of alat)
               a(1) = (   1.000000   0.000000   0.000000 )  
               a(2) = (   0.000000   1.000000   0.000000 )  
               a(3) = (   0.000000   0.000000   1.000000 )  

     reciprocal axes: (cart. coord. in units 2 pi/alat)
               b(1) = (  1.000000  0.000000  0.000000 )  
               b(2) = (  0.000000  1.000000  0.000000 )  
               b(3) = (  0.000000  0.000000  1.000000 )  


     PseudoPot. # 1 for  H read from file:
     ./H.blyp-hgh.UPF
     MD5 check sum: c576e69559cde411e611be972c763230
     Pseudo is Norm-conserving, Zval =  1.0
     Generated in analytical, separable form
     Using radial grid of  929 points,  0 beta functions with: 

     PseudoPot. # 2 for  O read from file:
     ./O.blyp-hgh.UPF
     MD5 check sum: d0b7156309aa9befef28faac7bc56342
     Pseudo is Norm-conserving, Zval =  6.0
     Generated in analytical, separable form
     Using radial grid of 1095 points,  1 beta functions with: 
                l(1) =   0

     atomic species   valence    mass     pseudopotential
        H              1.00     1.01000      H( 1.00)
        O              6.00    16.00000      O( 1.00)

     No symmetry found



   Cartesian axes

     site n.     atom                  positions (alat units)
         1           O   tau(   1) = (   0.3201432   0.4379556   0.6352118  )
         2           H   tau(   2) = (   0.2740637   0.5045159   0.6212098  )
         3           H   tau(   3) = (   0.2281571   0.8834565   0.0704275  )

     number of k points=     1  Marzari-Vanderbilt smearing, width (Ry)=  0.0250
                       cart. coord. in units 2pi/alat
        k(    1) = (   0.0000000   0.0000000   0.0000000), wk =   2.0000000

     Dense  grid:   177509 G-vectors     FFT dimensions: (  72,  72,  72)

     Estimated max dynamical RAM per process >       6.09Mb

     Estimated total allocated dynamical RAM >     170.64Mb

     Initial potential from superposition of free atoms
     Check: negative starting charge=   -0.352068

     starting charge    7.99998, renormalised to    8.00000

     negative rho (up, down):  3.521E-01 0.000E+00
     Starting wfc are    6 randomized atomic wfcs +    2 random wfc

     total cpu time spent up to now is        0.3 secs

     per-process dynamical memory:    18.8 Mb

     Self-consistent Calculation

     iteration #  1     ecut=    30.00 Ry     beta=0.70
     Davidson diagonalization with overlap
     ethr =  1.00E-02,  avg # of iterations =  8.0

     negative rho (up, down):  9.439E-02 0.000E+00

     total cpu time spent up to now is        0.4 secs

     total energy              =     -31.68382666 Ry
     Harris-Foulkes estimate   =     -32.09839887 Ry
     estimated scf accuracy    <       0.40468517 Ry

     iteration #  2     ecut=    30.00 Ry     beta=0.70
     Davidson diagonalization with overlap
     ethr =  5.06E-03,  avg # of iterations =  2.0

     negative rho (up, down):  7.491E-02 0.000E+00

     total cpu time spent up to now is        0.5 secs

     total energy              =     -31.62265795 Ry
     Harris-Foulkes estimate   =     -32.08394765 Ry
     estimated scf accuracy    <       1.67593246 Ry

     iteration #  3     ecut=    30.00 Ry     beta=0.70
     Davidson diagonalization with overlap
     ethr =  5.06E-03,  avg # of iterations =  1.0

     negative rho (up, down):  3.030E-02 0.000E+00

     total cpu time spent up to now is        0.5 secs

     total energy              =     -31.76583666 Ry
     Harris-Foulkes estimate   =     -31.94967466 Ry
     estimated scf accuracy    <       1.21787130 Ry

     iteration #  4     ecut=    30.00 Ry     beta=0.70
     Davidson diagonalization with overlap
     ethr =  5.06E-03,  avg # of iterations =  1.0

     negative rho (up, down):  5.868E-03 0.000E+00

     total cpu time spent up to now is        0.6 secs

     total energy              =     -31.60194507 Ry
     Harris-Foulkes estimate   =     -31.86432880 Ry
     estimated scf accuracy    <       1.60977732 Ry

     iteration #  5     ecut=    30.00 Ry     beta=0.70
     Davidson diagonalization with overlap
     ethr =  5.06E-03,  avg # of iterations =  1.0

     negative rho (up, down):  6.934E-04 0.000E+00

     total cpu time spent up to now is        0.6 secs

     total energy              =     -31.94923495 Ry
     Harris-Foulkes estimate   =     -32.04231623 Ry
     estimated scf accuracy    <       1.12571251 Ry

     iteration #  6     ecut=    30.00 Ry     beta=0.70
     Davidson diagonalization with overlap
     ethr =  5.06E-03,  avg # of iterations =  1.0

     negative rho (up, down):  6.675E-04 0.000E+00

     total cpu time spent up to now is        0.7 secs

     total energy              =     -31.89703189 Ry
     Harris-Foulkes estimate   =     -31.94962451 Ry
     estimated scf accuracy    <       0.99833709 Ry

     iteration #  7     ecut=    30.00 Ry     beta=0.70
     Davidson diagonalization with overlap
     ethr =  5.06E-03,  avg # of iterations =  1.0

     negative rho (up, down):  6.765E-04 0.000E+00

     total cpu time spent up to now is        0.7 secs

     total energy              =     -31.88906380 Ry
     Harris-Foulkes estimate   =     -31.89732506 Ry
     estimated scf accuracy    <       0.90574922 Ry

     iteration #  8     ecut=    30.00 Ry     beta=0.70
     Davidson diagonalization with overlap
     ethr =  5.06E-03,  avg # of iterations =  1.0

     negative rho (up, down):  3.428E-04 0.000E+00

     total cpu time spent up to now is        0.7 secs

     total energy              =     -31.76690056 Ry
     Harris-Foulkes estimate   =     -31.88914442 Ry
     estimated scf accuracy    <       0.85906299 Ry

     iteration #  9     ecut=    30.00 Ry     beta=0.70
     Davidson diagonalization with overlap
     ethr =  5.06E-03,  avg # of iterations =  1.0

     negative rho (up, down):  1.351E-05 0.000E+00

     total cpu time spent up to now is        0.8 secs

     total energy              =     -31.87772814 Ry
     Harris-Foulkes estimate   =     -31.95913505 Ry
     estimated scf accuracy    <       1.34882495 Ry

     iteration # 10     ecut=    30.00 Ry     beta=0.70
     Davidson diagonalization with overlap
     ethr =  5.06E-03,  avg # of iterations =  1.0

     negative rho (up, down):  1.713E-05 0.000E+00

     total cpu time spent up to now is        0.8 secs

     total energy              =     -31.81413243 Ry
     Harris-Foulkes estimate   =     -31.87468842 Ry
     estimated scf accuracy    <       0.86464110 Ry

     iteration # 11     ecut=    30.00 Ry     beta=0.70
     Davidson diagonalization with overlap
     ethr =  5.06E-03,  avg # of iterations =  1.0

     total cpu time spent up to now is        0.9 secs

     total energy              =     -31.85938509 Ry
     Harris-Foulkes estimate   =     -31.88899145 Ry
     estimated scf accuracy    <       0.85905505 Ry

     iteration # 12     ecut=    30.00 Ry     beta=0.70
     Davidson diagonalization with overlap
     ethr =  5.06E-03,  avg # of iterations =  1.0

     total cpu time spent up to now is        0.9 secs

     total energy              =     -31.86582548 Ry
     Harris-Foulkes estimate   =     -31.86544920 Ry
     estimated scf accuracy    <       0.14252579 Ry

     iteration # 13     ecut=    30.00 Ry     beta=0.70
     Davidson diagonalization with overlap
     ethr =  1.78E-03,  avg # of iterations =  1.0

     negative rho (up, down):  2.317E-08 0.000E+00

     total cpu time spent up to now is        1.0 secs

     total energy              =     -31.86597120 Ry
     Harris-Foulkes estimate   =     -31.86584335 Ry
     estimated scf accuracy    <       0.16676893 Ry

     iteration # 14     ecut=    30.00 Ry     beta=0.70
     Davidson diagonalization with overlap
     ethr =  1.78E-03,  avg # of iterations =  1.0

     total cpu time spent up to now is        1.0 secs

     total energy              =     -31.86269565 Ry
     Harris-Foulkes estimate   =     -31.86597294 Ry
     estimated scf accuracy    <       0.17459792 Ry

     iteration # 15     ecut=    30.00 Ry     beta=0.70
     Davidson diagonalization with overlap
     ethr =  1.78E-03,  avg # of iterations =  1.0

     negative rho (up, down):  4.142E-08 0.000E+00

     total cpu time spent up to now is        1.1 secs

     total energy              =     -31.86356661 Ry
     Harris-Foulkes estimate   =     -31.86369975 Ry
     estimated scf accuracy    <       0.02272316 Ry

     iteration # 16     ecut=    30.00 Ry     beta=0.70
     Davidson diagonalization with overlap
     ethr =  2.84E-04,  avg # of iterations =  1.0

     negative rho (up, down):  1.565E-07 0.000E+00

     total cpu time spent up to now is        1.1 secs

     total energy              =     -31.86166784 Ry
     Harris-Foulkes estimate   =     -31.86358114 Ry
     estimated scf accuracy    <       0.01393434 Ry

     iteration # 17     ecut=    30.00 Ry     beta=0.70
     Davidson diagonalization with overlap
     ethr =  1.74E-04,  avg # of iterations =  1.0

     negative rho (up, down):  2.146E-07 0.000E+00

     total cpu time spent up to now is        1.2 secs

     total energy              =     -31.85951625 Ry
     Harris-Foulkes estimate   =     -31.86724905 Ry
     estimated scf accuracy    <       0.31263063 Ry

     iteration # 18     ecut=    30.00 Ry     beta=0.70
     Davidson diagonalization with overlap
     ethr =  1.74E-04,  avg # of iterations =  1.0

     negative rho (up, down):  1.286E-07 0.000E+00

     total cpu time spent up to now is        1.2 secs

     total energy              =     -31.86340021 Ry
     Harris-Foulkes estimate   =     -31.86339151 Ry
     estimated scf accuracy    <       0.00001768 Ry

     iteration # 19     ecut=    30.00 Ry     beta=0.70
     Davidson diagonalization with overlap
     ethr =  2.21E-07,  avg # of iterations = 13.0

     negative rho (up, down):  6.177E-08 0.000E+00

     total cpu time spent up to now is        1.3 secs

     total energy              =     -31.86343392 Ry
     Harris-Foulkes estimate   =     -31.86349435 Ry
     estimated scf accuracy    <       0.00772833 Ry

     iteration # 20     ecut=    30.00 Ry     beta=0.70
     Davidson diagonalization with overlap
     ethr =  2.21E-07,  avg # of iterations =  1.0

     negative rho (up, down):  3.100E-08 0.000E+00

     total cpu time spent up to now is        1.3 secs

     total energy              =     -31.86346253 Ry
     Harris-Foulkes estimate   =     -31.86344274 Ry
     estimated scf accuracy    <       0.00384092 Ry

     iteration # 21     ecut=    30.00 Ry     beta=0.70
     Davidson diagonalization with overlap
     ethr =  2.21E-07,  avg # of iterations =  1.0

     negative rho (up, down):  2.305E-08 0.000E+00

     total cpu time spent up to now is        1.4 secs

     total energy              =     -31.86344568 Ry
     Harris-Foulkes estimate   =     -31.86346484 Ry
     estimated scf accuracy    <       0.00556571 Ry

     iteration # 22     ecut=    30.00 Ry     beta=0.70
     Davidson diagonalization with overlap
     ethr =  2.21E-07,  avg # of iterations =  1.0

     negative rho (up, down):  2.060E-08 0.000E+00

     total cpu time spent up to now is        1.4 secs

     total energy              =     -31.86341031 Ry
     Harris-Foulkes estimate   =     -31.86344696 Ry
     estimated scf accuracy    <       0.00418985 Ry

     iteration # 23     ecut=    30.00 Ry     beta=0.70
     Davidson diagonalization with overlap
     ethr =  2.21E-07,  avg # of iterations =  1.0

     total cpu time spent up to now is        1.5 secs

     total energy              =     -31.86336723 Ry
     Harris-Foulkes estimate   =     -31.86341639 Ry
     estimated scf accuracy    <       0.00184985 Ry

     iteration # 24     ecut=    30.00 Ry     beta=0.70
     Davidson diagonalization with overlap
     ethr =  2.21E-07,  avg # of iterations =  1.0

     total cpu time spent up to now is        1.5 secs

     total energy              =     -31.86339324 Ry
     Harris-Foulkes estimate   =     -31.86339324 Ry
     estimated scf accuracy    <       0.00000499 Ry

     iteration # 25     ecut=    30.00 Ry     beta=0.70
     Davidson diagonalization with overlap
     ethr =  6.24E-08,  avg # of iterations =  1.0

     total cpu time spent up to now is        1.6 secs

     total energy              =     -31.86339311 Ry
     Harris-Foulkes estimate   =     -31.86339327 Ry
     estimated scf accuracy    <       0.00000103 Ry

     iteration # 26     ecut=    30.00 Ry     beta=0.70
     Davidson diagonalization with overlap
     ethr =  1.28E-08,  avg # of iterations =  1.0

     total cpu time spent up to now is        1.6 secs

     total energy              =     -31.86339287 Ry
     Harris-Foulkes estimate   =     -31.86339312 Ry
     estimated scf accuracy    <       0.00000033 Ry

     iteration # 27     ecut=    30.00 Ry     beta=0.70
     Davidson diagonalization with overlap
     ethr =  4.08E-09,  avg # of iterations =  1.0

     total cpu time spent up to now is        1.7 secs

     End of self-consistent calculation

          k = 0.0000 0.0000 0.0000 ( 22119 PWs)   bands (ev):

   -25.9912 -11.0446  -7.1543  -7.1535  -7.0106  -0.4733   0.5329   0.7858

     the Fermi energy is    -6.9822 ev

!    total energy              =     -31.86339286 Ry
     Harris-Foulkes estimate   =     -31.86339288 Ry
     estimated scf accuracy    <          3.3E-09 Ry

     convergence has been achieved in  27 iterations

     Forces acting on atoms (Ry/au):

     atom    1 type  2   force =     0.29552190   -0.42801315    0.08943810
     atom    2 type  1   force =    -0.29551583    0.42759341   -0.08979452
     atom    3 type  1   force =    -0.00000607    0.00041974    0.00035642

     Total force =     0.746161     Total SCF correction =     0.000033

     Molecular Dynamics Calculation

     Starting temperature  =  1000.00 K

     temperature is controlled by Andersen thermostat
     Collision frequency = 1.0000/timestep
     mass H                =     1.01
     mass O                =    16.00
     Time step             =   100.00 a.u.,  4.8378 femto-seconds

     Entering Dynamics:    iteration =     1
                           time      =   0.0048 pico-seconds


     Andersen thermostat:    3 collisions

ATOMIC_POSITIONS (bohr)
O        6.534072878   8.626487620  12.752840355
H        3.651471689  12.041820391  11.850684136
H        4.314404671  17.818622730   1.212090883


     kinetic energy (Ekin) =     0.01568467 Ry
     temperature           =   825.47013322 K 
     Ekin + Etot (const)   =   -31.84770819 Ry

     Linear momentum :    0.0000000000    0.0000000000    0.0000000000

     Writing output data file pwscf.save
     Check: negative starting charge=   -0.352068
     NEW-OLD atomic charge density approx. for the potential
     Check: negative starting charge=   -0.344086

     negative rho (up, down):  3.717E-01 0.000E+00

     total cpu time spent up to now is        2.0 secs

     per-process dynamical memory:    20.4 Mb

     Self-consistent Calculation

     iteration #  1     ecut=    30.00 Ry     beta=0.70
     Davidson diagonalization with overlap
     c_bands:  1 eigenvalues not converged
     ethr =  1.00E-06,  avg # of iterations = 20.0

     negative rho (up, down):  9.140E-02 0.000E+00

     total cpu time spent up to now is        2.2 secs

     total energy              =     -29.37765123 Ry
     Harris-Foulkes estimate   =     -32.11370381 Ry
     estimated scf accuracy    <       2.59205651 Ry

     iteration #  2     ecut=    30.00 Ry     beta=0.70
     Davidson diagonalization with overlap
     ethr =  1.00E-02,  avg # of iterations =  3.0

     negative rho (up, down):  6.885E-02 0.000E+00

     total cpu time spent up to now is        2.3 secs

     total energy              =     -32.01811851 Ry
     Harris-Foulkes estimate   =     -35.52494099 Ry
     estimated scf accuracy    <       9.31380006 Ry

     iteration #  3     ecut=    30.00 Ry     beta=0.70
     Davidson diagonalization with overlap
     ethr =  1.00E-02,  avg # of iterations =  2.0

     negative rho (up, down):  5.947E-02 0.000E+00

     total cpu time spent up to now is        2.3 secs

     total energy              =     -31.77581220 Ry
     Harris-Foulkes estimate   =     -32.28847441 Ry
     estimated scf accuracy    <       3.39642482 Ry

     iteration #  4     ecut=    30.00 Ry     beta=0.70
     Davidson diagonalization with overlap
     ethr =  1.00E-02,  avg # of iterations =  1.0

     negative rho (up, down):  5.506E-02 0.000E+00

     total cpu time spent up to now is        2.4 secs

     total energy              =     -31.72324186 Ry
     Harris-Foulkes estimate   =     -31.80202318 Ry
     estimated scf accuracy    <       1.96438664 Ry

     iteration #  5     ecut=    30.00 Ry     beta=0.70
     Davidson diagonalization with overlap
     ethr =  1.00E-02,  avg # of iterations =  3.0

     negative rho (up, down):  2.897E-03 0.000E+00

     total cpu time spent up to now is        2.4 secs

     total energy              =     -30.67371454 Ry
     Harris-Foulkes estimate   =     -31.72367998 Ry
     estimated scf accuracy    <       1.90308694 Ry

     iteration #  6     ecut=    30.00 Ry     beta=0.70
     Davidson diagonalization with overlap
     ethr =  1.00E-02,  avg # of iterations =  3.0

     negative rho (up, down):  1.338E-03 0.000E+00

     total cpu time spent up to now is        2.5 secs

     total energy              =     -33.37113013 Ry
     Harris-Foulkes estimate   =     -33.80104193 Ry
     estimated scf accuracy    <      14.58577524 Ry

     iteration #  7     ecut=    30.00 Ry     beta=0.70
     Davidson diagonalization with overlap
     ethr =  1.00E-02,  avg # of iterations =  1.0

     negative rho (up, down):  2.014E-02 0.000E+00

     total cpu time spent up to now is        2.5 secs

     total energy              =     -33.04141045 Ry
     Harris-Foulkes estimate   =     -33.37871211 Ry
     estimated scf accuracy    <      13.01096610 Ry

     iteration #  8     ecut=    30.00 Ry     beta=0.70
     Davidson diagonalization with overlap
     ethr =  1.00E-02,  avg # of iterations =  1.0

     negative rho (up, down):  2.156E-02 0.000E+00

     total cpu time spent up to now is        2.6 secs

     total energy              =     -33.03271740 Ry
     Harris-Foulkes estimate   =     -33.08406116 Ry
     estimated scf accuracy    <       7.00102828 Ry

     iteration #  9     ecut=    30.00 Ry     beta=0.70
     Davidson diagonalization with overlap
     ethr =  1.00E-02,  avg # of iterations =  1.0

     negative rho (up, down):  1.188E-02 0.000E+00

     total cpu time spent up to now is        2.6 secs

     total energy              =     -33.12167648 Ry
     Harris-Foulkes estimate   =     -33.03756327 Ry
     estimated scf accuracy    <       8.24135879 Ry

     iteration # 10     ecut=    30.00 Ry     beta=0.70
     Davidson diagonalization with overlap
     ethr =  1.00E-02,  avg # of iterations =  1.0

     negative rho (up, down):  7.022E-03 0.000E+00

     total cpu time spent up to now is        2.7 secs

     total energy              =     -33.44333886 Ry
     Harris-Foulkes estimate   =     -33.12385846 Ry
     estimated scf accuracy    <       8.87150981 Ry

     iteration # 11     ecut=    30.00 Ry     beta=0.70
     Davidson diagonalization with overlap
     ethr =  1.00E-02,  avg # of iterations =  1.0

     negative rho (up, down):  1.096E-01 0.000E+00

     total cpu time spent up to now is        2.7 secs

     total energy              =     -32.63672737 Ry
     Harris-Foulkes estimate   =     -33.48008789 Ry
     estimated scf accuracy    <      13.88200781 Ry

     iteration # 12     ecut=    30.00 Ry     beta=0.70
     Davidson diagonalization with overlap
     ethr =  1.00E-02,  avg # of iterations =  1.0

     negative rho (up, down):  5.160E-01 0.000E+00

     total cpu time spent up to now is        2.8 secs

     total energy              =     -31.50349672 Ry
     Harris-Foulkes estimate   =     -32.78834213 Ry
     estimated scf accuracy    <       5.47713804 Ry

     iteration # 13     ecut=    30.00 Ry     beta=0.70
     Davidson diagonalization with overlap
     ethr =  1.00E-02,  avg # of iterations =  5.0

     negative rho (up, down):  5.852E-01 0.000E+00

     total cpu time spent up to now is        2.8 secs

     total energy              =     -31.75782162 Ry
     Harris-Foulkes estimate   =     -31.75881887 Ry
     estimated scf accuracy    <       1.36321997 Ry

     iteration # 14     ecut=    30.00 Ry     beta=0.70
     Davidson diagonalization with overlap
     ethr =  1.00E-02,  avg # of iterations =  1.0

     negative rho (up, down):  1.650E+00 0.000E+00

     total cpu time spent up to now is        2.9 secs

     total energy              =     -32.02936675 Ry
     Harris-Foulkes estimate   =     -31.76206771 Ry
     estimated scf accuracy    <       1.44352152 Ry

     iteration # 15     ecut=    30.00 Ry     beta=0.70
     Davidson diagonalization with overlap
     ethr =  1.00E-02,  avg # of iterations =  2.0

     negative rho (up, down):  1.828E+00 0.000E+00

     total cpu time spent up to now is        3.0 secs

     total energy              =     -32.39996651 Ry
     Harris-Foulkes estimate   =     -32.35512108 Ry
     estimated scf accuracy    <       3.09280442 Ry

     iteration # 16     ecut=    30.00 Ry     beta=0.70
     Davidson diagonalization with overlap
     ethr =  1.00E-02,  avg # of iterations =  2.0

     negative rho (up, down):  1.585E+00 0.000E+00

     total cpu time spent up to now is        3.0 secs

     total energy              =     -32.22838776 Ry
     Harris-Foulkes estimate   =     -32.62488045 Ry
     estimated scf accuracy    <       7.49246935 Ry

     iteration # 17     ecut=    30.00 Ry     beta=0.70
     Davidson diagonalization with overlap
     ethr =  1.00E-02,  avg # of iterations =  2.0

     negative rho (up, down):  1.459E+00 0.000E+00

     total cpu time spent up to now is        3.1 secs

     total energy              =     -32.19236038 Ry
     Harris-Foulkes estimate   =     -32.31453585 Ry
     estimated scf accuracy    <       2.48532474 Ry

     iteration # 18     ecut=    30.00 Ry     beta=0.70
     Davidson diagonalization with overlap
     ethr =  1.00E-02,  avg # of iterations =  1.0

     negative rho (up, down):  7.129E-01 0.000E+00

     total cpu time spent up to now is        3.1 secs

     total energy              =     -31.54411474 Ry
     Harris-Foulkes estimate   =     -32.21251926 Ry
     estimated scf accuracy    <       2.22506298 Ry

     iteration # 19     ecut=    30.00 Ry     beta=0.70
     Davidson diagonalization with overlap
     ethr =  1.00E-02,  avg # of iterations =  2.0

     negative rho (up, down):  6.639E-01 0.000E+00

     total cpu time spent up to now is        3.2 secs

     total energy              =     -31.79677785 Ry
     Harris-Foulkes estimate   =     -31.79237799 Ry
     estimated scf accuracy    <       1.53282591 Ry

     iteration # 20     ecut=    30.00 Ry     beta=0.70
     Davidson diagonalization with overlap
     ethr =  1.00E-02,  avg # of iterations =  1.0

     negative rho (up, down):  6.904E-01 0.000E+00

     total cpu time spent up to now is        3.2 secs

     total energy              =     -31.75994601 Ry
     Harris-Foulkes estimate   =     -31.83250630 Ry
     estimated scf accuracy    <       1.45652828 Ry

     iteration # 21     ecut=    30.00 Ry     beta=0.70
     Davidson diagonalization with overlap
     ethr =  1.00E-02,  avg # of iterations =  1.0

     negative rho (up, down):  7.521E-01 0.000E+00

     total cpu time spent up to now is        3.3 secs

     total energy              =     -31.70371944 Ry
     Harris-Foulkes estimate   =     -31.76572395 Ry
     estimated scf accuracy    <       1.28994099 Ry

     iteration # 22     ecut=    30.00 Ry     beta=0.70
     Davidson diagonalization with overlap
     ethr =  1.00E-02,  avg # of iterations =  1.0

     negative rho (up, down):  6.674E-01 0.000E+00

     total cpu time spent up to now is        3.3 secs

     total energy              =     -31.68764483 Ry
     Harris-Foulkes estimate   =     -31.71804198 Ry
     estimated scf accuracy    <       0.38516146 Ry

     iteration # 23     ecut=    30.00 Ry     beta=0.70
     Davidson diagonalization with overlap
     ethr =  4.81E-03,  avg # of iterations =  1.0

     negative rho (up, down):  6.595E-01 0.000E+00

     total cpu time spent up to now is        3.4 secs

     total energy              =     -31.67096183 Ry
     Harris-Foulkes estimate   =     -31.69612197 Ry
     estimated scf accuracy    <       1.05315718 Ry

     iteration # 24     ecut=    30.00 Ry     beta=0.70
     Davidson diagonalization with overlap
     ethr =  4.81E-03,  avg # of iterations =  1.0

     negative rho (up, down):  5.846E-01 0.000E+00

     total cpu time spent up to now is        3.4 secs

     total energy              =     -31.65985296 Ry
     Harris-Foulkes estimate   =     -31.68164545 Ry
     estimated scf accuracy    <       0.18971603 Ry

     iteration # 25     ecut=    30.00 Ry     beta=0.70
     Davidson diagonalization with overlap
     ethr =  2.37E-03,  avg # of iterations =  1.0

     negative rho (up, down):  7.551E-02 0.000E+00

     total cpu time spent up to now is        3.5 secs

     total energy              =     -31.57405841 Ry
     Harris-Foulkes estimate   =     -31.66108202 Ry
     estimated scf accuracy    <       0.19927634 Ry

     iteration # 26     ecut=    30.00 Ry     beta=0.70
     Davidson diagonalization with overlap
     ethr =  2.37E-03,  avg # of iterations =  3.0

     negative rho (up, down):  6.069E-02 0.000E+00

     total cpu time spent up to now is        3.5 secs

     total energy              =     -31.58214021 Ry
     Harris-Foulkes estimate   =     -31.58411516 Ry
     estimated scf accuracy    <       0.04601487 Ry

     iteration # 27     ecut=    30.00 Ry     beta=0.70
     Davidson diagonalization with overlap
     ethr =  5.75E-04,  avg # of iterations =  2.0

     negative rho (up, down):  1.178E-02 0.000E+00

     total cpu time spent up to now is        3.6 secs

     total energy              =     -31.58378859 Ry
     Harris-Foulkes estimate   =     -31.58331511 Ry
     estimated scf accuracy    <       0.02272470 Ry

     iteration # 28     ecut=    30.00 Ry     beta=0.70
     Davidson diagonalization with overlap
     ethr =  2.84E-04,  avg # of iterations =  4.0

     negative rho (up, down):  2.297E-03 0.000E+00

     total cpu time spent up to now is        3.6 secs

     total energy              =     -31.58715547 Ry
     Harris-Foulkes estimate   =     -31.58402331 Ry
     estimated scf accuracy    <       0.03374528 Ry

     iteration # 29     ecut=    30.00 Ry     beta=0.70
     Davidson diagonalization with overlap
     ethr =  2.84E-04,  avg # of iterations =  1.0

     total cpu time spent up to now is        3.7 secs

     total energy              =     -31.58939093 Ry
     Harris-Foulkes estimate   =     -31.59121985 Ry
     estimated scf accuracy    <       0.43752498 Ry

     iteration # 30     ecut=    30.00 Ry     beta=0.70
     Davidson diagonalization with overlap
     ethr =  2.84E-04,  avg # of iterations =  1.0

     total cpu time spent up to now is        3.7 secs

     total energy              =     -31.58094023 Ry
     Harris-Foulkes estimate   =     -31.58956864 Ry
     estimated scf accuracy    <       0.33379706 Ry

     iteration # 31     ecut=    30.00 Ry     beta=0.70
     Davidson diagonalization with overlap
     ethr =  2.84E-04,  avg # of iterations =  1.0

     total cpu time spent up to now is        3.8 secs

     total energy              =     -31.58443162 Ry
     Harris-Foulkes estimate   =     -31.58453172 Ry
     estimated scf accuracy    <       0.00590274 Ry

     iteration # 32     ecut=    30.00 Ry     beta=0.70
     Davidson diagonalization with overlap
     ethr =  7.38E-05,  avg # of iterations =  3.0

     negative rho (up, down):  1.675E-03 0.000E+00

     total cpu time spent up to now is        3.8 secs

     total energy              =     -31.58362958 Ry
     Harris-Foulkes estimate   =     -31.58443500 Ry
     estimated scf accuracy    <       0.00549603 Ry

     iteration # 33     ecut=    30.00 Ry     beta=0.70
     Davidson diagonalization with overlap
     ethr =  6.87E-05,  avg # of iterations =  8.0

     negative rho (up, down):  1.462E-05 0.000E+00

     total cpu time spent up to now is        3.9 secs

     total energy              =     -31.58385046 Ry
     Harris-Foulkes estimate   =     -31.58381845 Ry
     estimated scf accuracy    <       0.00036827 Ry

     iteration # 34     ecut=    30.00 Ry     beta=0.70
     Davidson diagonalization with overlap
     c_bands:  1 eigenvalues not converged
     ethr =  4.60E-06,  avg # of iterations = 20.0

     negative rho (up, down):  1.113E-06 0.000E+00

     total cpu time spent up to now is        4.0 secs

     total energy              =     -31.58387454 Ry
     Harris-Foulkes estimate   =     -31.58388111 Ry
     estimated scf accuracy    <       0.00020317 Ry

     iteration # 35     ecut=    30.00 Ry     beta=0.70
     Davidson diagonalization with overlap
     ethr =  2.54E-06,  avg # of iterations =  9.0

     total cpu time spent up to now is        4.0 secs

     total energy              =     -31.58388053 Ry
     Harris-Foulkes estimate   =     -31.58387956 Ry
     estimated scf accuracy    <       0.00001787 Ry

     iteration # 36     ecut=    30.00 Ry     beta=0.70
     Davidson diagonalization with overlap
     ethr =  2.23E-07,  avg # of iterations =  1.0

     total cpu time spent up to now is        4.1 secs

     total energy              =     -31.58388117 Ry
     Harris-Foulkes estimate   =     -31.58388125 Ry
     estimated scf accuracy    <       0.00000845 Ry

     iteration # 37     ecut=    30.00 Ry     beta=0.70
     Davidson diagonalization with overlap
     ethr =  1.06E-07,  avg # of iterations =  1.0

     total cpu time spent up to now is        4.1 secs

     total energy              =     -31.58388131 Ry
     Harris-Foulkes estimate   =     -31.58388131 Ry
     estimated scf accuracy    <       0.00000005 Ry

     iteration # 38     ecut=    30.00 Ry     beta=0.70
     Davidson diagonalization with overlap
     ethr =  6.01E-10,  avg # of iterations =  1.0

     total cpu time spent up to now is        4.2 secs

     total energy              =     -31.58388131 Ry
     Harris-Foulkes estimate   =     -31.58388131 Ry
     estimated scf accuracy    <       0.00000001 Ry

     iteration # 39     ecut=    30.00 Ry     beta=0.70
     Davidson diagonalization with overlap
     ethr =  1.44E-10,  avg # of iterations =  2.0

     total cpu time spent up to now is        4.2 secs

     End of self-consistent calculation

          k = 0.0000 0.0000 0.0000 ( 22119 PWs)   bands (ev):

   -23.6145  -7.8819  -6.9344  -6.9336  -6.8000  -6.2113  -0.1511   0.6532

     the Fermi energy is    -6.7659 ev

!    total energy              =     -31.58388129 Ry
     Harris-Foulkes estimate   =     -31.58388131 Ry
     estimated scf accuracy    <          5.6E-09 Ry

     convergence has been achieved in  39 iterations

     Forces acting on atoms (Ry/au):

     atom    1 type  2   force =    -0.05423302    0.06421748   -0.01744949
     atom    2 type  1   force =     0.05409884   -0.06417271    0.01719679
     atom    3 type  1   force =     0.00013418   -0.00004477    0.00025270

     Total force =     0.121286     Total SCF correction =     0.000023

     Entering Dynamics:    iteration =     2
                           time      =   0.0097 pico-seconds


     Andersen thermostat:    3 collisions

ATOMIC_POSITIONS (bohr)
O        6.490048486   8.645599220  12.731723020
H        4.364062491  11.618860840  12.224487557
H        4.299229971  17.938824251   1.172819503


     kinetic energy (Ekin) =     0.01627096 Ry
     temperature           =   856.32611904 K 
     Ekin + Etot (const)   =   -31.56761033 Ry
     Message from routine dynamics:
     Total linear momentum <> 0

     Linear momentum :   -0.4602768815    0.0610126653   -0.1571707240

     Writing output data file pwscf.save

     first order wave-functions extrapolation
     Check: negative starting charge=   -0.344086
     first order charge density extrapolation
     Check: negative starting charge=   -0.345143

     negative rho (up, down):  5.339E-01 0.000E+00

     total cpu time spent up to now is        4.7 secs

     per-process dynamical memory:    20.4 Mb

     Self-consistent Calculation

     iteration #  1     ecut=    30.00 Ry     beta=0.70
     Davidson diagonalization with overlap
     ethr =  1.00E-06,  avg # of iterations = 11.0

     negative rho (up, down):  1.019E-01 0.000E+00

     total cpu time spent up to now is        4.9 secs

     total energy              =     100.36886244 Ry
     Harris-Foulkes estimate   =    -199.92190257 Ry
     estimated scf accuracy    <      36.87316259 Ry

     iteration #  2     ecut=    30.00 Ry     beta=0.70
     Davidson diagonalization with overlap
     ethr =  1.00E-02,  avg # of iterations =  9.0

     negative rho (up, down):  5.785E-02 0.000E+00

     total cpu time spent up to now is        5.0 secs

     total energy              =     -11.98777352 Ry
     Harris-Foulkes estimate   =     -70.76666137 Ry
     estimated scf accuracy    <      27.81092005 Ry

     iteration #  3     ecut=    30.00 Ry     beta=0.70
     Davidson diagonalization with overlap
     ethr =  1.00E-02,  avg # of iterations =  6.0

     negative rho (up, down):  4.873E-02 0.000E+00

     total cpu time spent up to now is        5.1 secs

     total energy              =     -36.01504509 Ry
     Harris-Foulkes estimate   =     -40.58939641 Ry
     estimated scf accuracy    <      14.39444932 Ry

     iteration #  4     ecut=    30.00 Ry     beta=0.70
     Davidson diagonalization with overlap
     ethr =  1.00E-02,  avg # of iterations =  1.0

     negative rho (up, down):  5.845E-02 0.000E+00

     total cpu time spent up to now is        5.1 secs

     total energy              =     -31.74026027 Ry
     Harris-Foulkes estimate   =     -36.06263276 Ry
     estimated scf accuracy    <       8.16241514 Ry

     iteration #  5     ecut=    30.00 Ry     beta=0.70
     Davidson diagonalization with overlap
     ethr =  1.00E-02,  avg # of iterations =  6.0

     negative rho (up, down):  3.914E-02 0.000E+00

     total cpu time spent up to now is        5.2 secs

     total energy              =     -31.06181833 Ry
     Harris-Foulkes estimate   =     -39.88982368 Ry
     estimated scf accuracy    <       6.80417769 Ry

     iteration #  6     ecut=    30.00 Ry     beta=0.70
     Davidson diagonalization with overlap
     ethr =  1.00E-02,  avg # of iterations =  3.0

     negative rho (up, down):  3.370E-02 0.000E+00

     total cpu time spent up to now is        5.2 secs

     total energy              =     -23.30520765 Ry
     Harris-Foulkes estimate   =     -41.77650883 Ry
     estimated scf accuracy    <       6.72866984 Ry

     iteration #  7     ecut=    30.00 Ry     beta=0.70
     Davidson diagonalization with overlap
     ethr =  1.00E-02,  avg # of iterations =  3.0

     negative rho (up, down):  2.571E-02 0.000E+00

     total cpu time spent up to now is        5.3 secs

     total energy              =     -30.82997030 Ry
     Harris-Foulkes estimate   =     -33.25773062 Ry
     estimated scf accuracy    <       2.84643027 Ry

     iteration #  8     ecut=    30.00 Ry     beta=0.70
     Davidson diagonalization with overlap
     ethr =  1.00E-02,  avg # of iterations =  2.0

     negative rho (up, down):  2.567E-02 0.000E+00

     total cpu time spent up to now is        5.3 secs

     total energy              =     -32.83825406 Ry
     Harris-Foulkes estimate   =     -32.80225888 Ry
     estimated scf accuracy    <       4.42088659 Ry

     iteration #  9     ecut=    30.00 Ry     beta=0.70
     Davidson diagonalization with overlap
     ethr =  1.00E-02,  avg # of iterations =  1.0

     negative rho (up, down):  2.746E-02 0.000E+00

     total cpu time spent up to now is        5.4 secs

     total energy              =     -32.96542730 Ry
     Harris-Foulkes estimate   =     -32.84074585 Ry
     estimated scf accuracy    <       4.34163349 Ry

     iteration # 10     ecut=    30.00 Ry     beta=0.70
     Davidson diagonalization with overlap
     ethr =  1.00E-02,  avg # of iterations =  1.0

     negative rho (up, down):  2.204E-01 0.000E+00

     total cpu time spent up to now is        5.4 secs

     total energy              =     -30.75739637 Ry
     Harris-Foulkes estimate   =     -32.96866580 Ry
     estimated scf accuracy    <       4.61942015 Ry

     iteration # 11     ecut=    30.00 Ry     beta=0.70
     Davidson diagonalization with overlap
     ethr =  1.00E-02,  avg # of iterations =  8.0

     negative rho (up, down):  8.036E-01 0.000E+00

     total cpu time spent up to now is        5.5 secs

     total energy              =     -45.16673059 Ry
     Harris-Foulkes estimate   =     -58.49888215 Ry
     estimated scf accuracy    <      20.99565654 Ry

     iteration # 12     ecut=    30.00 Ry     beta=0.70
     Davidson diagonalization with overlap
     ethr =  1.00E-02,  avg # of iterations =  7.0

     negative rho (up, down):  1.715E+00 0.000E+00

     total cpu time spent up to now is        5.6 secs

     total energy              =    6346.08083858 Ry
     Harris-Foulkes estimate   =    -264.60166969 Ry
     estimated scf accuracy    <      50.28753738 Ry

     iteration # 13     ecut=    30.00 Ry     beta=0.70
     Davidson diagonalization with overlap
     ethr =  1.00E-02,  avg # of iterations =  9.0

     negative rho (up, down):  5.316E-01 0.000E+00

     total cpu time spent up to now is        5.7 secs

     total energy              =      11.48796926 Ry
     Harris-Foulkes estimate   =    -196.55254108 Ry
     estimated scf accuracy    <      48.35527103 Ry

     iteration # 14     ecut=    30.00 Ry     beta=0.70
     Davidson diagonalization with overlap
     ethr =  1.00E-02,  avg # of iterations =  7.0

     negative rho (up, down):  3.466E-01 0.000E+00

     total cpu time spent up to now is        5.8 secs

     total energy              =      85.50622061 Ry
     Harris-Foulkes estimate   =    -544.20189991 Ry
     estimated scf accuracy    <      49.87121331 Ry

     iteration # 15     ecut=    30.00 Ry     beta=0.70
     Davidson diagonalization with overlap
     ethr =  1.00E-02,  avg # of iterations =  8.0

     negative rho (up, down):  1.783E-01 0.000E+00

     total cpu time spent up to now is        5.9 secs

     total energy              =      37.68139669 Ry
     Harris-Foulkes estimate   =    -153.89006492 Ry
     estimated scf accuracy    <      43.83973859 Ry

     iteration # 16     ecut=    30.00 Ry     beta=0.70
     Davidson diagonalization with overlap
     ethr =  1.00E-02,  avg # of iterations = 11.0

     negative rho (up, down):  2.389E-01 0.000E+00

     total cpu time spent up to now is        6.0 secs

     total energy              =    -237.98210912 Ry
     Harris-Foulkes estimate   =    -120.16179472 Ry
     estimated scf accuracy    <      49.24749288 Ry

     iteration # 17     ecut=    30.00 Ry     beta=0.70
     Davidson diagonalization with overlap
     ethr =  1.00E-02,  avg # of iterations =  7.0

     negative rho (up, down):  1.461E-01 0.000E+00

     total cpu time spent up to now is        6.1 secs

     total energy              =     176.54913818 Ry
     Harris-Foulkes estimate   =    -746.04889338 Ry
     estimated scf accuracy    <      52.07649931 Ry

     iteration # 18     ecut=    30.00 Ry     beta=0.70
     Davidson diagonalization with overlap
     ethr =  1.00E-02,  avg # of iterations =  6.0

     negative rho (up, down):  3.952E-02 0.000E+00

     total cpu time spent up to now is        6.2 secs

     total energy              =       5.40139870 Ry
     Harris-Foulkes estimate   =    -187.53910572 Ry
     estimated scf accuracy    <      24.09133777 Ry

     iteration # 19     ecut=    30.00 Ry     beta=0.70
     Davidson diagonalization with overlap
     ethr =  1.00E-02,  avg # of iterations =  6.0

     negative rho (up, down):  1.433E+00 0.000E+00

     total cpu time spent up to now is        6.3 secs

     total energy              =    -158.84392605 Ry
     Harris-Foulkes estimate   =     -53.88757490 Ry
     estimated scf accuracy    <      22.07518780 Ry

     iteration # 20     ecut=    30.00 Ry     beta=0.70
     Davidson diagonalization with overlap
     ethr =  1.00E-02,  avg # of iterations =  7.0

     negative rho (up, down):  2.386E+00 0.000E+00

     total cpu time spent up to now is        6.4 secs

     total energy              =  -44382.26793364 Ry
     Harris-Foulkes estimate   =   -1968.57728472 Ry
     estimated scf accuracy    <      34.77062368 Ry

     iteration # 21     ecut=    30.00 Ry     beta=0.70
     Davidson diagonalization with overlap
     ethr =  1.00E-02,  avg # of iterations =  7.0

     negative rho (up, down):  2.906E+00 0.000E+00

     total cpu time spent up to now is        6.5 secs

     total energy              =       8.73806832 Ry
     Harris-Foulkes estimate   = -118152.44305472 Ry
     estimated scf accuracy    <      35.22471746 Ry

     iteration # 22     ecut=    30.00 Ry     beta=0.70
     Davidson diagonalization with overlap
     ethr =  1.00E-02,  avg # of iterations =  7.0

     negative rho (up, down):  3.299E+00 0.000E+00

     total cpu time spent up to now is        6.5 secs

     total energy              =   -7789.63470768 Ry
     Harris-Foulkes estimate   =   -2861.77995374 Ry
     estimated scf accuracy    <      38.35952571 Ry

     iteration # 23     ecut=    30.00 Ry     beta=0.70
     Davidson diagonalization with overlap
     ethr =  1.00E-02,  avg # of iterations =  5.0

     negative rho (up, down):  3.023E+00 0.000E+00

     total cpu time spent up to now is        6.6 secs

     total energy              =  -22328.21805880 Ry
     Harris-Foulkes estimate   =  -26916.56011055 Ry
     estimated scf accuracy    <      28.38465607 Ry

     iteration # 24     ecut=    30.00 Ry     beta=0.70
     Davidson diagonalization with overlap
     ethr =  1.00E-02,  avg # of iterations =  5.0

     negative rho (up, down):  2.669E+00 0.000E+00

     total cpu time spent up to now is        6.7 secs

     total energy              =      78.58512289 Ry
     Harris-Foulkes estimate   = -106051.32023025 Ry
     estimated scf accuracy    <      30.56161454 Ry

     iteration # 25     ecut=    30.00 Ry     beta=0.70
     Davidson diagonalization with overlap
     ethr =  1.00E-02,  avg # of iterations =  8.0

     negative rho (up, down):  1.215E+00 0.000E+00

     total cpu time spent up to now is        6.8 secs

     total energy              =      27.38913339 Ry
     Harris-Foulkes estimate   =  -11763.08078682 Ry
     estimated scf accuracy    <      34.41018668 Ry

     iteration # 26     ecut=    30.00 Ry     beta=0.70
     Davidson diagonalization with overlap
     ethr =  1.00E-02,  avg # of iterations =  8.0

     negative rho (up, down):  1.884E-01 0.000E+00

     total cpu time spent up to now is        6.9 secs

     total energy              =      94.39960570 Ry
     Harris-Foulkes estimate   =    -562.65788815 Ry
     estimated scf accuracy    <      28.97216794 Ry

     iteration # 27     ecut=    30.00 Ry     beta=0.70
     Davidson diagonalization with overlap
     ethr =  1.00E-02,  avg # of iterations =  8.0

     negative rho (up, down):  3.441E-01 0.000E+00

     total cpu time spent up to now is        7.0 secs

     total energy              =   -1104.86551354 Ry
     Harris-Foulkes estimate   =   -3975.90459425 Ry
     estimated scf accuracy    <      25.18012935 Ry

     iteration # 28     ecut=    30.00 Ry     beta=0.70
     Davidson diagonalization with overlap
     ethr =  1.00E-02,  avg # of iterations =  8.0

     negative rho (up, down):  2.974E-01 0.000E+00

     total cpu time spent up to now is        7.1 secs

     total energy              =      63.33393414 Ry
     Harris-Foulkes estimate   =   -3671.79360103 Ry
     estimated scf accuracy    <      30.88122295 Ry

     iteration # 29     ecut=    30.00 Ry     beta=0.70
     Davidson diagonalization with overlap
     ethr =  1.00E-02,  avg # of iterations =  8.0

     negative rho (up, down):  3.179E-01 0.000E+00

     total cpu time spent up to now is        7.1 secs

     total energy              =   -2500.31254551 Ry
     Harris-Foulkes estimate   =   -3938.77352416 Ry
     estimated scf accuracy    <      22.26651919 Ry

     iteration # 30     ecut=    30.00 Ry     beta=0.70
     Davidson diagonalization with overlap
     ethr =  1.00E-02,  avg # of iterations =  8.0

     negative rho (up, down):  2.496E-01 0.000E+00

     total cpu time spent up to now is        7.3 secs

     total energy              =     111.29106187 Ry
     Harris-Foulkes estimate   =   -8425.72673849 Ry
     estimated scf accuracy    <      25.39538623 Ry

     iteration # 31     ecut=    30.00 Ry     beta=0.70
     Davidson diagonalization with overlap
     ethr =  1.00E-02,  avg # of iterations = 12.0

     negative rho (up, down):  5.073E-02 0.000E+00

     total cpu time spent up to now is        7.4 secs

     total energy              =     -22.83394464 Ry
     Harris-Foulkes estimate   =     -78.80041666 Ry
     estimated scf accuracy    <      40.92482421 Ry

     iteration # 32     ecut=    30.00 Ry     beta=0.70
     Davidson diagonalization with overlap
     ethr =  1.00E-02,  avg # of iterations =  5.0

     negative rho (up, down):  2.325E-02 0.000E+00

     total cpu time spent up to now is        7.5 secs

     total energy              =     -11.58018771 Ry
     Harris-Foulkes estimate   =    -612.91068462 Ry
     estimated scf accuracy    <      26.33249625 Ry

     iteration # 33     ecut=    30.00 Ry     beta=0.70
     Davidson diagonalization with overlap
     ethr =  1.00E-02,  avg # of iterations =  8.0

     negative rho (up, down):  3.650E-02 0.000E+00

     total cpu time spent up to now is        7.6 secs

     total energy              =     -53.15263001 Ry
     Harris-Foulkes estimate   =     -55.32349635 Ry
     estimated scf accuracy    <      36.50525075 Ry

     iteration # 34     ecut=    30.00 Ry     beta=0.70
     Davidson diagonalization with overlap
     ethr =  1.00E-02,  avg # of iterations =  7.0

     negative rho (up, down):  3.199E-02 0.000E+00

     total cpu time spent up to now is        7.6 secs

     total energy              =      51.19013852 Ry
     Harris-Foulkes estimate   =    -291.58217466 Ry
     estimated scf accuracy    <      27.81748307 Ry

     iteration # 35     ecut=    30.00 Ry     beta=0.70
     Davidson diagonalization with overlap
     ethr =  1.00E-02,  avg # of iterations =  6.0

     negative rho (up, down):  7.268E-02 0.000E+00

     total cpu time spent up to now is        7.7 secs

     total energy              =      98.13972209 Ry
     Harris-Foulkes estimate   =    -348.84948469 Ry
     estimated scf accuracy    <      26.15303931 Ry

     iteration # 36     ecut=    30.00 Ry     beta=0.70
     Davidson diagonalization with overlap
     ethr =  1.00E-02,  avg # of iterations =  6.0

     negative rho (up, down):  2.490E-01 0.000E+00

     total cpu time spent up to now is        7.8 secs

     total energy              =     -47.09202003 Ry
     Harris-Foulkes estimate   =     -51.75949814 Ry
     estimated scf accuracy    <      31.49665306 Ry

     iteration # 37     ecut=    30.00 Ry     beta=0.70
     Davidson diagonalization with overlap
     ethr =  1.00E-02,  avg # of iterations =  6.0

     negative rho (up, down):  3.604E-01 0.000E+00

     total cpu time spent up to now is        7.9 secs

     total energy              =     -88.62725182 Ry
     Harris-Foulkes estimate   =    -896.89894271 Ry
     estimated scf accuracy    <      48.25561647 Ry

     iteration # 38     ecut=    30.00 Ry     beta=0.70
     Davidson diagonalization with overlap
     ethr =  1.00E-02,  avg # of iterations =  7.0

     negative rho (up, down):  2.980E-01 0.000E+00

     total cpu time spent up to now is        8.0 secs

     total energy              =    -728.66176937 Ry
     Harris-Foulkes estimate   =   -3053.81958171 Ry
     estimated scf accuracy    <      35.39681219 Ry

     iteration # 39     ecut=    30.00 Ry     beta=0.70
     Davidson diagonalization with overlap
     ethr =  1.00E-02,  avg # of iterations = 11.0

     negative rho (up, down):  3.393E-01 0.000E+00

     total cpu time spent up to now is        8.1 secs

     total energy              =   10082.15377382 Ry
     Harris-Foulkes estimate   =   -1754.51731208 Ry
     estimated scf accuracy    <      31.19687396 Ry

     iteration # 40     ecut=    30.00 Ry     beta=0.70
     Davidson diagonalization with overlap
     ethr =  1.00E-02,  avg # of iterations = 10.0

     negative rho (up, down):  2.677E-01 0.000E+00

     total cpu time spent up to now is        8.2 secs

     total energy              =       9.29355573 Ry
     Harris-Foulkes estimate   =    -578.48186362 Ry
     estimated scf accuracy    <      32.08050297 Ry

     iteration # 41     ecut=    30.00 Ry     beta=0.70
     Davidson diagonalization with overlap
     ethr =  1.00E-02,  avg # of iterations = 10.0

     negative rho (up, down):  2.871E-01 0.000E+00

     total cpu time spent up to now is        8.3 secs

     total energy              =    -316.20684093 Ry
     Harris-Foulkes estimate   =    -564.77837558 Ry
     estimated scf accuracy    <      32.22701373 Ry

     iteration # 42     ecut=    30.00 Ry     beta=0.70
     Davidson diagonalization with overlap
     ethr =  1.00E-02,  avg # of iterations =  7.0

     negative rho (up, down):  4.815E-01 0.000E+00

     total cpu time spent up to now is        8.3 secs

     total energy              =    -291.73844757 Ry
     Harris-Foulkes estimate   =    -765.66155559 Ry
     estimated scf accuracy    <      39.49933847 Ry

     iteration # 43     ecut=    30.00 Ry     beta=0.70
     Davidson diagonalization with overlap
     ethr =  1.00E-02,  avg # of iterations =  8.0

     negative rho (up, down):  6.281E-01 0.000E+00

     total cpu time spent up to now is        8.4 secs

     total energy              =      74.49775187 Ry
     Harris-Foulkes estimate   =   -2656.14720390 Ry
     estimated scf accuracy    <      52.48304802 Ry

     iteration # 44     ecut=    30.00 Ry     beta=0.70
     Davidson diagonalization with overlap
     ethr =  1.00E-02,  avg # of iterations =  7.0

     negative rho (up, down):  7.310E-01 0.000E+00

     total cpu time spent up to now is        8.5 secs

     total energy              =      -1.23359987 Ry
     Harris-Foulkes estimate   =   -2008.33812069 Ry
     estimated scf accuracy    <      16.12056057 Ry

     iteration # 45     ecut=    30.00 Ry     beta=0.70
     Davidson diagonalization with overlap
     ethr =  1.00E-02,  avg # of iterations =  7.0

     negative rho (up, down):  1.156E+00 0.000E+00

     total cpu time spent up to now is        8.6 secs

     total energy              =     112.55401519 Ry
     Harris-Foulkes estimate   =   -1027.05594546 Ry
     estimated scf accuracy    <      53.01860439 Ry

     iteration # 46     ecut=    30.00 Ry     beta=0.70
     Davidson diagonalization with overlap
     ethr =  1.00E-02,  avg # of iterations = 14.0

     negative rho (up, down):  5.839E-01 0.000E+00

     total cpu time spent up to now is        8.7 secs

     total energy              =     122.15632656 Ry
     Harris-Foulkes estimate   =    -831.24423818 Ry
     estimated scf accuracy    <      31.13973064 Ry

     iteration # 47     ecut=    30.00 Ry     beta=0.70
     Davidson diagonalization with overlap
     ethr =  1.00E-02,  avg # of iterations = 11.0

     negative rho (up, down):  8.770E-01 0.000E+00

     total cpu time spent up to now is        8.8 secs

     total energy              =    -479.95466612 Ry
     Harris-Foulkes estimate   =    -549.29000891 Ry
     estimated scf accuracy    <      27.25775773 Ry

     iteration # 48     ecut=    30.00 Ry     beta=0.70
     Davidson diagonalization with overlap
     ethr =  1.00E-02,  avg # of iterations =  7.0

     negative rho (up, down):  1.201E+00 0.000E+00

     total cpu time spent up to now is        8.9 secs

     total energy              =    -141.91387975 Ry
     Harris-Foulkes estimate   =   -7583.69212353 Ry
     estimated scf accuracy    <      40.69451218 Ry

     iteration # 49     ecut=    30.00 Ry     beta=0.70
     Davidson diagonalization with overlap
     ethr =  1.00E-02,  avg # of iterations =  8.0

     negative rho (up, down):  1.217E+00 0.000E+00

     total cpu time spent up to now is        9.0 secs

     total energy              =      48.29607210 Ry
     Harris-Foulkes estimate   =   -2155.75714503 Ry
     estimated scf accuracy    <      25.94032606 Ry

     iteration # 50     ecut=    30.00 Ry     beta=0.70
     Davidson diagonalization with overlap
     ethr =  1.00E-02,  avg # of iterations = 10.0

     negative rho (up, down):  5.608E-01 0.000E+00

     total cpu time spent up to now is        9.1 secs

     total energy              =     104.68797171 Ry
     Harris-Foulkes estimate   =   -6195.55995528 Ry
     estimated scf accuracy    <      27.00387764 Ry

     iteration # 51     ecut=    30.00 Ry     beta=0.70
     Davidson diagonalization with overlap
     ethr =  1.00E-02,  avg # of iterations =  7.0

     negative rho (up, down):  6.085E-01 0.000E+00

     total cpu time spent up to now is        9.2 secs

     total energy              =      76.42291113 Ry
     Harris-Foulkes estimate   =    -823.60519721 Ry
     estimated scf accuracy    <      45.14368231 Ry

     iteration # 52     ecut=    30.00 Ry     beta=0.70
     Davidson diagonalization with overlap
     ethr =  1.00E-02,  avg # of iterations =  6.0

     negative rho (up, down):  6.075E-01 0.000E+00

     total cpu time spent up to now is        9.3 secs

     total energy              =      16.95827316 Ry
     Harris-Foulkes estimate   =    -545.92590638 Ry
     estimated scf accuracy    <      23.25122718 Ry

     iteration # 53     ecut=    30.00 Ry     beta=0.70
     Davidson diagonalization with overlap
     ethr =  1.00E-02,  avg # of iterations =  8.0

     negative rho (up, down):  4.673E-01 0.000E+00

     total cpu time spent up to now is        9.3 secs

     total energy              =   -1386.69808630 Ry
     Harris-Foulkes estimate   =    -383.23079083 Ry
     estimated scf accuracy    <      28.99247553 Ry

     iteration # 54     ecut=    30.00 Ry     beta=0.70
     Davidson diagonalization with overlap
     ethr =  1.00E-02,  avg # of iterations =  7.0

     negative rho (up, down):  1.685E-01 0.000E+00

     total cpu time spent up to now is        9.4 secs

     total energy              =      97.26436896 Ry
     Harris-Foulkes estimate   =   -3735.36871774 Ry
     estimated scf accuracy    <      38.25675612 Ry

     iteration # 55     ecut=    30.00 Ry     beta=0.70
     Davidson diagonalization with overlap
     ethr =  1.00E-02,  avg # of iterations =  6.0

     negative rho (up, down):  4.397E-01 0.000E+00

     total cpu time spent up to now is        9.5 secs

     total energy              =      55.39022916 Ry
     Harris-Foulkes estimate   =   -1287.62616327 Ry
     estimated scf accuracy    <      37.73246087 Ry

     iteration # 56     ecut=    30.00 Ry     beta=0.70
     Davidson diagonalization with overlap
     ethr =  1.00E-02,  avg # of iterations =  7.0

     negative rho (up, down):  7.168E-01 0.000E+00

     total cpu time spent up to now is        9.6 secs

     total energy              =      15.14044223 Ry
     Harris-Foulkes estimate   =   -1048.54294656 Ry
     estimated scf accuracy    <      37.59689696 Ry

     iteration # 57     ecut=    30.00 Ry     beta=0.70
     Davidson diagonalization with overlap
     ethr =  1.00E-02,  avg # of iterations =  8.0

     negative rho (up, down):  7.127E-01 0.000E+00

     total cpu time spent up to now is        9.7 secs

     total energy              =      -5.94430991 Ry
     Harris-Foulkes estimate   =   -2894.84505802 Ry
     estimated scf accuracy    <      26.40816530 Ry

     iteration # 58     ecut=    30.00 Ry     beta=0.70
     Davidson diagonalization with overlap
     ethr =  1.00E-02,  avg # of iterations =  6.0

     negative rho (up, down):  1.040E+00 0.000E+00

     total cpu time spent up to now is        9.8 secs

     total energy              =     120.77467916 Ry
     Harris-Foulkes estimate   =   -1489.95082936 Ry
     estimated scf accuracy    <      26.24846077 Ry

     iteration # 59     ecut=    30.00 Ry     beta=0.70
     Davidson diagonalization with overlap
     ethr =  1.00E-02,  avg # of iterations =  8.0

     negative rho (up, down):  8.907E-01 0.000E+00

     total cpu time spent up to now is        9.9 secs

     total energy              =    -113.94345435 Ry
     Harris-Foulkes estimate   =   -1143.26813336 Ry
     estimated scf accuracy    <      32.96091862 Ry

     iteration # 60     ecut=    30.00 Ry     beta=0.70
     Davidson diagonalization with overlap
     ethr =  1.00E-02,  avg # of iterations =  6.0

     negative rho (up, down):  4.830E-01 0.000E+00

     total cpu time spent up to now is       10.0 secs

     total energy              =      91.96730673 Ry
     Harris-Foulkes estimate   =  -22877.27154586 Ry
     estimated scf accuracy    <      24.76638669 Ry

     iteration # 61     ecut=    30.00 Ry     beta=0.70
     Davidson diagonalization with overlap
     ethr =  1.00E-02,  avg # of iterations = 13.0

     negative rho (up, down):  2.277E-01 0.000E+00

     total cpu time spent up to now is       10.1 secs

     total energy              =      -7.80584929 Ry
     Harris-Foulkes estimate   =   -1729.69334979 Ry
     estimated scf accuracy    <      19.98352180 Ry

     iteration # 62     ecut=    30.00 Ry     beta=0.70
     Davidson diagonalization with overlap
     ethr =  1.00E-02,  avg # of iterations =  5.0

     negative rho (up, down):  3.065E-01 0.000E+00

     total cpu time spent up to now is       10.1 secs

     total energy              =      61.17107417 Ry
     Harris-Foulkes estimate   =   -6016.03287239 Ry
     estimated scf accuracy    <      22.70665568 Ry

     iteration # 63     ecut=    30.00 Ry     beta=0.70
     Davidson diagonalization with overlap
     ethr =  1.00E-02,  avg # of iterations =  7.0

     negative rho (up, down):  1.173E-01 0.000E+00

     total cpu time spent up to now is       10.2 secs

     total energy              =     125.98730176 Ry
     Harris-Foulkes estimate   =   -3393.77334078 Ry
     estimated scf accuracy    <      21.37150132 Ry

     iteration # 64     ecut=    30.00 Ry     beta=0.70
     Davidson diagonalization with overlap
     ethr =  1.00E-02,  avg # of iterations =  9.0

     negative rho (up, down):  1.059E-01 0.000E+00

     total cpu time spent up to now is       10.3 secs

     total energy              =      10.77324789 Ry
     Harris-Foulkes estimate   =    -140.41464977 Ry
     estimated scf accuracy    <      17.37962923 Ry

     iteration # 65     ecut=    30.00 Ry     beta=0.70
     Davidson diagonalization with overlap
     ethr =  1.00E-02,  avg # of iterations =  7.0

     negative rho (up, down):  1.843E-01 0.000E+00

     total cpu time spent up to now is       10.4 secs

     total energy              =     126.40618683 Ry
     Harris-Foulkes estimate   =   -1389.55339030 Ry
     estimated scf accuracy    <      22.65924603 Ry

     iteration # 66     ecut=    30.00 Ry     beta=0.70
     Davidson diagonalization with overlap
     ethr =  1.00E-02,  avg # of iterations = 11.0

     negative rho (up, down):  1.001E-01 0.000E+00

     total cpu time spent up to now is       10.5 secs

     total energy              =     -48.84645923 Ry
     Harris-Foulkes estimate   =     -67.16225989 Ry
     estimated scf accuracy    <      30.30091429 Ry

     iteration # 67     ecut=    30.00 Ry     beta=0.70
     Davidson diagonalization with overlap
     ethr =  1.00E-02,  avg # of iterations =  5.0

     negative rho (up, down):  9.993E-05 0.000E+00

     total cpu time spent up to now is       10.6 secs

     total energy              =     141.11161090 Ry
     Harris-Foulkes estimate   =   -6252.04128337 Ry
     estimated scf accuracy    <      25.14783200 Ry

     iteration # 68     ecut=    30.00 Ry     beta=0.70
     Davidson diagonalization with overlap
     ethr =  1.00E-02,  avg # of iterations = 10.0

     negative rho (up, down):  4.711E-03 0.000E+00

     total cpu time spent up to now is       10.6 secs

     total energy              =     -21.54809244 Ry
     Harris-Foulkes estimate   =    -100.95036681 Ry
     estimated scf accuracy    <      30.98197899 Ry

     iteration # 69     ecut=    30.00 Ry     beta=0.70
     Davidson diagonalization with overlap
     ethr =  1.00E-02,  avg # of iterations =  4.0

     negative rho (up, down):  4.412E-02 0.000E+00

     total cpu time spent up to now is       10.7 secs

     total energy              =     -62.06377272 Ry
     Harris-Foulkes estimate   =     -62.63698140 Ry
     estimated scf accuracy    <      43.61573609 Ry

     iteration # 70     ecut=    30.00 Ry     beta=0.70
     Davidson diagonalization with overlap
     ethr =  1.00E-02,  avg # of iterations =  1.0

     negative rho (up, down):  9.207E-01 0.000E+00

     total cpu time spent up to now is       10.8 secs

     total energy              =     -59.69253415 Ry
     Harris-Foulkes estimate   =     -62.06504187 Ry
     estimated scf accuracy    <      42.70303222 Ry

     iteration # 71     ecut=    30.00 Ry     beta=0.70
     Davidson diagonalization with overlap
     ethr =  1.00E-02,  avg # of iterations =  8.0

     negative rho (up, down):  9.616E-01 0.000E+00

     total cpu time spent up to now is       10.8 secs

     total energy              =      25.98663313 Ry
     Harris-Foulkes estimate   =   -2510.78293593 Ry
     estimated scf accuracy    <      30.77668101 Ry

     iteration # 72     ecut=    30.00 Ry     beta=0.70
     Davidson diagonalization with overlap
     ethr =  1.00E-02,  avg # of iterations =  9.0

     negative rho (up, down):  7.651E-01 0.000E+00

     total cpu time spent up to now is       10.9 secs

     total energy              =    -187.20748388 Ry
     Harris-Foulkes estimate   =   -1097.36236066 Ry
     estimated scf accuracy    <      33.49102430 Ry

     iteration # 73     ecut=    30.00 Ry     beta=0.70
     Davidson diagonalization with overlap
     ethr =  1.00E-02,  avg # of iterations =  8.0

     negative rho (up, down):  6.340E-01 0.000E+00

     total cpu time spent up to now is       11.0 secs

     total energy              =      76.41433154 Ry
     Harris-Foulkes estimate   =   -1939.83880466 Ry
     estimated scf accuracy    <      28.51655263 Ry

     iteration # 74     ecut=    30.00 Ry     beta=0.70
     Davidson diagonalization with overlap
     ethr =  1.00E-02,  avg # of iterations = 10.0

     negative rho (up, down):  2.731E-01 0.000E+00

     total cpu time spent up to now is       11.1 secs

     total energy              =     -68.24957574 Ry
     Harris-Foulkes estimate   =    -505.06937231 Ry
     estimated scf accuracy    <      35.04800185 Ry

     iteration # 75     ecut=    30.00 Ry     beta=0.70
     Davidson diagonalization with overlap
     ethr =  1.00E-02,  avg # of iterations =  6.0

     negative rho (up, down):  5.740E-02 0.000E+00

     total cpu time spent up to now is       11.2 secs

     total energy              =       8.16969272 Ry
     Harris-Foulkes estimate   =   -1210.01647955 Ry
     estimated scf accuracy    <      18.80442475 Ry

     iteration # 76     ecut=    30.00 Ry     beta=0.70
     Davidson diagonalization with overlap
     ethr =  1.00E-02,  avg # of iterations =  5.0

     negative rho (up, down):  3.181E-02 0.000E+00

     total cpu time spent up to now is       11.3 secs

     total energy              =      28.86333072 Ry
     Harris-Foulkes estimate   =    -194.29620682 Ry
     estimated scf accuracy    <      15.60890719 Ry

     iteration # 77     ecut=    30.00 Ry     beta=0.70
     Davidson diagonalization with overlap
     ethr =  1.00E-02,  avg # of iterations =  7.0

     negative rho (up, down):  1.920E-04 0.000E+00

     total cpu time spent up to now is       11.3 secs

     total energy              =      24.32756988 Ry
     Harris-Foulkes estimate   =     -98.50261995 Ry
     estimated scf accuracy    <      14.81711180 Ry

     iteration # 78     ecut=    30.00 Ry     beta=0.70
     Davidson diagonalization with overlap
     ethr =  1.00E-02,  avg # of iterations =  6.0

     negative rho (up, down):  1.551E-01 0.000E+00

     total cpu time spent up to now is       11.4 secs

     total energy              =     -54.56437547 Ry
     Harris-Foulkes estimate   =     -57.07295241 Ry
     estimated scf accuracy    <      37.46650069 Ry

     iteration # 79     ecut=    30.00 Ry     beta=0.70
     Davidson diagonalization with overlap
     ethr =  1.00E-02,  avg # of iterations =  8.0

     negative rho (up, down):  1.263E-02 0.000E+00

     total cpu time spent up to now is       11.5 secs

     total energy              =     101.88490262 Ry
     Harris-Foulkes estimate   =   -7145.83570193 Ry
     estimated scf accuracy    <      44.29376999 Ry

     iteration # 80     ecut=    30.00 Ry     beta=0.70
     Davidson diagonalization with overlap
     ethr =  1.00E-02,  avg # of iterations = 10.0

     negative rho (up, down):  8.960E-03 0.000E+00

     total cpu time spent up to now is       11.6 secs

     total energy              =    1251.28421483 Ry
     Harris-Foulkes estimate   =    -254.24868450 Ry
     estimated scf accuracy    <      20.51669391 Ry

     iteration # 81     ecut=    30.00 Ry     beta=0.70
     Davidson diagonalization with overlap
     ethr =  1.00E-02,  avg # of iterations =  7.0

     negative rho (up, down):  5.867E-01 0.000E+00

     total cpu time spent up to now is       11.7 secs

     total energy              =     -53.48028245 Ry
     Harris-Foulkes estimate   =     -52.63440436 Ry
     estimated scf accuracy    <      31.31804055 Ry

     iteration # 82     ecut=    30.00 Ry     beta=0.70
     Davidson diagonalization with overlap
     ethr =  1.00E-02,  avg # of iterations =  8.0

     negative rho (up, down):  2.796E-01 0.000E+00

     total cpu time spent up to now is       11.8 secs

     total energy              =   -2116.94382805 Ry
     Harris-Foulkes estimate   =  -13826.41447390 Ry
     estimated scf accuracy    <      30.27036870 Ry

     iteration # 83     ecut=    30.00 Ry     beta=0.70
     Davidson diagonalization with overlap
     ethr =  1.00E-02,  avg # of iterations = 10.0

     negative rho (up, down):  2.204E-01 0.000E+00

     total cpu time spent up to now is       11.9 secs

     total energy              =      17.41375936 Ry
     Harris-Foulkes estimate   =   -6486.52329086 Ry
     estimated scf accuracy    <      46.15299860 Ry

     iteration # 84     ecut=    30.00 Ry     beta=0.70
     Davidson diagonalization with overlap
     ethr =  1.00E-02,  avg # of iterations =  6.0

     negative rho (up, down):  3.546E-05 0.000E+00

     total cpu time spent up to now is       11.9 secs

     total energy              =     112.15842113 Ry
     Harris-Foulkes estimate   =    -515.60755580 Ry
     estimated scf accuracy    <      28.23991480 Ry

     iteration # 85     ecut=    30.00 Ry     beta=0.70
     Davidson diagonalization with overlap
     ethr =  1.00E-02,  avg # of iterations =  8.0

     negative rho (up, down):  1.250E-02 0.000E+00

     total cpu time spent up to now is       12.0 secs

     total energy              =     -46.23689144 Ry
     Harris-Foulkes estimate   =     -48.75511114 Ry
     estimated scf accuracy    <      26.32972071 Ry

     iteration # 86     ecut=    30.00 Ry     beta=0.70
     Davidson diagonalization with overlap
     ethr =  1.00E-02,  avg # of iterations =  8.0

     negative rho (up, down):  6.107E-02 0.000E+00

     total cpu time spent up to now is       12.1 secs

     total energy              =     -31.12480717 Ry
     Harris-Foulkes estimate   =    -150.99729205 Ry
     estimated scf accuracy    <      10.41359471 Ry

     iteration # 87     ecut=    30.00 Ry     beta=0.70
     Davidson diagonalization with overlap
     ethr =  1.00E-02,  avg # of iterations =  7.0

     negative rho (up, down):  9.596E-02 0.000E+00

     total cpu time spent up to now is       12.2 secs

     total energy              =    -660.41941142 Ry
     Harris-Foulkes estimate   =    -236.96642499 Ry
     estimated scf accuracy    <      28.97421788 Ry

     iteration # 88     ecut=    30.00 Ry     beta=0.70
     Davidson diagonalization with overlap
     ethr =  1.00E-02,  avg # of iterations = 10.0

     negative rho (up, down):  3.763E-03 0.000E+00

     total cpu time spent up to now is       12.3 secs

     total energy              =     116.62657458 Ry
     Harris-Foulkes estimate   =   -1271.38830610 Ry
     estimated scf accuracy    <      39.84352656 Ry

     iteration # 89     ecut=    30.00 Ry     beta=0.70
     Davidson diagonalization with overlap
     ethr =  1.00E-02,  avg # of iterations =  8.0

     negative rho (up, down):  2.417E-02 0.000E+00

     total cpu time spent up to now is       12.4 secs

     total energy              =     -43.21213058 Ry
     Harris-Foulkes estimate   =     -45.87756783 Ry
     estimated scf accuracy    <      22.05467908 Ry

     iteration # 90     ecut=    30.00 Ry     beta=0.70
     Davidson diagonalization with overlap
     ethr =  1.00E-02,  avg # of iterations =  5.0

     negative rho (up, down):  4.163E-02 0.000E+00

     total cpu time spent up to now is       12.5 secs

     total energy              =     -42.69499568 Ry
     Harris-Foulkes estimate   =     -43.34568521 Ry
     estimated scf accuracy    <      19.20034319 Ry

     iteration # 91     ecut=    30.00 Ry     beta=0.70
     Davidson diagonalization with overlap
     ethr =  1.00E-02,  avg # of iterations =  8.0

     negative rho (up, down):  6.492E-02 0.000E+00

     total cpu time spent up to now is       12.5 secs

     total energy              =     173.67852929 Ry
     Harris-Foulkes estimate   =   -2621.22459161 Ry
     estimated scf accuracy    <      38.25996298 Ry

     iteration # 92     ecut=    30.00 Ry     beta=0.70
     Davidson diagonalization with overlap
     ethr =  1.00E-02,  avg # of iterations =  8.0

     negative rho (up, down):  7.799E-02 0.000E+00

     total cpu time spent up to now is       12.6 secs

     total energy              =      74.09427250 Ry
     Harris-Foulkes estimate   =    -233.60714175 Ry
     estimated scf accuracy    <      37.77212801 Ry

     iteration # 93     ecut=    30.00 Ry     beta=0.70
     Davidson diagonalization with overlap
     ethr =  1.00E-02,  avg # of iterations =  8.0

     negative rho (up, down):  1.178E-01 0.000E+00

     total cpu time spent up to now is       12.7 secs

     total energy              =    -112.68438125 Ry
     Harris-Foulkes estimate   =    -183.72929725 Ry
     estimated scf accuracy    <      42.19542036 Ry

     iteration # 94     ecut=    30.00 Ry     beta=0.70
     Davidson diagonalization with overlap
     ethr =  1.00E-02,  avg # of iterations =  7.0

     negative rho (up, down):  7.589E-02 0.000E+00

     total cpu time spent up to now is       12.8 secs

     total energy              =      97.95678802 Ry
     Harris-Foulkes estimate   =   -1166.45459666 Ry
     estimated scf accuracy    <      46.12595021 Ry

     iteration # 95     ecut=    30.00 Ry     beta=0.70
     Davidson diagonalization with overlap
     ethr =  1.00E-02,  avg # of iterations = 12.0

     negative rho (up, down):  5.721E-02 0.000E+00

     total cpu time spent up to now is       12.9 secs

     total energy              =      76.85049616 Ry
     Harris-Foulkes estimate   =    -168.72859943 Ry
     estimated scf accuracy    <      34.57596560 Ry

     iteration # 96     ecut=    30.00 Ry     beta=0.70
     Davidson diagonalization with overlap
     ethr =  1.00E-02,  avg # of iterations =  7.0

     negative rho (up, down):  1.358E-01 0.000E+00

     total cpu time spent up to now is       13.0 secs

     total energy              =      77.62841192 Ry
     Harris-Foulkes estimate   =    -189.84919519 Ry
     estimated scf accuracy    <      21.21897361 Ry

     iteration # 97     ecut=    30.00 Ry     beta=0.70
     Davidson diagonalization with overlap
     ethr =  1.00E-02,  avg # of iterations =  6.0

     negative rho (up, down):  1.132E-01 0.000E+00

     total cpu time spent up to now is       13.1 secs

     total energy              =      12.95035269 Ry
     Harris-Foulkes estimate   =    -105.59928727 Ry
     estimated scf accuracy    <      25.01581363 Ry

     iteration # 98     ecut=    30.00 Ry     beta=0.70
     Davidson diagonalization with overlap
     ethr =  1.00E-02,  avg # of iterations =  6.0

     negative rho (up, down):  2.995E-01 0.000E+00

     total cpu time spent up to now is       13.1 secs

     total energy              =      94.62793468 Ry
     Harris-Foulkes estimate   =    -553.63361682 Ry
     estimated scf accuracy    <      39.01617358 Ry

     iteration # 99     ecut=    30.00 Ry     beta=0.70
     Davidson diagonalization with overlap
     ethr =  1.00E-02,  avg # of iterations =  9.0

     negative rho (up, down):  8.273E-01 0.000E+00

     total cpu time spent up to now is       13.2 secs

     total energy              =       8.59600108 Ry
     Harris-Foulkes estimate   =    -514.24182066 Ry
     estimated scf accuracy    <      18.09996093 Ry

     iteration #100     ecut=    30.00 Ry     beta=0.70
     Davidson diagonalization with overlap
     ethr =  1.00E-02,  avg # of iterations =  7.0

     negative rho (up, down):  9.046E-01 0.000E+00

     total cpu time spent up to now is       13.3 secs

     total energy              =      34.81147641 Ry
     Harris-Foulkes estimate   =   -1731.07059741 Ry
     estimated scf accuracy    <      21.34614433 Ry

     End of self-consistent calculation

     convergence NOT achieved after 100 iterations: stopping

     Writing output data file pwscf.save
 
     init_run     :      0.17s CPU      0.19s WALL (       1 calls)
     electrons    :     10.61s CPU     12.34s WALL (       3 calls)
     update_pot   :      0.32s CPU      0.42s WALL (       2 calls)
     forces       :      0.09s CPU      0.09s WALL (       2 calls)

     Called by init_run:
     wfcinit      :      0.01s CPU      0.02s WALL (       1 calls)
     potinit      :      0.05s CPU      0.05s WALL (       1 calls)

     Called by electrons:
     c_bands      :      6.20s CPU      6.50s WALL (     166 calls)
     sum_band     :      0.85s CPU      0.89s WALL (     166 calls)
     v_of_rho     :      2.07s CPU      2.15s WALL (     169 calls)
     mix_rho      :      1.28s CPU      2.32s WALL (     166 calls)

     Called by c_bands:
     init_us_2    :      0.02s CPU      0.03s WALL (     333 calls)
     cegterg      :      6.16s CPU      6.40s WALL (     166 calls)

     Called by sum_band:

     Called by *egterg:
     h_psi        :      5.16s CPU      5.29s WALL (    1061 calls)
     g_psi        :      0.06s CPU      0.06s WALL (     894 calls)
     cdiaghg      :      0.39s CPU      0.45s WALL (    1058 calls)

     Called by h_psi:
     h_psi:pot    :      5.13s CPU      5.26s WALL (    1061 calls)
     h_psi:calbec :      0.04s CPU      0.04s WALL (    1061 calls)
     vloc_psi     :      5.06s CPU      5.19s WALL (    1061 calls)
     add_vuspsi   :      0.01s CPU      0.01s WALL (    1061 calls)

     General routines
     calbec       :      0.04s CPU      0.04s WALL (    1070 calls)
     fft          :      1.19s CPU      1.24s WALL (    1863 calls)
     fftw         :      5.17s CPU      5.32s WALL (   12938 calls)
     davcio       :      0.19s CPU      0.95s WALL (    3066 calls)
 
     Parallel routines
     fft_scatter  :      1.82s CPU      1.93s WALL (   14801 calls)
 
     PWSCF        :    11.41s CPU        13.46s WALL

 
   This run was terminated on:  15:18:13  13Feb2018            

=------------------------------------------------------------------------------=
   JOB DONE.
=------------------------------------------------------------------------------=
