
     Program PWSCF v.6.0 (svn rev. 13079) starts on 13Feb2018 at 15:21:52 

     This program is part of the open-source Quantum ESPRESSO suite
     for quantum simulation of materials; please cite
         "P. Giannozzi et al., J. Phys.:Condens. Matter 21 395502 (2009);
          URL http://www.quantum-espresso.org", 
     in publications or presentations arising from this work. More details at
     http://www.quantum-espresso.org/quote

     Parallel version (MPI), running on    28 processors
     R & G space division:  proc/nbgrp/npool/nimage =      28
     Reading input from inputs/MD-H2O-round1/442.in

     Current dimensions of program PWSCF are:
     Max number of different atomic species (ntypx) = 10
     Max number of k-points (npk) =  40000
     Max angular momentum in pseudopotentials (lmaxx) =  3

     Subspace diagonalization in iterative solution of the eigenvalue problem:
     a serial algorithm will be used

 
     Parallelization info
     --------------------
     sticks:   dense  smooth     PW     G-vecs:    dense   smooth      PW
     Min         136     136     33                 6338     6338     787
     Max         137     137     34                 6341     6341     792
     Sum        3809    3809    949               177509   177509   22119
 


     bravais-lattice index     =            1
     lattice parameter (alat)  =      20.0000  a.u.
     unit-cell volume          =    8000.0000 (a.u.)^3
     number of atoms/cell      =            3
     number of atomic types    =            2
     number of electrons       =         8.00
     number of Kohn-Sham states=            8
     kinetic-energy cutoff     =      30.0000  Ry
     charge density cutoff     =     120.0000  Ry
     convergence threshold     =      1.0E-08
     mixing beta               =       0.7000
     number of iterations used =            8  plain     mixing
     Exchange-correlation      = BLYP ( 1  3  1  3 0 0)
     nstep                     =         5000


     celldm(1)=  20.000000  celldm(2)=   0.000000  celldm(3)=   0.000000
     celldm(4)=   0.000000  celldm(5)=   0.000000  celldm(6)=   0.000000

     crystal axes: (cart. coord. in units of alat)
               a(1) = (   1.000000   0.000000   0.000000 )  
               a(2) = (   0.000000   1.000000   0.000000 )  
               a(3) = (   0.000000   0.000000   1.000000 )  

     reciprocal axes: (cart. coord. in units 2 pi/alat)
               b(1) = (  1.000000  0.000000  0.000000 )  
               b(2) = (  0.000000  1.000000  0.000000 )  
               b(3) = (  0.000000  0.000000  1.000000 )  


     PseudoPot. # 1 for  H read from file:
     ./H.blyp-hgh.UPF
     MD5 check sum: c576e69559cde411e611be972c763230
     Pseudo is Norm-conserving, Zval =  1.0
     Generated in analytical, separable form
     Using radial grid of  929 points,  0 beta functions with: 

     PseudoPot. # 2 for  O read from file:
     ./O.blyp-hgh.UPF
     MD5 check sum: d0b7156309aa9befef28faac7bc56342
     Pseudo is Norm-conserving, Zval =  6.0
     Generated in analytical, separable form
     Using radial grid of 1095 points,  1 beta functions with: 
                l(1) =   0

     atomic species   valence    mass     pseudopotential
        H              1.00     1.01000      H( 1.00)
        O              6.00    16.00000      O( 1.00)

     No symmetry found



   Cartesian axes

     site n.     atom                  positions (alat units)
         1           O   tau(   1) = (   0.7874034   0.2257158   0.8687563  )
         2           H   tau(   2) = (   0.6571010   0.9642161   0.0224689  )
         3           H   tau(   3) = (   0.7417545   0.2478569  -0.0685168  )

     number of k points=     1  Marzari-Vanderbilt smearing, width (Ry)=  0.0250
                       cart. coord. in units 2pi/alat
        k(    1) = (   0.0000000   0.0000000   0.0000000), wk =   2.0000000

     Dense  grid:   177509 G-vectors     FFT dimensions: (  72,  72,  72)

     Estimated max dynamical RAM per process >       6.09Mb

     Estimated total allocated dynamical RAM >     170.64Mb

     Initial potential from superposition of free atoms
     Check: negative starting charge=   -0.348068

     starting charge    7.99998, renormalised to    8.00000

     negative rho (up, down):  3.481E-01 0.000E+00
     Starting wfc are    6 randomized atomic wfcs +    2 random wfc

     total cpu time spent up to now is        0.4 secs

     per-process dynamical memory:    18.8 Mb

     Self-consistent Calculation

     iteration #  1     ecut=    30.00 Ry     beta=0.70
     Davidson diagonalization with overlap
     ethr =  1.00E-02,  avg # of iterations =  8.0

     negative rho (up, down):  9.422E-02 0.000E+00

     total cpu time spent up to now is        0.4 secs

     total energy              =     -31.67593240 Ry
     Harris-Foulkes estimate   =     -32.07865797 Ry
     estimated scf accuracy    <       0.41185093 Ry

     iteration #  2     ecut=    30.00 Ry     beta=0.70
     Davidson diagonalization with overlap
     ethr =  5.15E-03,  avg # of iterations =  2.0

     negative rho (up, down):  7.437E-02 0.000E+00

     total cpu time spent up to now is        0.5 secs

     total energy              =     -31.60236963 Ry
     Harris-Foulkes estimate   =     -32.04256701 Ry
     estimated scf accuracy    <       1.59571947 Ry

     iteration #  3     ecut=    30.00 Ry     beta=0.70
     Davidson diagonalization with overlap
     ethr =  5.15E-03,  avg # of iterations =  1.0

     negative rho (up, down):  3.183E-02 0.000E+00

     total cpu time spent up to now is        0.5 secs

     total energy              =     -31.75962625 Ry
     Harris-Foulkes estimate   =     -31.93595298 Ry
     estimated scf accuracy    <       1.10444547 Ry

     iteration #  4     ecut=    30.00 Ry     beta=0.70
     Davidson diagonalization with overlap
     ethr =  5.15E-03,  avg # of iterations =  1.0

     negative rho (up, down):  1.358E-02 0.000E+00

     total cpu time spent up to now is        0.6 secs

     total energy              =     -31.74795845 Ry
     Harris-Foulkes estimate   =     -31.84330085 Ry
     estimated scf accuracy    <       0.91799024 Ry

     iteration #  5     ecut=    30.00 Ry     beta=0.70
     Davidson diagonalization with overlap
     ethr =  5.15E-03,  avg # of iterations =  1.0

     negative rho (up, down):  1.646E-03 0.000E+00

     total cpu time spent up to now is        0.6 secs

     total energy              =     -31.87103865 Ry
     Harris-Foulkes estimate   =     -31.90509172 Ry
     estimated scf accuracy    <       0.80658496 Ry

     iteration #  6     ecut=    30.00 Ry     beta=0.70
     Davidson diagonalization with overlap
     ethr =  5.15E-03,  avg # of iterations =  1.0

     negative rho (up, down):  8.311E-04 0.000E+00

     total cpu time spent up to now is        0.7 secs

     total energy              =     -31.82554787 Ry
     Harris-Foulkes estimate   =     -31.87311794 Ry
     estimated scf accuracy    <       0.56884577 Ry

     iteration #  7     ecut=    30.00 Ry     beta=0.70
     Davidson diagonalization with overlap
     ethr =  5.15E-03,  avg # of iterations =  1.0

     negative rho (up, down):  2.622E-04 0.000E+00

     total cpu time spent up to now is        0.7 secs

     total energy              =     -31.85945069 Ry
     Harris-Foulkes estimate   =     -31.86712602 Ry
     estimated scf accuracy    <       0.66672896 Ry

     iteration #  8     ecut=    30.00 Ry     beta=0.70
     Davidson diagonalization with overlap
     ethr =  5.15E-03,  avg # of iterations =  1.0

     negative rho (up, down):  6.737E-05 0.000E+00

     total cpu time spent up to now is        0.8 secs

     total energy              =     -31.85579625 Ry
     Harris-Foulkes estimate   =     -31.86063141 Ry
     estimated scf accuracy    <       0.30795012 Ry

     iteration #  9     ecut=    30.00 Ry     beta=0.70
     Davidson diagonalization with overlap
     ethr =  3.85E-03,  avg # of iterations =  1.0

     negative rho (up, down):  8.064E-07 0.000E+00

     total cpu time spent up to now is        0.8 secs

     total energy              =     -31.85747607 Ry
     Harris-Foulkes estimate   =     -31.85699494 Ry
     estimated scf accuracy    <       0.07562140 Ry

     iteration # 10     ecut=    30.00 Ry     beta=0.70
     Davidson diagonalization with overlap
     ethr =  9.45E-04,  avg # of iterations =  1.0

     negative rho (up, down):  1.872E-08 0.000E+00

     total cpu time spent up to now is        0.9 secs

     total energy              =     -31.85291888 Ry
     Harris-Foulkes estimate   =     -31.85752548 Ry
     estimated scf accuracy    <       0.10967174 Ry

     iteration # 11     ecut=    30.00 Ry     beta=0.70
     Davidson diagonalization with overlap
     ethr =  9.45E-04,  avg # of iterations =  1.0

     total cpu time spent up to now is        0.9 secs

     total energy              =     -31.85591281 Ry
     Harris-Foulkes estimate   =     -31.85606566 Ry
     estimated scf accuracy    <       0.01362455 Ry

     iteration # 12     ecut=    30.00 Ry     beta=0.70
     Davidson diagonalization with overlap
     ethr =  1.70E-04,  avg # of iterations =  7.0

     total cpu time spent up to now is        1.0 secs

     total energy              =     -31.85595706 Ry
     Harris-Foulkes estimate   =     -31.85593877 Ry
     estimated scf accuracy    <       0.00600615 Ry

     iteration # 13     ecut=    30.00 Ry     beta=0.70
     Davidson diagonalization with overlap
     ethr =  7.51E-05,  avg # of iterations =  3.0

     total cpu time spent up to now is        1.0 secs

     total energy              =     -31.85577003 Ry
     Harris-Foulkes estimate   =     -31.85595792 Ry
     estimated scf accuracy    <       0.00715493 Ry

     iteration # 14     ecut=    30.00 Ry     beta=0.70
     Davidson diagonalization with overlap
     ethr =  7.51E-05,  avg # of iterations =  1.0

     total cpu time spent up to now is        1.1 secs

     total energy              =     -31.85583790 Ry
     Harris-Foulkes estimate   =     -31.85584475 Ry
     estimated scf accuracy    <       0.00026043 Ry

     iteration # 15     ecut=    30.00 Ry     beta=0.70
     Davidson diagonalization with overlap
     ethr =  3.26E-06,  avg # of iterations =  8.0

     total cpu time spent up to now is        1.1 secs

     total energy              =     -31.85584070 Ry
     Harris-Foulkes estimate   =     -31.85584075 Ry
     estimated scf accuracy    <       0.00000791 Ry

     iteration # 16     ecut=    30.00 Ry     beta=0.70
     Davidson diagonalization with overlap
     ethr =  9.88E-08,  avg # of iterations =  1.0

     total cpu time spent up to now is        1.2 secs

     total energy              =     -31.85584086 Ry
     Harris-Foulkes estimate   =     -31.85584086 Ry
     estimated scf accuracy    <       0.00000006 Ry

     iteration # 17     ecut=    30.00 Ry     beta=0.70
     Davidson diagonalization with overlap
     ethr =  7.32E-10,  avg # of iterations =  1.0

     total cpu time spent up to now is        1.2 secs

     End of self-consistent calculation

          k = 0.0000 0.0000 0.0000 ( 22119 PWs)   bands (ev):

   -26.2056 -11.1465  -7.3603  -7.2331  -6.9702  -0.3903   0.4366   0.8053

     the Fermi energy is    -7.0596 ev

!    total energy              =     -31.85584081 Ry
     Harris-Foulkes estimate   =     -31.85584086 Ry
     estimated scf accuracy    <          8.8E-09 Ry

     convergence has been achieved in  17 iterations

     Forces acting on atoms (Ry/au):

     atom    1 type  2   force =     0.32914438   -0.17489891   -0.45555222
     atom    2 type  1   force =     0.00558865    0.00899460   -0.00599072
     atom    3 type  1   force =    -0.33473303    0.16590431    0.46154295

     Total force =     0.836178     Total SCF correction =     0.000243

     Molecular Dynamics Calculation

     Starting temperature  =  1000.00 K

     temperature is controlled by Andersen thermostat
     Collision frequency = 1.0000/timestep
     mass H                =     1.01
     mass O                =    16.00
     Time step             =   100.00 a.u.,  4.8378 femto-seconds

     Entering Dynamics:    iteration =     1
                           time      =   0.0048 pico-seconds


     Andersen thermostat:    3 collisions

ATOMIC_POSITIONS (bohr)
O       15.887220357   4.481554426  17.244642799
H       12.967588952  19.139904557   0.353853689
H       12.805110427   5.620549679   0.792234073


     kinetic energy (Ekin) =     0.01548119 Ry
     temperature           =   814.76129293 K 
     Ekin + Etot (const)   =   -31.84035962 Ry

     Linear momentum :    0.0000000000    0.0000000000   -0.0000000000

     Writing output data file pwscf.save
     Check: negative starting charge=   -0.348068
     NEW-OLD atomic charge density approx. for the potential
     Check: negative starting charge=   -0.338494

     negative rho (up, down):  3.804E-01 0.000E+00

     total cpu time spent up to now is        1.6 secs

     per-process dynamical memory:    20.4 Mb

     Self-consistent Calculation

     iteration #  1     ecut=    30.00 Ry     beta=0.70
     Davidson diagonalization with overlap
     c_bands:  1 eigenvalues not converged
     ethr =  1.00E-06,  avg # of iterations = 20.0

     negative rho (up, down):  9.232E-02 0.000E+00

     total cpu time spent up to now is        1.8 secs

     total energy              =     -28.84595488 Ry
     Harris-Foulkes estimate   =     -32.21845603 Ry
     estimated scf accuracy    <       2.65704529 Ry

     iteration #  2     ecut=    30.00 Ry     beta=0.70
     Davidson diagonalization with overlap
     ethr =  1.00E-02,  avg # of iterations =  4.0

     negative rho (up, down):  6.959E-02 0.000E+00

     total cpu time spent up to now is        1.9 secs

     total energy              =     -31.95291663 Ry
     Harris-Foulkes estimate   =     -35.49462192 Ry
     estimated scf accuracy    <       9.42913142 Ry

     iteration #  3     ecut=    30.00 Ry     beta=0.70
     Davidson diagonalization with overlap
     ethr =  1.00E-02,  avg # of iterations =  2.0

     negative rho (up, down):  6.063E-02 0.000E+00

     total cpu time spent up to now is        1.9 secs

     total energy              =     -31.72838202 Ry
     Harris-Foulkes estimate   =     -32.23217399 Ry
     estimated scf accuracy    <       3.47840476 Ry

     iteration #  4     ecut=    30.00 Ry     beta=0.70
     Davidson diagonalization with overlap
     ethr =  1.00E-02,  avg # of iterations =  1.0

     negative rho (up, down):  5.372E-02 0.000E+00

     total cpu time spent up to now is        2.0 secs

     total energy              =     -31.69282712 Ry
     Harris-Foulkes estimate   =     -31.75764907 Ry
     estimated scf accuracy    <       1.85073934 Ry

     iteration #  5     ecut=    30.00 Ry     beta=0.70
     Davidson diagonalization with overlap
     ethr =  1.00E-02,  avg # of iterations =  1.0

     negative rho (up, down):  1.558E-02 0.000E+00

     total cpu time spent up to now is        2.0 secs

     total energy              =     -30.84017176 Ry
     Harris-Foulkes estimate   =     -31.69766919 Ry
     estimated scf accuracy    <       2.12088044 Ry

     iteration #  6     ecut=    30.00 Ry     beta=0.70
     Davidson diagonalization with overlap
     ethr =  1.00E-02,  avg # of iterations =  4.0

     negative rho (up, down):  1.273E-02 0.000E+00

     total cpu time spent up to now is        2.1 secs

     total energy              =     -32.42314662 Ry
     Harris-Foulkes estimate   =     -32.71623445 Ry
     estimated scf accuracy    <       5.23307502 Ry

     iteration #  7     ecut=    30.00 Ry     beta=0.70
     Davidson diagonalization with overlap
     ethr =  1.00E-02,  avg # of iterations =  1.0

     negative rho (up, down):  1.323E-02 0.000E+00

     total cpu time spent up to now is        2.1 secs

     total energy              =     -32.24659424 Ry
     Harris-Foulkes estimate   =     -32.42810951 Ry
     estimated scf accuracy    <       4.63821448 Ry

     iteration #  8     ecut=    30.00 Ry     beta=0.70
     Davidson diagonalization with overlap
     ethr =  1.00E-02,  avg # of iterations =  1.0

     negative rho (up, down):  1.332E-02 0.000E+00

     total cpu time spent up to now is        2.2 secs

     total energy              =     -32.30556171 Ry
     Harris-Foulkes estimate   =     -32.24836468 Ry
     estimated scf accuracy    <       4.23453915 Ry

     iteration #  9     ecut=    30.00 Ry     beta=0.70
     Davidson diagonalization with overlap
     ethr =  1.00E-02,  avg # of iterations =  1.0

     negative rho (up, down):  8.355E-03 0.000E+00

     total cpu time spent up to now is        2.2 secs

     total energy              =     -31.74167372 Ry
     Harris-Foulkes estimate   =     -32.30579981 Ry
     estimated scf accuracy    <       4.36661931 Ry

     iteration # 10     ecut=    30.00 Ry     beta=0.70
     Davidson diagonalization with overlap
     ethr =  1.00E-02,  avg # of iterations =  1.0

     negative rho (up, down):  4.418E-03 0.000E+00

     total cpu time spent up to now is        2.3 secs

     total energy              =     -31.90161096 Ry
     Harris-Foulkes estimate   =     -31.78671471 Ry
     estimated scf accuracy    <       1.96062610 Ry

     iteration # 11     ecut=    30.00 Ry     beta=0.70
     Davidson diagonalization with overlap
     ethr =  1.00E-02,  avg # of iterations =  1.0

     negative rho (up, down):  5.839E-03 0.000E+00

     total cpu time spent up to now is        2.3 secs

     total energy              =     -31.01970120 Ry
     Harris-Foulkes estimate   =     -31.91797704 Ry
     estimated scf accuracy    <       3.07813319 Ry

     iteration # 12     ecut=    30.00 Ry     beta=0.70
     Davidson diagonalization with overlap
     ethr =  1.00E-02,  avg # of iterations =  2.0

     negative rho (up, down):  3.355E-03 0.000E+00

     total cpu time spent up to now is        2.4 secs

     total energy              =     -32.00857587 Ry
     Harris-Foulkes estimate   =     -31.99747438 Ry
     estimated scf accuracy    <       2.82360788 Ry

     iteration # 13     ecut=    30.00 Ry     beta=0.70
     Davidson diagonalization with overlap
     ethr =  1.00E-02,  avg # of iterations =  1.0

     negative rho (up, down):  2.429E-03 0.000E+00

     total cpu time spent up to now is        2.4 secs

     total energy              =     -31.70472499 Ry
     Harris-Foulkes estimate   =     -32.00985065 Ry
     estimated scf accuracy    <       2.76151980 Ry

     iteration # 14     ecut=    30.00 Ry     beta=0.70
     Davidson diagonalization with overlap
     ethr =  1.00E-02,  avg # of iterations =  1.0

     negative rho (up, down):  2.865E-03 0.000E+00

     total cpu time spent up to now is        2.5 secs

     total energy              =     -31.76062743 Ry
     Harris-Foulkes estimate   =     -31.72116067 Ry
     estimated scf accuracy    <       1.69134738 Ry

     iteration # 15     ecut=    30.00 Ry     beta=0.70
     Davidson diagonalization with overlap
     ethr =  1.00E-02,  avg # of iterations =  1.0

     negative rho (up, down):  1.481E-03 0.000E+00

     total cpu time spent up to now is        2.5 secs

     total energy              =     -31.32738185 Ry
     Harris-Foulkes estimate   =     -31.76173453 Ry
     estimated scf accuracy    <       1.91165792 Ry

     iteration # 16     ecut=    30.00 Ry     beta=0.70
     Davidson diagonalization with overlap
     ethr =  1.00E-02,  avg # of iterations =  1.0

     negative rho (up, down):  4.946E-04 0.000E+00

     total cpu time spent up to now is        2.6 secs

     total energy              =     -31.60866093 Ry
     Harris-Foulkes estimate   =     -31.78208100 Ry
     estimated scf accuracy    <       2.76344278 Ry

     iteration # 17     ecut=    30.00 Ry     beta=0.70
     Davidson diagonalization with overlap
     ethr =  1.00E-02,  avg # of iterations =  1.0

     negative rho (up, down):  1.965E-04 0.000E+00

     total cpu time spent up to now is        2.6 secs

     total energy              =     -31.45443521 Ry
     Harris-Foulkes estimate   =     -31.62081039 Ry
     estimated scf accuracy    <       1.83676499 Ry

     iteration # 18     ecut=    30.00 Ry     beta=0.70
     Davidson diagonalization with overlap
     ethr =  1.00E-02,  avg # of iterations =  1.0

     negative rho (up, down):  6.330E-05 0.000E+00

     total cpu time spent up to now is        2.7 secs

     total energy              =     -31.67509443 Ry
     Harris-Foulkes estimate   =     -31.62274754 Ry
     estimated scf accuracy    <       0.96651012 Ry

     iteration # 19     ecut=    30.00 Ry     beta=0.70
     Davidson diagonalization with overlap
     ethr =  1.00E-02,  avg # of iterations =  1.0

     negative rho (up, down):  1.456E-04 0.000E+00

     total cpu time spent up to now is        2.7 secs

     total energy              =     -31.68744658 Ry
     Harris-Foulkes estimate   =     -31.68002600 Ry
     estimated scf accuracy    <       1.40858017 Ry

     iteration # 20     ecut=    30.00 Ry     beta=0.70
     Davidson diagonalization with overlap
     ethr =  1.00E-02,  avg # of iterations =  1.0

     negative rho (up, down):  5.578E-04 0.000E+00

     total cpu time spent up to now is        2.8 secs

     total energy              =     -31.67876514 Ry
     Harris-Foulkes estimate   =     -31.68769351 Ry
     estimated scf accuracy    <       1.49344923 Ry

     iteration # 21     ecut=    30.00 Ry     beta=0.70
     Davidson diagonalization with overlap
     ethr =  1.00E-02,  avg # of iterations =  1.0

     negative rho (up, down):  2.202E-04 0.000E+00

     total cpu time spent up to now is        2.8 secs

     total energy              =     -31.68137690 Ry
     Harris-Foulkes estimate   =     -31.67997050 Ry
     estimated scf accuracy    <       1.30745966 Ry

     iteration # 22     ecut=    30.00 Ry     beta=0.70
     Davidson diagonalization with overlap
     ethr =  1.00E-02,  avg # of iterations =  1.0

     negative rho (up, down):  2.105E-04 0.000E+00

     total cpu time spent up to now is        2.9 secs

     total energy              =     -31.63428379 Ry
     Harris-Foulkes estimate   =     -31.68141100 Ry
     estimated scf accuracy    <       1.32326240 Ry

     iteration # 23     ecut=    30.00 Ry     beta=0.70
     Davidson diagonalization with overlap
     ethr =  1.00E-02,  avg # of iterations =  1.0

     negative rho (up, down):  1.878E-04 0.000E+00

     total cpu time spent up to now is        2.9 secs

     total energy              =     -31.63668283 Ry
     Harris-Foulkes estimate   =     -31.63736039 Ry
     estimated scf accuracy    <       0.94505209 Ry

     iteration # 24     ecut=    30.00 Ry     beta=0.70
     Davidson diagonalization with overlap
     ethr =  1.00E-02,  avg # of iterations =  1.0

     negative rho (up, down):  1.434E-06 0.000E+00

     total cpu time spent up to now is        3.0 secs

     total energy              =     -31.61814663 Ry
     Harris-Foulkes estimate   =     -31.63686774 Ry
     estimated scf accuracy    <       1.00669620 Ry

     iteration # 25     ecut=    30.00 Ry     beta=0.70
     Davidson diagonalization with overlap
     ethr =  1.00E-02,  avg # of iterations =  1.0

     negative rho (up, down):  4.605E-07 0.000E+00

     total cpu time spent up to now is        3.0 secs

     total energy              =     -31.61822842 Ry
     Harris-Foulkes estimate   =     -31.61849316 Ry
     estimated scf accuracy    <       0.88452522 Ry

     iteration # 26     ecut=    30.00 Ry     beta=0.70
     Davidson diagonalization with overlap
     ethr =  1.00E-02,  avg # of iterations =  1.0

     negative rho (up, down):  5.887E-03 0.000E+00

     total cpu time spent up to now is        3.1 secs

     total energy              =     -31.28934817 Ry
     Harris-Foulkes estimate   =     -31.61852767 Ry
     estimated scf accuracy    <       0.80898642 Ry

     iteration # 27     ecut=    30.00 Ry     beta=0.70
     Davidson diagonalization with overlap
     ethr =  1.00E-02,  avg # of iterations =  2.0

     negative rho (up, down):  9.742E-06 0.000E+00

     total cpu time spent up to now is        3.1 secs

     total energy              =     -31.74103303 Ry
     Harris-Foulkes estimate   =     -32.11862126 Ry
     estimated scf accuracy    <       1.92456183 Ry

     iteration # 28     ecut=    30.00 Ry     beta=0.70
     Davidson diagonalization with overlap
     ethr =  1.00E-02,  avg # of iterations =  1.0

     negative rho (up, down):  2.366E-07 0.000E+00

     total cpu time spent up to now is        3.2 secs

     total energy              =     -31.61778715 Ry
     Harris-Foulkes estimate   =     -31.76117092 Ry
     estimated scf accuracy    <       1.37970760 Ry

     iteration # 29     ecut=    30.00 Ry     beta=0.70
     Davidson diagonalization with overlap
     ethr =  1.00E-02,  avg # of iterations =  1.0

     total cpu time spent up to now is        3.2 secs

     total energy              =     -31.55959546 Ry
     Harris-Foulkes estimate   =     -31.62228970 Ry
     estimated scf accuracy    <       1.21448436 Ry

     iteration # 30     ecut=    30.00 Ry     beta=0.70
     Davidson diagonalization with overlap
     ethr =  1.00E-02,  avg # of iterations =  1.0

     total cpu time spent up to now is        3.3 secs

     total energy              =     -31.57164822 Ry
     Harris-Foulkes estimate   =     -31.57067987 Ry
     estimated scf accuracy    <       0.05987781 Ry

     iteration # 31     ecut=    30.00 Ry     beta=0.70
     Davidson diagonalization with overlap
     ethr =  7.48E-04,  avg # of iterations =  1.0

     negative rho (up, down):  1.320E-06 0.000E+00

     total cpu time spent up to now is        3.3 secs

     total energy              =     -31.57234182 Ry
     Harris-Foulkes estimate   =     -31.57194942 Ry
     estimated scf accuracy    <       0.14371177 Ry

     iteration # 32     ecut=    30.00 Ry     beta=0.70
     Davidson diagonalization with overlap
     ethr =  7.48E-04,  avg # of iterations =  1.0

     negative rho (up, down):  3.908E-06 0.000E+00

     total cpu time spent up to now is        3.4 secs

     total energy              =     -31.55822030 Ry
     Harris-Foulkes estimate   =     -31.57238088 Ry
     estimated scf accuracy    <       0.17017999 Ry

     iteration # 33     ecut=    30.00 Ry     beta=0.70
     Davidson diagonalization with overlap
     ethr =  7.48E-04,  avg # of iterations =  1.0

     negative rho (up, down):  4.459E-07 0.000E+00

     total cpu time spent up to now is        3.4 secs

     total energy              =     -31.57320709 Ry
     Harris-Foulkes estimate   =     -31.57671027 Ry
     estimated scf accuracy    <       0.33581353 Ry

     iteration # 34     ecut=    30.00 Ry     beta=0.70
     Davidson diagonalization with overlap
     ethr =  7.48E-04,  avg # of iterations =  1.0

     total cpu time spent up to now is        3.4 secs

     total energy              =     -31.56672172 Ry
     Harris-Foulkes estimate   =     -31.57356700 Ry
     estimated scf accuracy    <       0.20542655 Ry

     iteration # 35     ecut=    30.00 Ry     beta=0.70
     Davidson diagonalization with overlap
     ethr =  7.48E-04,  avg # of iterations =  1.0

     total cpu time spent up to now is        3.5 secs

     total energy              =     -31.56971711 Ry
     Harris-Foulkes estimate   =     -31.56971548 Ry
     estimated scf accuracy    <       0.00090176 Ry

     iteration # 36     ecut=    30.00 Ry     beta=0.70
     Davidson diagonalization with overlap
     ethr =  1.13E-05,  avg # of iterations =  6.0

     total cpu time spent up to now is        3.6 secs

     total energy              =     -31.56980996 Ry
     Harris-Foulkes estimate   =     -31.56971827 Ry
     estimated scf accuracy    <       0.00087522 Ry

     iteration # 37     ecut=    30.00 Ry     beta=0.70
     Davidson diagonalization with overlap
     ethr =  1.09E-05,  avg # of iterations =  1.0

     total cpu time spent up to now is        3.6 secs

     total energy              =     -31.56965437 Ry
     Harris-Foulkes estimate   =     -31.56994706 Ry
     estimated scf accuracy    <       0.01478005 Ry

     iteration # 38     ecut=    30.00 Ry     beta=0.70
     Davidson diagonalization with overlap
     ethr =  1.09E-05,  avg # of iterations =  1.0

     total cpu time spent up to now is        3.6 secs

     total energy              =     -31.56966679 Ry
     Harris-Foulkes estimate   =     -31.56974248 Ry
     estimated scf accuracy    <       0.00219174 Ry

     iteration # 39     ecut=    30.00 Ry     beta=0.70
     Davidson diagonalization with overlap
     ethr =  1.09E-05,  avg # of iterations =  1.0

     total cpu time spent up to now is        3.7 secs

     total energy              =     -31.56970732 Ry
     Harris-Foulkes estimate   =     -31.56970827 Ry
     estimated scf accuracy    <       0.00002744 Ry

     iteration # 40     ecut=    30.00 Ry     beta=0.70
     Davidson diagonalization with overlap
     ethr =  3.43E-07,  avg # of iterations =  1.0

     total cpu time spent up to now is        3.7 secs

     total energy              =     -31.56970784 Ry
     Harris-Foulkes estimate   =     -31.56970775 Ry
     estimated scf accuracy    <       0.00000011 Ry

     iteration # 41     ecut=    30.00 Ry     beta=0.70
     Davidson diagonalization with overlap
     ethr =  1.41E-09,  avg # of iterations =  1.0

     total cpu time spent up to now is        3.8 secs

     total energy              =     -31.56970790 Ry
     Harris-Foulkes estimate   =     -31.56970792 Ry
     estimated scf accuracy    <       0.00000504 Ry

     iteration # 42     ecut=    30.00 Ry     beta=0.70
     Davidson diagonalization with overlap
     ethr =  1.41E-09,  avg # of iterations =  1.0

     total cpu time spent up to now is        3.8 secs

     total energy              =     -31.56970783 Ry
     Harris-Foulkes estimate   =     -31.56970791 Ry
     estimated scf accuracy    <       0.00000241 Ry

     iteration # 43     ecut=    30.00 Ry     beta=0.70
     Davidson diagonalization with overlap
     ethr =  1.41E-09,  avg # of iterations =  1.0

     total cpu time spent up to now is        3.9 secs

     total energy              =     -31.56970787 Ry
     Harris-Foulkes estimate   =     -31.56970788 Ry
     estimated scf accuracy    <       0.00000005 Ry

     iteration # 44     ecut=    30.00 Ry     beta=0.70
     Davidson diagonalization with overlap
     ethr =  5.65E-10,  avg # of iterations =  1.0

     total cpu time spent up to now is        3.9 secs

     End of self-consistent calculation

          k = 0.0000 0.0000 0.0000 ( 22119 PWs)   bands (ev):

   -23.6550  -7.7788  -7.0605  -6.9811  -6.7782  -6.4014  -0.1293   0.6933

     the Fermi energy is    -6.8171 ev

!    total energy              =     -31.56970788 Ry
     Harris-Foulkes estimate   =     -31.56970787 Ry
     estimated scf accuracy    <          8.1E-10 Ry

     convergence has been achieved in  44 iterations

     Forces acting on atoms (Ry/au):

     atom    1 type  2   force =    -0.04457177    0.01006791    0.05294468
     atom    2 type  1   force =     0.00308912    0.00806232   -0.00428134
     atom    3 type  1   force =     0.04148265   -0.01813023   -0.04866335

     Total force =     0.096962     Total SCF correction =     0.000006

     Entering Dynamics:    iteration =     2
                           time      =   0.0097 pico-seconds


     Andersen thermostat:    3 collisions

ATOMIC_POSITIONS (bohr)
O       15.808731810   4.493403527  17.276918047
H       13.465948151  19.147172516   0.511480462
H       13.550134151   5.425573184   0.123316251


     kinetic energy (Ekin) =     0.04026327 Ry
     temperature           =  2119.01972307 K 
     Ekin + Etot (const)   =   -31.52944462 Ry
     Message from routine dynamics:
     Total linear momentum <> 0

     Linear momentum :    0.5800198147   -0.1814975238   -0.0381494458

     Writing output data file pwscf.save

     first order wave-functions extrapolation
     Check: negative starting charge=   -0.338494
     first order charge density extrapolation
     Check: negative starting charge=   -0.340292

     negative rho (up, down):  6.042E-01 0.000E+00

     total cpu time spent up to now is        4.4 secs

     per-process dynamical memory:    20.4 Mb

     Self-consistent Calculation

     iteration #  1     ecut=    30.00 Ry     beta=0.70
     Davidson diagonalization with overlap
     ethr =  1.00E-06,  avg # of iterations = 11.0

     negative rho (up, down):  1.578E-01 0.000E+00

     total cpu time spent up to now is        4.6 secs

     total energy              =      50.59240202 Ry
     Harris-Foulkes estimate   =     -92.30134093 Ry
     estimated scf accuracy    <      27.06222064 Ry

     iteration #  2     ecut=    30.00 Ry     beta=0.70
     Davidson diagonalization with overlap
     ethr =  1.00E-02,  avg # of iterations =  7.0

     negative rho (up, down):  9.252E-02 0.000E+00

     total cpu time spent up to now is        4.6 secs

     total energy              =     -35.07527917 Ry
     Harris-Foulkes estimate   =     -46.64763667 Ry
     estimated scf accuracy    <      21.96668006 Ry

     iteration #  3     ecut=    30.00 Ry     beta=0.70
     Davidson diagonalization with overlap
     ethr =  1.00E-02,  avg # of iterations =  3.0

     negative rho (up, down):  5.449E-02 0.000E+00

     total cpu time spent up to now is        4.7 secs

     total energy              =     -33.41620174 Ry
     Harris-Foulkes estimate   =     -35.54105353 Ry
     estimated scf accuracy    <       6.41185449 Ry

     iteration #  4     ecut=    30.00 Ry     beta=0.70
     Davidson diagonalization with overlap
     ethr =  1.00E-02,  avg # of iterations =  2.0

     negative rho (up, down):  3.957E-02 0.000E+00

     total cpu time spent up to now is        4.7 secs

     total energy              =     -32.23515481 Ry
     Harris-Foulkes estimate   =     -33.68413006 Ry
     estimated scf accuracy    <       4.75442581 Ry

     iteration #  5     ecut=    30.00 Ry     beta=0.70
     Davidson diagonalization with overlap
     ethr =  1.00E-02,  avg # of iterations =  1.0

     negative rho (up, down):  3.039E-02 0.000E+00

     total cpu time spent up to now is        4.8 secs

     total energy              =     -31.88887998 Ry
     Harris-Foulkes estimate   =     -32.40052220 Ry
     estimated scf accuracy    <       2.28135854 Ry

     iteration #  6     ecut=    30.00 Ry     beta=0.70
     Davidson diagonalization with overlap
     ethr =  1.00E-02,  avg # of iterations =  1.0

     negative rho (up, down):  2.647E-02 0.000E+00

     total cpu time spent up to now is        4.9 secs

     total energy              =     -31.78278881 Ry
     Harris-Foulkes estimate   =     -32.07737520 Ry
     estimated scf accuracy    <       3.37332081 Ry

     iteration #  7     ecut=    30.00 Ry     beta=0.70
     Davidson diagonalization with overlap
     ethr =  1.00E-02,  avg # of iterations =  1.0

     negative rho (up, down):  2.116E-02 0.000E+00

     total cpu time spent up to now is        4.9 secs

     total energy              =     -31.74007544 Ry
     Harris-Foulkes estimate   =     -31.85041555 Ry
     estimated scf accuracy    <       0.97400991 Ry

     iteration #  8     ecut=    30.00 Ry     beta=0.70
     Davidson diagonalization with overlap
     ethr =  1.00E-02,  avg # of iterations =  1.0

     negative rho (up, down):  2.069E-02 0.000E+00

     total cpu time spent up to now is        5.0 secs

     total energy              =     -31.76963541 Ry
     Harris-Foulkes estimate   =     -31.75939923 Ry
     estimated scf accuracy    <       0.42975472 Ry

     iteration #  9     ecut=    30.00 Ry     beta=0.70
     Davidson diagonalization with overlap
     ethr =  5.37E-03,  avg # of iterations =  1.0

     negative rho (up, down):  2.071E-02 0.000E+00

     total cpu time spent up to now is        5.0 secs

     total energy              =     -31.77511379 Ry
     Harris-Foulkes estimate   =     -31.77486390 Ry
     estimated scf accuracy    <       0.55073447 Ry

     iteration # 10     ecut=    30.00 Ry     beta=0.70
     Davidson diagonalization with overlap
     ethr =  5.37E-03,  avg # of iterations =  1.0

     negative rho (up, down):  2.999E-03 0.000E+00

     total cpu time spent up to now is        5.1 secs

     total energy              =     -31.52434652 Ry
     Harris-Foulkes estimate   =     -31.77595055 Ry
     estimated scf accuracy    <       0.54997787 Ry

     iteration # 11     ecut=    30.00 Ry     beta=0.70
     Davidson diagonalization with overlap
     ethr =  5.37E-03,  avg # of iterations =  2.0

     negative rho (up, down):  5.079E-03 0.000E+00

     total cpu time spent up to now is        5.1 secs

     total energy              =     -31.79539597 Ry
     Harris-Foulkes estimate   =     -31.72947336 Ry
     estimated scf accuracy    <       1.57502015 Ry

     iteration # 12     ecut=    30.00 Ry     beta=0.70
     Davidson diagonalization with overlap
     ethr =  5.37E-03,  avg # of iterations =  3.0

     negative rho (up, down):  6.365E-03 0.000E+00

     total cpu time spent up to now is        5.2 secs

     total energy              =     -32.30234209 Ry
     Harris-Foulkes estimate   =     -32.85821648 Ry
     estimated scf accuracy    <       2.40747073 Ry

     iteration # 13     ecut=    30.00 Ry     beta=0.70
     Davidson diagonalization with overlap
     ethr =  5.37E-03,  avg # of iterations =  3.0

     negative rho (up, down):  8.228E-03 0.000E+00

     total cpu time spent up to now is        5.2 secs

     total energy              =     -32.46257524 Ry
     Harris-Foulkes estimate   =     -33.72832702 Ry
     estimated scf accuracy    <       3.29606903 Ry

     iteration # 14     ecut=    30.00 Ry     beta=0.70
     Davidson diagonalization with overlap
     ethr =  5.37E-03,  avg # of iterations =  3.0

     negative rho (up, down):  1.017E-02 0.000E+00

     total cpu time spent up to now is        5.3 secs

     total energy              =      -1.23847841 Ry
     Harris-Foulkes estimate   =     -33.92525662 Ry
     estimated scf accuracy    <       3.14143796 Ry

     iteration # 15     ecut=    30.00 Ry     beta=0.70
     Davidson diagonalization with overlap
     ethr =  5.37E-03,  avg # of iterations =  4.0

     negative rho (up, down):  8.809E-03 0.000E+00

     total cpu time spent up to now is        5.3 secs

     total energy              =     -31.63374291 Ry
     Harris-Foulkes estimate   =     -31.69851048 Ry
     estimated scf accuracy    <       0.24215479 Ry

     iteration # 16     ecut=    30.00 Ry     beta=0.70
     Davidson diagonalization with overlap
     ethr =  3.03E-03,  avg # of iterations =  2.0

     negative rho (up, down):  9.095E-03 0.000E+00

     total cpu time spent up to now is        5.4 secs

     total energy              =     -31.81327551 Ry
     Harris-Foulkes estimate   =     -31.71827457 Ry
     estimated scf accuracy    <       0.33814630 Ry

     iteration # 17     ecut=    30.00 Ry     beta=0.70
     Davidson diagonalization with overlap
     ethr =  3.03E-03,  avg # of iterations =  3.0

     negative rho (up, down):  9.414E-03 0.000E+00

     total cpu time spent up to now is        5.4 secs

     total energy              =     -30.85753710 Ry
     Harris-Foulkes estimate   =     -32.67565077 Ry
     estimated scf accuracy    <       2.26021587 Ry

     iteration # 18     ecut=    30.00 Ry     beta=0.70
     Davidson diagonalization with overlap
     ethr =  3.03E-03,  avg # of iterations =  4.0

     negative rho (up, down):  1.329E-03 0.000E+00

     total cpu time spent up to now is        5.5 secs

     total energy              =     -22.17494207 Ry
     Harris-Foulkes estimate   =     -35.26575252 Ry
     estimated scf accuracy    <       5.88774020 Ry

     iteration # 19     ecut=    30.00 Ry     beta=0.70
     Davidson diagonalization with overlap
     ethr =  3.03E-03,  avg # of iterations =  6.0

     negative rho (up, down):  7.544E-03 0.000E+00

     total cpu time spent up to now is        5.6 secs

     total energy              =     -31.77508224 Ry
     Harris-Foulkes estimate   =     -31.69974656 Ry
     estimated scf accuracy    <       1.12841215 Ry

     iteration # 20     ecut=    30.00 Ry     beta=0.70
     Davidson diagonalization with overlap
     ethr =  3.03E-03,  avg # of iterations =  3.0

     negative rho (up, down):  1.484E-02 0.000E+00

     total cpu time spent up to now is        5.6 secs

     total energy              =     -34.28729680 Ry
     Harris-Foulkes estimate   =     -32.47750838 Ry
     estimated scf accuracy    <       2.10401155 Ry

     iteration # 21     ecut=    30.00 Ry     beta=0.70
     Davidson diagonalization with overlap
     ethr =  3.03E-03,  avg # of iterations =  4.0

     negative rho (up, down):  1.105E-02 0.000E+00

     total cpu time spent up to now is        5.7 secs

     total energy              =     -49.07649920 Ry
     Harris-Foulkes estimate   =     -38.87781142 Ry
     estimated scf accuracy    <       5.73581089 Ry

     iteration # 22     ecut=    30.00 Ry     beta=0.70
     Davidson diagonalization with overlap
     ethr =  3.03E-03,  avg # of iterations =  4.0

     negative rho (up, down):  2.767E-02 0.000E+00

     total cpu time spent up to now is        5.8 secs

     total energy              =     -81.06892722 Ry
     Harris-Foulkes estimate   =     -73.12360675 Ry
     estimated scf accuracy    <      15.14320744 Ry

     iteration # 23     ecut=    30.00 Ry     beta=0.70
     Davidson diagonalization with overlap
     ethr =  3.03E-03,  avg # of iterations =  4.0

     negative rho (up, down):  3.230E-02 0.000E+00

     total cpu time spent up to now is        5.8 secs

     total energy              =      82.09901715 Ry
     Harris-Foulkes estimate   =    -218.99106891 Ry
     estimated scf accuracy    <      43.47726934 Ry

     iteration # 24     ecut=    30.00 Ry     beta=0.70
     Davidson diagonalization with overlap
     ethr =  3.03E-03,  avg # of iterations =  5.0

     negative rho (up, down):  6.203E-02 0.000E+00

     total cpu time spent up to now is        5.9 secs

     total energy              =     -83.83683337 Ry
     Harris-Foulkes estimate   =     -53.93315794 Ry
     estimated scf accuracy    <      18.43752477 Ry

     iteration # 25     ecut=    30.00 Ry     beta=0.70
     Davidson diagonalization with overlap
     ethr =  3.03E-03,  avg # of iterations =  4.0

     negative rho (up, down):  1.985E-01 0.000E+00

     total cpu time spent up to now is        6.0 secs

     total energy              =      43.43279021 Ry
     Harris-Foulkes estimate   =    -487.42868304 Ry
     estimated scf accuracy    <      43.58018453 Ry

     iteration # 26     ecut=    30.00 Ry     beta=0.70
     Davidson diagonalization with overlap
     ethr =  3.03E-03,  avg # of iterations =  5.0

     negative rho (up, down):  2.085E-01 0.000E+00

     total cpu time spent up to now is        6.0 secs

     total energy              =       7.13566866 Ry
     Harris-Foulkes estimate   =    -276.70680237 Ry
     estimated scf accuracy    <      32.81176272 Ry

     iteration # 27     ecut=    30.00 Ry     beta=0.70
     Davidson diagonalization with overlap
     ethr =  3.03E-03,  avg # of iterations =  5.0

     negative rho (up, down):  2.186E-01 0.000E+00

     total cpu time spent up to now is        6.1 secs

     total energy              =     -61.27303357 Ry
     Harris-Foulkes estimate   =    -100.13955467 Ry
     estimated scf accuracy    <      34.76995193 Ry

     iteration # 28     ecut=    30.00 Ry     beta=0.70
     Davidson diagonalization with overlap
     ethr =  3.03E-03,  avg # of iterations =  5.0

     negative rho (up, down):  2.458E-01 0.000E+00

     total cpu time spent up to now is        6.2 secs

     total energy              =      12.01647223 Ry
     Harris-Foulkes estimate   =   -1344.27382866 Ry
     estimated scf accuracy    <      37.63793650 Ry

     iteration # 29     ecut=    30.00 Ry     beta=0.70
     Davidson diagonalization with overlap
     ethr =  3.03E-03,  avg # of iterations =  5.0

     negative rho (up, down):  7.500E-01 0.000E+00

     total cpu time spent up to now is        6.2 secs

     total energy              =    -844.62589182 Ry
     Harris-Foulkes estimate   =     -77.01579168 Ry
     estimated scf accuracy    <      37.60908614 Ry

     iteration # 30     ecut=    30.00 Ry     beta=0.70
     Davidson diagonalization with overlap
     ethr =  3.03E-03,  avg # of iterations =  7.0

     negative rho (up, down):  1.624E+00 0.000E+00

     total cpu time spent up to now is        6.3 secs

     total energy              =     -50.54960023 Ry
     Harris-Foulkes estimate   =  -26399.23497574 Ry
     estimated scf accuracy    <      62.06318603 Ry

     iteration # 31     ecut=    30.00 Ry     beta=0.70
     Davidson diagonalization with overlap
     ethr =  3.03E-03,  avg # of iterations =  5.0

     negative rho (up, down):  2.000E+00 0.000E+00

     total cpu time spent up to now is        6.4 secs

     total energy              =      85.12418409 Ry
     Harris-Foulkes estimate   =   -1990.21621380 Ry
     estimated scf accuracy    <      51.95791379 Ry

     iteration # 32     ecut=    30.00 Ry     beta=0.70
     Davidson diagonalization with overlap
     ethr =  3.03E-03,  avg # of iterations = 15.0

     negative rho (up, down):  2.563E+00 0.000E+00

     total cpu time spent up to now is        6.5 secs

     total energy              =     -66.84275129 Ry
     Harris-Foulkes estimate   =    -563.32383399 Ry
     estimated scf accuracy    <      52.57752174 Ry

     iteration # 33     ecut=    30.00 Ry     beta=0.70
     Davidson diagonalization with overlap
     ethr =  3.03E-03,  avg # of iterations =  7.0

     negative rho (up, down):  1.862E+00 0.000E+00

     total cpu time spent up to now is        6.6 secs

     total energy              =      67.80201038 Ry
     Harris-Foulkes estimate   =   -3606.36069255 Ry
     estimated scf accuracy    <      42.68736331 Ry

     iteration # 34     ecut=    30.00 Ry     beta=0.70
     Davidson diagonalization with overlap
     ethr =  3.03E-03,  avg # of iterations = 13.0

     negative rho (up, down):  2.948E+00 0.000E+00

     total cpu time spent up to now is        6.7 secs

     total energy              =      15.25017822 Ry
     Harris-Foulkes estimate   =   -9575.27801013 Ry
     estimated scf accuracy    <      35.20955872 Ry

     iteration # 35     ecut=    30.00 Ry     beta=0.70
     Davidson diagonalization with overlap
     ethr =  3.03E-03,  avg # of iterations =  8.0

     negative rho (up, down):  3.227E+00 0.000E+00

     total cpu time spent up to now is        6.8 secs

     total energy              =   -3093.27893014 Ry
     Harris-Foulkes estimate   =   -3850.61381766 Ry
     estimated scf accuracy    <      33.54835785 Ry

     iteration # 36     ecut=    30.00 Ry     beta=0.70
     Davidson diagonalization with overlap
     ethr =  3.03E-03,  avg # of iterations =  8.0

     negative rho (up, down):  2.846E+00 0.000E+00

     total cpu time spent up to now is        6.9 secs

     total energy              =      92.11633999 Ry
     Harris-Foulkes estimate   =  -16191.44392478 Ry
     estimated scf accuracy    <      24.68507909 Ry

     iteration # 37     ecut=    30.00 Ry     beta=0.70
     Davidson diagonalization with overlap
     ethr =  3.03E-03,  avg # of iterations =  7.0

     negative rho (up, down):  3.294E+00 0.000E+00

     total cpu time spent up to now is        7.0 secs

     total energy              =      11.99228404 Ry
     Harris-Foulkes estimate   =   -2241.02613149 Ry
     estimated scf accuracy    <      37.33581866 Ry

     iteration # 38     ecut=    30.00 Ry     beta=0.70
     Davidson diagonalization with overlap
     ethr =  3.03E-03,  avg # of iterations =  9.0

     negative rho (up, down):  2.472E+00 0.000E+00

     total cpu time spent up to now is        7.1 secs

     total energy              =      37.80240520 Ry
     Harris-Foulkes estimate   =  -14494.02188547 Ry
     estimated scf accuracy    <      26.32049014 Ry

     iteration # 39     ecut=    30.00 Ry     beta=0.70
     Davidson diagonalization with overlap
     ethr =  3.03E-03,  avg # of iterations =  5.0

     negative rho (up, down):  9.531E-01 0.000E+00

     total cpu time spent up to now is        7.2 secs

     total energy              =      84.24635378 Ry
     Harris-Foulkes estimate   =   -5074.75308505 Ry
     estimated scf accuracy    <      27.89841706 Ry

     iteration # 40     ecut=    30.00 Ry     beta=0.70
     Davidson diagonalization with overlap
     ethr =  3.03E-03,  avg # of iterations =  8.0

     negative rho (up, down):  1.584E-01 0.000E+00

     total cpu time spent up to now is        7.3 secs

     total energy              =     137.46316457 Ry
     Harris-Foulkes estimate   =    -575.38805811 Ry
     estimated scf accuracy    <      19.89501555 Ry

     iteration # 41     ecut=    30.00 Ry     beta=0.70
     Davidson diagonalization with overlap
     ethr =  3.03E-03,  avg # of iterations = 12.0

     negative rho (up, down):  6.146E-02 0.000E+00

     total cpu time spent up to now is        7.4 secs

     total energy              =      64.93888722 Ry
     Harris-Foulkes estimate   =    -811.22401107 Ry
     estimated scf accuracy    <      19.41740909 Ry

     iteration # 42     ecut=    30.00 Ry     beta=0.70
     Davidson diagonalization with overlap
     ethr =  3.03E-03,  avg # of iterations = 10.0

     negative rho (up, down):  5.617E-02 0.000E+00

     total cpu time spent up to now is        7.5 secs

     total energy              =     -15.44853735 Ry
     Harris-Foulkes estimate   =   -1056.50548303 Ry
     estimated scf accuracy    <      34.17466775 Ry

     iteration # 43     ecut=    30.00 Ry     beta=0.70
     Davidson diagonalization with overlap
     ethr =  3.03E-03,  avg # of iterations =  9.0

     negative rho (up, down):  4.885E-02 0.000E+00

     total cpu time spent up to now is        7.6 secs

     total energy              =     -27.80853777 Ry
     Harris-Foulkes estimate   =     -88.27518889 Ry
     estimated scf accuracy    <      29.93191846 Ry

     iteration # 44     ecut=    30.00 Ry     beta=0.70
     Davidson diagonalization with overlap
     ethr =  3.03E-03,  avg # of iterations =  4.0

     negative rho (up, down):  4.758E-02 0.000E+00

     total cpu time spent up to now is        7.6 secs

     total energy              =     -15.52642217 Ry
     Harris-Foulkes estimate   =    -172.04002478 Ry
     estimated scf accuracy    <      27.53320209 Ry

     iteration # 45     ecut=    30.00 Ry     beta=0.70
     Davidson diagonalization with overlap
     ethr =  3.03E-03,  avg # of iterations =  7.0

     negative rho (up, down):  2.964E-02 0.000E+00

     total cpu time spent up to now is        7.7 secs

     total energy              =     -78.79159733 Ry
     Harris-Foulkes estimate   =     -64.62061980 Ry
     estimated scf accuracy    <      45.94808443 Ry

     iteration # 46     ecut=    30.00 Ry     beta=0.70
     Davidson diagonalization with overlap
     ethr =  3.03E-03,  avg # of iterations =  9.0

     negative rho (up, down):  4.450E-03 0.000E+00

     total cpu time spent up to now is        7.8 secs

     total energy              =      34.96100219 Ry
     Harris-Foulkes estimate   =    -167.95634098 Ry
     estimated scf accuracy    <      27.38626708 Ry

     iteration # 47     ecut=    30.00 Ry     beta=0.70
     Davidson diagonalization with overlap
     ethr =  3.03E-03,  avg # of iterations = 10.0

     negative rho (up, down):  9.772E-01 0.000E+00

     total cpu time spent up to now is        7.9 secs

     total energy              =    -297.66761825 Ry
     Harris-Foulkes estimate   =     -71.60152135 Ry
     estimated scf accuracy    <      54.36434711 Ry

     iteration # 48     ecut=    30.00 Ry     beta=0.70
     Davidson diagonalization with overlap
     ethr =  3.03E-03,  avg # of iterations =  7.0

     negative rho (up, down):  9.904E-01 0.000E+00

     total cpu time spent up to now is        8.0 secs

     total energy              =     -49.29134323 Ry
     Harris-Foulkes estimate   =    -812.47686353 Ry
     estimated scf accuracy    <      86.58620168 Ry

     iteration # 49     ecut=    30.00 Ry     beta=0.70
     Davidson diagonalization with overlap
     ethr =  3.03E-03,  avg # of iterations =  8.0

     negative rho (up, down):  7.499E-01 0.000E+00

     total cpu time spent up to now is        8.1 secs

     total energy              =      -4.59243908 Ry
     Harris-Foulkes estimate   =    -567.89182281 Ry
     estimated scf accuracy    <      54.22403149 Ry

     iteration # 50     ecut=    30.00 Ry     beta=0.70
     Davidson diagonalization with overlap
     ethr =  3.03E-03,  avg # of iterations =  7.0

     negative rho (up, down):  3.825E-01 0.000E+00

     total cpu time spent up to now is        8.2 secs

     total energy              =      17.61468416 Ry
     Harris-Foulkes estimate   =    -360.52111079 Ry
     estimated scf accuracy    <      58.66149315 Ry

     iteration # 51     ecut=    30.00 Ry     beta=0.70
     Davidson diagonalization with overlap
     ethr =  3.03E-03,  avg # of iterations =  7.0

     negative rho (up, down):  9.081E-01 0.000E+00

     total cpu time spent up to now is        8.3 secs

     total energy              =    -273.36067143 Ry
     Harris-Foulkes estimate   =    -885.44822350 Ry
     estimated scf accuracy    <      54.07508732 Ry

     iteration # 52     ecut=    30.00 Ry     beta=0.70
     Davidson diagonalization with overlap
     ethr =  3.03E-03,  avg # of iterations =  6.0

     negative rho (up, down):  1.123E+00 0.000E+00

     total cpu time spent up to now is        8.3 secs

     total energy              =     -58.82842809 Ry
     Harris-Foulkes estimate   =   -3979.16510140 Ry
     estimated scf accuracy    <      43.40492835 Ry

     iteration # 53     ecut=    30.00 Ry     beta=0.70
     Davidson diagonalization with overlap
     ethr =  3.03E-03,  avg # of iterations =  9.0

     negative rho (up, down):  1.262E+00 0.000E+00

     total cpu time spent up to now is        8.4 secs

     total energy              =    -343.36528996 Ry
     Harris-Foulkes estimate   =   -4967.14187286 Ry
     estimated scf accuracy    <      39.48430637 Ry

     iteration # 54     ecut=    30.00 Ry     beta=0.70
     Davidson diagonalization with overlap
     ethr =  3.03E-03,  avg # of iterations =  5.0

     negative rho (up, down):  1.314E+00 0.000E+00

     total cpu time spent up to now is        8.5 secs

     total energy              =    -124.90562388 Ry
     Harris-Foulkes estimate   =  -10947.24564389 Ry
     estimated scf accuracy    <      23.48947715 Ry

     iteration # 55     ecut=    30.00 Ry     beta=0.70
     Davidson diagonalization with overlap
     ethr =  3.03E-03,  avg # of iterations =  9.0

     negative rho (up, down):  1.640E+00 0.000E+00

     total cpu time spent up to now is        8.6 secs

     total energy              =    -412.80953838 Ry
     Harris-Foulkes estimate   =   -1357.51693122 Ry
     estimated scf accuracy    <      37.00086339 Ry

     iteration # 56     ecut=    30.00 Ry     beta=0.70
     Davidson diagonalization with overlap
     ethr =  3.03E-03,  avg # of iterations =  9.0

     negative rho (up, down):  1.451E+00 0.000E+00

     total cpu time spent up to now is        8.7 secs

     total energy              =      57.25116625 Ry
     Harris-Foulkes estimate   =   -7025.78714432 Ry
     estimated scf accuracy    <      22.32029201 Ry

     iteration # 57     ecut=    30.00 Ry     beta=0.70
     Davidson diagonalization with overlap
     ethr =  3.03E-03,  avg # of iterations =  8.0

     negative rho (up, down):  4.596E-01 0.000E+00

     total cpu time spent up to now is        8.8 secs

     total energy              =      78.21574190 Ry
     Harris-Foulkes estimate   =    -999.60965774 Ry
     estimated scf accuracy    <      36.44677339 Ry

     iteration # 58     ecut=    30.00 Ry     beta=0.70
     Davidson diagonalization with overlap
     ethr =  3.03E-03,  avg # of iterations =  8.0

     negative rho (up, down):  3.941E-01 0.000E+00

     total cpu time spent up to now is        8.9 secs

     total energy              =    -718.71623812 Ry
     Harris-Foulkes estimate   =   -1097.15586006 Ry
     estimated scf accuracy    <      28.18154369 Ry

     iteration # 59     ecut=    30.00 Ry     beta=0.70
     Davidson diagonalization with overlap
     ethr =  3.03E-03,  avg # of iterations =  9.0

     negative rho (up, down):  6.285E-01 0.000E+00

     total cpu time spent up to now is        9.0 secs

     total energy              =     -15.68213570 Ry
     Harris-Foulkes estimate   =   -3177.63703260 Ry
     estimated scf accuracy    <      21.34883779 Ry

     iteration # 60     ecut=    30.00 Ry     beta=0.70
     Davidson diagonalization with overlap
     ethr =  3.03E-03,  avg # of iterations =  8.0

     negative rho (up, down):  6.366E-01 0.000E+00

     total cpu time spent up to now is        9.1 secs

     total energy              =    -244.90224616 Ry
     Harris-Foulkes estimate   =   -1267.84907931 Ry
     estimated scf accuracy    <      22.76444890 Ry

     iteration # 61     ecut=    30.00 Ry     beta=0.70
     Davidson diagonalization with overlap
     ethr =  3.03E-03,  avg # of iterations =  6.0

     negative rho (up, down):  6.773E-01 0.000E+00

     total cpu time spent up to now is        9.2 secs

     total energy              =      13.43583454 Ry
     Harris-Foulkes estimate   =   -3699.74581436 Ry
     estimated scf accuracy    <      36.97616056 Ry

     iteration # 62     ecut=    30.00 Ry     beta=0.70
     Davidson diagonalization with overlap
     ethr =  3.03E-03,  avg # of iterations =  8.0

     negative rho (up, down):  5.110E-01 0.000E+00

     total cpu time spent up to now is        9.3 secs

     total energy              =   -8527.32244870 Ry
     Harris-Foulkes estimate   =   -3605.35400578 Ry
     estimated scf accuracy    <      20.61287861 Ry

     iteration # 63     ecut=    30.00 Ry     beta=0.70
     Davidson diagonalization with overlap
     ethr =  3.03E-03,  avg # of iterations =  7.0

     negative rho (up, down):  4.894E-01 0.000E+00

     total cpu time spent up to now is        9.4 secs

     total energy              =     -26.86794386 Ry
     Harris-Foulkes estimate   =  -24253.76019656 Ry
     estimated scf accuracy    <      13.66149428 Ry

     iteration # 64     ecut=    30.00 Ry     beta=0.70
     Davidson diagonalization with overlap
     ethr =  3.03E-03,  avg # of iterations =  9.0

     negative rho (up, down):  1.406E-02 0.000E+00

     total cpu time spent up to now is        9.5 secs

     total energy              =      79.45503096 Ry
     Harris-Foulkes estimate   =    -732.89406382 Ry
     estimated scf accuracy    <      25.53504350 Ry

     iteration # 65     ecut=    30.00 Ry     beta=0.70
     Davidson diagonalization with overlap
     ethr =  3.03E-03,  avg # of iterations = 11.0

     negative rho (up, down):  6.695E-04 0.000E+00

     total cpu time spent up to now is        9.6 secs

     total energy              =     -27.84861608 Ry
     Harris-Foulkes estimate   =     -40.50401726 Ry
     estimated scf accuracy    <       9.54078576 Ry

     iteration # 66     ecut=    30.00 Ry     beta=0.70
     Davidson diagonalization with overlap
     ethr =  3.03E-03,  avg # of iterations =  4.0

     negative rho (up, down):  1.429E-03 0.000E+00

     total cpu time spent up to now is        9.6 secs

     total energy              =     -30.96928826 Ry
     Harris-Foulkes estimate   =     -33.25577886 Ry
     estimated scf accuracy    <       6.21608055 Ry

     iteration # 67     ecut=    30.00 Ry     beta=0.70
     Davidson diagonalization with overlap
     ethr =  3.03E-03,  avg # of iterations =  3.0

     negative rho (up, down):  1.283E-03 0.000E+00

     total cpu time spent up to now is        9.7 secs

     total energy              =     -31.92250662 Ry
     Harris-Foulkes estimate   =     -32.39378788 Ry
     estimated scf accuracy    <       4.09912492 Ry

     iteration # 68     ecut=    30.00 Ry     beta=0.70
     Davidson diagonalization with overlap
     ethr =  3.03E-03,  avg # of iterations =  3.0

     negative rho (up, down):  4.273E-04 0.000E+00

     total cpu time spent up to now is        9.8 secs

     total energy              =     -29.88485355 Ry
     Harris-Foulkes estimate   =     -32.89253808 Ry
     estimated scf accuracy    <       2.51706601 Ry

     iteration # 69     ecut=    30.00 Ry     beta=0.70
     Davidson diagonalization with overlap
     ethr =  3.03E-03,  avg # of iterations =  3.0

     negative rho (up, down):  9.591E-03 0.000E+00

     total cpu time spent up to now is        9.8 secs

     total energy              =     -41.71222072 Ry
     Harris-Foulkes estimate   =     -31.93180028 Ry
     estimated scf accuracy    <       2.16334131 Ry

     iteration # 70     ecut=    30.00 Ry     beta=0.70
     Davidson diagonalization with overlap
     ethr =  3.03E-03,  avg # of iterations =  3.0

     negative rho (up, down):  1.072E-02 0.000E+00

     total cpu time spent up to now is        9.9 secs

     total energy              =     -23.75337519 Ry
     Harris-Foulkes estimate   =    -412.50520845 Ry
     estimated scf accuracy    <       5.31427125 Ry

     iteration # 71     ecut=    30.00 Ry     beta=0.70
     Davidson diagonalization with overlap
     ethr =  3.03E-03,  avg # of iterations =  4.0

     negative rho (up, down):  1.179E-02 0.000E+00

     total cpu time spent up to now is        9.9 secs

     total energy              =    -135.31776915 Ry
     Harris-Foulkes estimate   =     -43.56950806 Ry
     estimated scf accuracy    <       9.13548976 Ry

     iteration # 72     ecut=    30.00 Ry     beta=0.70
     Davidson diagonalization with overlap
     ethr =  3.03E-03,  avg # of iterations =  6.0

     negative rho (up, down):  1.621E-02 0.000E+00

     total cpu time spent up to now is       10.0 secs

     total energy              =     -67.01013293 Ry
     Harris-Foulkes estimate   =    -268.82858542 Ry
     estimated scf accuracy    <       9.35232412 Ry

     iteration # 73     ecut=    30.00 Ry     beta=0.70
     Davidson diagonalization with overlap
     ethr =  3.03E-03,  avg # of iterations =  4.0

     negative rho (up, down):  6.257E-03 0.000E+00

     total cpu time spent up to now is       10.1 secs

     total energy              =     -19.56151713 Ry
     Harris-Foulkes estimate   =    -221.55924061 Ry
     estimated scf accuracy    <      23.38448729 Ry

     iteration # 74     ecut=    30.00 Ry     beta=0.70
     Davidson diagonalization with overlap
     ethr =  3.03E-03,  avg # of iterations =  4.0

     negative rho (up, down):  5.080E-04 0.000E+00

     total cpu time spent up to now is       10.2 secs

     total energy              =       6.93647449 Ry
     Harris-Foulkes estimate   =    -114.41948802 Ry
     estimated scf accuracy    <      24.67298641 Ry

     iteration # 75     ecut=    30.00 Ry     beta=0.70
     Davidson diagonalization with overlap
     ethr =  3.03E-03,  avg # of iterations =  7.0

     negative rho (up, down):  1.117E-01 0.000E+00

     total cpu time spent up to now is       10.2 secs

     total energy              =     -20.88740538 Ry
     Harris-Foulkes estimate   =     -52.06584120 Ry
     estimated scf accuracy    <       7.54142156 Ry

     iteration # 76     ecut=    30.00 Ry     beta=0.70
     Davidson diagonalization with overlap
     ethr =  3.03E-03,  avg # of iterations =  5.0

     negative rho (up, down):  1.261E-01 0.000E+00

     total cpu time spent up to now is       10.3 secs

     total energy              =      12.59911254 Ry
     Harris-Foulkes estimate   =     -91.88050594 Ry
     estimated scf accuracy    <      23.93298989 Ry

     iteration # 77     ecut=    30.00 Ry     beta=0.70
     Davidson diagonalization with overlap
     ethr =  3.03E-03,  avg # of iterations =  4.0

     negative rho (up, down):  1.995E-01 0.000E+00

     total cpu time spent up to now is       10.4 secs

     total energy              =    -327.11249497 Ry
     Harris-Foulkes estimate   =    -116.17680405 Ry
     estimated scf accuracy    <      15.73699611 Ry

     iteration # 78     ecut=    30.00 Ry     beta=0.70
     Davidson diagonalization with overlap
     ethr =  3.03E-03,  avg # of iterations =  8.0

     negative rho (up, down):  5.421E-01 0.000E+00

     total cpu time spent up to now is       10.5 secs

     total energy              =    -264.32272059 Ry
     Harris-Foulkes estimate   =   -1521.53418707 Ry
     estimated scf accuracy    <      34.58561950 Ry

     iteration # 79     ecut=    30.00 Ry     beta=0.70
     Davidson diagonalization with overlap
     ethr =  3.03E-03,  avg # of iterations =  6.0

     negative rho (up, down):  9.115E-01 0.000E+00

     total cpu time spent up to now is       10.5 secs

     total energy              =     -25.78030425 Ry
     Harris-Foulkes estimate   =   -1099.66086036 Ry
     estimated scf accuracy    <      35.91636227 Ry

     iteration # 80     ecut=    30.00 Ry     beta=0.70
     Davidson diagonalization with overlap
     ethr =  3.03E-03,  avg # of iterations =  7.0

     negative rho (up, down):  8.115E-01 0.000E+00

     total cpu time spent up to now is       10.6 secs

     total energy              =      15.74682459 Ry
     Harris-Foulkes estimate   =   -3783.88261764 Ry
     estimated scf accuracy    <      34.22839908 Ry

     iteration # 81     ecut=    30.00 Ry     beta=0.70
     Davidson diagonalization with overlap
     ethr =  3.03E-03,  avg # of iterations =  8.0

     negative rho (up, down):  9.523E-01 0.000E+00

     total cpu time spent up to now is       10.7 secs

     total energy              =    -396.36668112 Ry
     Harris-Foulkes estimate   =   -1734.70265364 Ry
     estimated scf accuracy    <      46.67503666 Ry

     iteration # 82     ecut=    30.00 Ry     beta=0.70
     Davidson diagonalization with overlap
     ethr =  3.03E-03,  avg # of iterations =  5.0

     negative rho (up, down):  1.178E+00 0.000E+00

     total cpu time spent up to now is       10.8 secs

     total energy              =    -485.28332475 Ry
     Harris-Foulkes estimate   =   -1563.23562546 Ry
     estimated scf accuracy    <      31.58482332 Ry

     iteration # 83     ecut=    30.00 Ry     beta=0.70
     Davidson diagonalization with overlap
     ethr =  3.03E-03,  avg # of iterations =  9.0

     negative rho (up, down):  1.241E+00 0.000E+00

     total cpu time spent up to now is       10.9 secs

     total energy              =      19.13205838 Ry
     Harris-Foulkes estimate   =   -4078.93812331 Ry
     estimated scf accuracy    <      34.54262932 Ry

     iteration # 84     ecut=    30.00 Ry     beta=0.70
     Davidson diagonalization with overlap
     ethr =  3.03E-03,  avg # of iterations =  6.0

     negative rho (up, down):  1.599E+00 0.000E+00

     total cpu time spent up to now is       11.0 secs

     total energy              =      69.52134894 Ry
     Harris-Foulkes estimate   =   -2062.54844499 Ry
     estimated scf accuracy    <      36.92850147 Ry

     iteration # 85     ecut=    30.00 Ry     beta=0.70
     Davidson diagonalization with overlap
     ethr =  3.03E-03,  avg # of iterations =  9.0

     negative rho (up, down):  1.638E+00 0.000E+00

     total cpu time spent up to now is       11.1 secs

     total energy              =    -527.40628374 Ry
     Harris-Foulkes estimate   =   -6043.50943552 Ry
     estimated scf accuracy    <      32.32627055 Ry

     iteration # 86     ecut=    30.00 Ry     beta=0.70
     Davidson diagonalization with overlap
     ethr =  3.03E-03,  avg # of iterations =  5.0

     negative rho (up, down):  1.213E+00 0.000E+00

     total cpu time spent up to now is       11.2 secs

     total energy              =      68.10637371 Ry
     Harris-Foulkes estimate   =  -12911.00879111 Ry
     estimated scf accuracy    <      22.18532590 Ry

     iteration # 87     ecut=    30.00 Ry     beta=0.70
     Davidson diagonalization with overlap
     ethr =  3.03E-03,  avg # of iterations =  7.0

     negative rho (up, down):  1.064E+00 0.000E+00

     total cpu time spent up to now is       11.3 secs

     total energy              =      41.60285106 Ry
     Harris-Foulkes estimate   =   -6138.70410349 Ry
     estimated scf accuracy    <      33.61796370 Ry

     iteration # 88     ecut=    30.00 Ry     beta=0.70
     Davidson diagonalization with overlap
     ethr =  3.03E-03,  avg # of iterations = 10.0

     negative rho (up, down):  3.205E-01 0.000E+00

     total cpu time spent up to now is       11.3 secs

     total energy              =    1963.38729868 Ry
     Harris-Foulkes estimate   =   -5140.53290633 Ry
     estimated scf accuracy    <      20.82188674 Ry

     iteration # 89     ecut=    30.00 Ry     beta=0.70
     Davidson diagonalization with overlap
     ethr =  3.03E-03,  avg # of iterations = 11.0

     negative rho (up, down):  2.657E-01 0.000E+00

     total cpu time spent up to now is       11.4 secs

     total energy              =      99.31417960 Ry
     Harris-Foulkes estimate   =   -3767.55763597 Ry
     estimated scf accuracy    <      20.05988868 Ry

     iteration # 90     ecut=    30.00 Ry     beta=0.70
     Davidson diagonalization with overlap
     ethr =  3.03E-03,  avg # of iterations =  8.0

     negative rho (up, down):  6.437E-02 0.000E+00

     total cpu time spent up to now is       11.5 secs

     total energy              =     121.53483260 Ry
     Harris-Foulkes estimate   =   -6401.24571366 Ry
     estimated scf accuracy    <      41.47276071 Ry

     iteration # 91     ecut=    30.00 Ry     beta=0.70
     Davidson diagonalization with overlap
     ethr =  3.03E-03,  avg # of iterations = 10.0

     negative rho (up, down):  8.465E-02 0.000E+00

     total cpu time spent up to now is       11.6 secs

     total energy              =      88.42425867 Ry
     Harris-Foulkes estimate   =    -498.90165895 Ry
     estimated scf accuracy    <      28.11599676 Ry

     iteration # 92     ecut=    30.00 Ry     beta=0.70
     Davidson diagonalization with overlap
     ethr =  3.03E-03,  avg # of iterations = 11.0

     negative rho (up, down):  6.465E-02 0.000E+00

     total cpu time spent up to now is       11.7 secs

     total energy              =      65.05425106 Ry
     Harris-Foulkes estimate   =    -740.72527296 Ry
     estimated scf accuracy    <      17.22099429 Ry

     iteration # 93     ecut=    30.00 Ry     beta=0.70
     Davidson diagonalization with overlap
     ethr =  3.03E-03,  avg # of iterations = 10.0

     negative rho (up, down):  1.108E-01 0.000E+00

     total cpu time spent up to now is       11.8 secs

     total energy              =     -19.76541364 Ry
     Harris-Foulkes estimate   =     -60.25506359 Ry
     estimated scf accuracy    <      24.10761766 Ry

     iteration # 94     ecut=    30.00 Ry     beta=0.70
     Davidson diagonalization with overlap
     ethr =  3.03E-03,  avg # of iterations =  4.0

     negative rho (up, down):  4.263E-02 0.000E+00

     total cpu time spent up to now is       11.9 secs

     total energy              =     -17.30178839 Ry
     Harris-Foulkes estimate   =     -92.55522008 Ry
     estimated scf accuracy    <      22.29881203 Ry

     iteration # 95     ecut=    30.00 Ry     beta=0.70
     Davidson diagonalization with overlap
     ethr =  3.03E-03,  avg # of iterations =  6.0

     negative rho (up, down):  3.829E-02 0.000E+00

     total cpu time spent up to now is       11.9 secs

     total energy              =    -114.08079828 Ry
     Harris-Foulkes estimate   =    -275.05101357 Ry
     estimated scf accuracy    <      33.30603768 Ry

     iteration # 96     ecut=    30.00 Ry     beta=0.70
     Davidson diagonalization with overlap
     ethr =  3.03E-03,  avg # of iterations =  5.0

     negative rho (up, down):  1.412E-01 0.000E+00

     total cpu time spent up to now is       12.0 secs

     total energy              =     -12.72321462 Ry
     Harris-Foulkes estimate   =    -337.09907722 Ry
     estimated scf accuracy    <      22.97969897 Ry

     iteration # 97     ecut=    30.00 Ry     beta=0.70
     Davidson diagonalization with overlap
     ethr =  3.03E-03,  avg # of iterations = 11.0

     negative rho (up, down):  2.155E-01 0.000E+00

     total cpu time spent up to now is       12.1 secs

     total energy              =     -18.40051591 Ry
     Harris-Foulkes estimate   =     -75.43647314 Ry
     estimated scf accuracy    <      23.45510687 Ry

     iteration # 98     ecut=    30.00 Ry     beta=0.70
     Davidson diagonalization with overlap
     ethr =  3.03E-03,  avg # of iterations =  5.0

     negative rho (up, down):  3.481E-02 0.000E+00

     total cpu time spent up to now is       12.2 secs

     total energy              =    -128.06425849 Ry
     Harris-Foulkes estimate   =     -96.14689536 Ry
     estimated scf accuracy    <      16.29598410 Ry

     iteration # 99     ecut=    30.00 Ry     beta=0.70
     Davidson diagonalization with overlap
     ethr =  3.03E-03,  avg # of iterations =  5.0

     negative rho (up, down):  1.925E-01 0.000E+00

     total cpu time spent up to now is       12.2 secs

     total energy              =      74.46266557 Ry
     Harris-Foulkes estimate   =   -1315.69581042 Ry
     estimated scf accuracy    <      27.27890562 Ry

     iteration #100     ecut=    30.00 Ry     beta=0.70
     Davidson diagonalization with overlap
     ethr =  3.03E-03,  avg # of iterations =  8.0

     negative rho (up, down):  4.112E-01 0.000E+00

     total cpu time spent up to now is       12.3 secs

     total energy              =     -15.20505241 Ry
     Harris-Foulkes estimate   =     -58.08374353 Ry
     estimated scf accuracy    <      15.77371760 Ry

     End of self-consistent calculation

     convergence NOT achieved after 100 iterations: stopping

     Writing output data file pwscf.save
 
     init_run     :      0.17s CPU      0.19s WALL (       1 calls)
     electrons    :      9.62s CPU     11.29s WALL (       3 calls)
     update_pot   :      0.33s CPU      0.43s WALL (       2 calls)
     forces       :      0.09s CPU      0.09s WALL (       2 calls)

     Called by init_run:
     wfcinit      :      0.01s CPU      0.02s WALL (       1 calls)
     potinit      :      0.05s CPU      0.05s WALL (       1 calls)

     Called by electrons:
     c_bands      :      5.40s CPU      5.61s WALL (     161 calls)
     sum_band     :      0.82s CPU      0.86s WALL (     161 calls)
     v_of_rho     :      2.05s CPU      2.12s WALL (     164 calls)
     mix_rho      :      1.15s CPU      2.27s WALL (     161 calls)

     Called by c_bands:
     init_us_2    :      0.02s CPU      0.03s WALL (     323 calls)
     cegterg      :      5.35s CPU      5.52s WALL (     161 calls)

     Called by sum_band:

     Called by *egterg:
     h_psi        :      4.52s CPU      4.65s WALL (     900 calls)
     g_psi        :      0.05s CPU      0.06s WALL (     738 calls)
     cdiaghg      :      0.32s CPU      0.34s WALL (     897 calls)

     Called by h_psi:
     h_psi:pot    :      4.50s CPU      4.63s WALL (     900 calls)
     h_psi:calbec :      0.04s CPU      0.06s WALL (     900 calls)
     vloc_psi     :      4.44s CPU      4.55s WALL (     900 calls)
     add_vuspsi   :      0.01s CPU      0.01s WALL (     900 calls)

     General routines
     calbec       :      0.04s CPU      0.06s WALL (     909 calls)
     fft          :      1.16s CPU      1.19s WALL (    1808 calls)
     fftw         :      4.58s CPU      4.71s WALL (   11536 calls)
     davcio       :      0.20s CPU      1.04s WALL (    2966 calls)
 
     Parallel routines
     fft_scatter  :      1.66s CPU      1.74s WALL (   13344 calls)
 
     PWSCF        :    10.42s CPU        12.43s WALL

 
   This run was terminated on:  15:22: 5  13Feb2018            

=------------------------------------------------------------------------------=
   JOB DONE.
=------------------------------------------------------------------------------=
