
     Program PWSCF v.6.0 (svn rev. 13079) starts on 13Feb2018 at 15:26:46 

     This program is part of the open-source Quantum ESPRESSO suite
     for quantum simulation of materials; please cite
         "P. Giannozzi et al., J. Phys.:Condens. Matter 21 395502 (2009);
          URL http://www.quantum-espresso.org", 
     in publications or presentations arising from this work. More details at
     http://www.quantum-espresso.org/quote

     Parallel version (MPI), running on    28 processors
     R & G space division:  proc/nbgrp/npool/nimage =      28
     Reading input from inputs/MD-H2O-round1/459.in

     Current dimensions of program PWSCF are:
     Max number of different atomic species (ntypx) = 10
     Max number of k-points (npk) =  40000
     Max angular momentum in pseudopotentials (lmaxx) =  3

     Subspace diagonalization in iterative solution of the eigenvalue problem:
     a serial algorithm will be used

 
     Parallelization info
     --------------------
     sticks:   dense  smooth     PW     G-vecs:    dense   smooth      PW
     Min         136     136     33                 6338     6338     787
     Max         137     137     34                 6341     6341     792
     Sum        3809    3809    949               177509   177509   22119
 


     bravais-lattice index     =            1
     lattice parameter (alat)  =      20.0000  a.u.
     unit-cell volume          =    8000.0000 (a.u.)^3
     number of atoms/cell      =            3
     number of atomic types    =            2
     number of electrons       =         8.00
     number of Kohn-Sham states=            8
     kinetic-energy cutoff     =      30.0000  Ry
     charge density cutoff     =     120.0000  Ry
     convergence threshold     =      1.0E-08
     mixing beta               =       0.7000
     number of iterations used =            8  plain     mixing
     Exchange-correlation      = BLYP ( 1  3  1  3 0 0)
     nstep                     =         5000


     celldm(1)=  20.000000  celldm(2)=   0.000000  celldm(3)=   0.000000
     celldm(4)=   0.000000  celldm(5)=   0.000000  celldm(6)=   0.000000

     crystal axes: (cart. coord. in units of alat)
               a(1) = (   1.000000   0.000000   0.000000 )  
               a(2) = (   0.000000   1.000000   0.000000 )  
               a(3) = (   0.000000   0.000000   1.000000 )  

     reciprocal axes: (cart. coord. in units 2 pi/alat)
               b(1) = (  1.000000  0.000000  0.000000 )  
               b(2) = (  0.000000  1.000000  0.000000 )  
               b(3) = (  0.000000  0.000000  1.000000 )  


     PseudoPot. # 1 for  H read from file:
     ./H.blyp-hgh.UPF
     MD5 check sum: c576e69559cde411e611be972c763230
     Pseudo is Norm-conserving, Zval =  1.0
     Generated in analytical, separable form
     Using radial grid of  929 points,  0 beta functions with: 

     PseudoPot. # 2 for  O read from file:
     ./O.blyp-hgh.UPF
     MD5 check sum: d0b7156309aa9befef28faac7bc56342
     Pseudo is Norm-conserving, Zval =  6.0
     Generated in analytical, separable form
     Using radial grid of 1095 points,  1 beta functions with: 
                l(1) =   0

     atomic species   valence    mass     pseudopotential
        H              1.00     1.01000      H( 1.00)
        O              6.00    16.00000      O( 1.00)

     No symmetry found



   Cartesian axes

     site n.     atom                  positions (alat units)
         1           O   tau(   1) = (   0.1642796   0.1543859   0.9081175  )
         2           H   tau(   2) = (   0.5945109   0.4829759   0.5169492  )
         3           H   tau(   3) = (   0.5655565   0.4632301   0.4818254  )

     number of k points=     1  Marzari-Vanderbilt smearing, width (Ry)=  0.0250
                       cart. coord. in units 2pi/alat
        k(    1) = (   0.0000000   0.0000000   0.0000000), wk =   2.0000000

     Dense  grid:   177509 G-vectors     FFT dimensions: (  72,  72,  72)

     Estimated max dynamical RAM per process >       6.09Mb

     Estimated total allocated dynamical RAM >     170.64Mb

     Initial potential from superposition of free atoms
     Check: negative starting charge=   -0.367486

     starting charge    7.99998, renormalised to    8.00000

     negative rho (up, down):  3.675E-01 0.000E+00
     Starting wfc are    6 randomized atomic wfcs +    2 random wfc

     total cpu time spent up to now is        0.3 secs

     per-process dynamical memory:    18.8 Mb

     Self-consistent Calculation

     iteration #  1     ecut=    30.00 Ry     beta=0.70
     Davidson diagonalization with overlap
     ethr =  1.00E-02,  avg # of iterations =  6.0

     negative rho (up, down):  9.585E-02 0.000E+00

     total cpu time spent up to now is        0.4 secs

     total energy              =     -31.49521307 Ry
     Harris-Foulkes estimate   =     -32.32254597 Ry
     estimated scf accuracy    <       0.86968265 Ry

     iteration #  2     ecut=    30.00 Ry     beta=0.70
     Davidson diagonalization with overlap
     ethr =  1.00E-02,  avg # of iterations =  2.0

     negative rho (up, down):  4.230E-02 0.000E+00

     total cpu time spent up to now is        0.5 secs

     total energy              =     -31.76043983 Ry
     Harris-Foulkes estimate   =     -31.79498981 Ry
     estimated scf accuracy    <       0.13745921 Ry

     iteration #  3     ecut=    30.00 Ry     beta=0.70
     Davidson diagonalization with overlap
     ethr =  1.72E-03,  avg # of iterations =  3.0

     negative rho (up, down):  2.475E-02 0.000E+00

     total cpu time spent up to now is        0.5 secs

     total energy              =     -31.78674886 Ry
     Harris-Foulkes estimate   =     -31.78277084 Ry
     estimated scf accuracy    <       0.05242521 Ry

     iteration #  4     ecut=    30.00 Ry     beta=0.70
     Davidson diagonalization with overlap
     ethr =  6.55E-04,  avg # of iterations =  1.0

     negative rho (up, down):  8.648E-03 0.000E+00

     total cpu time spent up to now is        0.6 secs

     total energy              =     -31.80776805 Ry
     Harris-Foulkes estimate   =     -31.79458558 Ry
     estimated scf accuracy    <       0.01674962 Ry

     iteration #  5     ecut=    30.00 Ry     beta=0.70
     Davidson diagonalization with overlap
     ethr =  2.09E-04,  avg # of iterations =  6.0

     negative rho (up, down):  1.155E-05 0.000E+00

     total cpu time spent up to now is        0.6 secs

     total energy              =     -31.81601804 Ry
     Harris-Foulkes estimate   =     -31.80909979 Ry
     estimated scf accuracy    <       0.00020067 Ry

     iteration #  6     ecut=    30.00 Ry     beta=0.70
     Davidson diagonalization with overlap
     ethr =  2.51E-06,  avg # of iterations = 16.0

     negative rho (up, down):  7.597E-06 0.000E+00

     total cpu time spent up to now is        0.7 secs

     total energy              =     -31.81604294 Ry
     Harris-Foulkes estimate   =     -31.81604924 Ry
     estimated scf accuracy    <       0.00001729 Ry

     iteration #  7     ecut=    30.00 Ry     beta=0.70
     Davidson diagonalization with overlap
     ethr =  2.16E-07,  avg # of iterations =  1.0

     negative rho (up, down):  2.037E-06 0.000E+00

     total cpu time spent up to now is        0.8 secs

     total energy              =     -31.81604411 Ry
     Harris-Foulkes estimate   =     -31.81604467 Ry
     estimated scf accuracy    <       0.00000453 Ry

     iteration #  8     ecut=    30.00 Ry     beta=0.70
     Davidson diagonalization with overlap
     ethr =  5.66E-08,  avg # of iterations =  2.0

     total cpu time spent up to now is        0.8 secs

     total energy              =     -31.81604878 Ry
     Harris-Foulkes estimate   =     -31.81604527 Ry
     estimated scf accuracy    <       0.00000082 Ry

     iteration #  9     ecut=    30.00 Ry     beta=0.70
     Davidson diagonalization with overlap
     ethr =  1.03E-08,  avg # of iterations =  2.0

     total cpu time spent up to now is        0.9 secs

     total energy              =     -31.81604927 Ry
     Harris-Foulkes estimate   =     -31.81604887 Ry
     estimated scf accuracy    <       0.00000015 Ry

     iteration # 10     ecut=    30.00 Ry     beta=0.70
     Davidson diagonalization with overlap
     ethr =  1.89E-09,  avg # of iterations =  2.0

     total cpu time spent up to now is        0.9 secs

     End of self-consistent calculation

          k = 0.0000 0.0000 0.0000 ( 22119 PWs)   bands (ev):

   -25.1062 -11.3687  -8.4098  -8.4091  -8.4090  -0.3640   0.7384   0.8694

     the Fermi energy is    -8.2863 ev

!    total energy              =     -31.81604925 Ry
     Harris-Foulkes estimate   =     -31.81604929 Ry
     estimated scf accuracy    <          3.2E-09 Ry

     convergence has been achieved in  10 iterations

     Forces acting on atoms (Ry/au):

     atom    1 type  2   force =    -0.00066214    0.00047572    0.00079453
     atom    2 type  1   force =     0.40844529    0.27796114    0.49472190
     atom    3 type  1   force =    -0.40778314   -0.27843686   -0.49551642

     Total force =     0.989036     Total SCF correction =     0.000071

     Molecular Dynamics Calculation

     Starting temperature  =  1000.00 K

     temperature is controlled by Andersen thermostat
     Collision frequency = 1.0000/timestep
     mass H                =     1.01
     mass O                =    16.00
     Time step             =   100.00 a.u.,  4.8378 femto-seconds

     Entering Dynamics:    iteration =     1
                           time      =   0.0048 pico-seconds


     Andersen thermostat:    3 collisions

ATOMIC_POSITIONS (bohr)
O        3.274760429   3.073590642  18.161661038
H       14.435282932  11.026283668  12.960636054
H        8.937655308   8.121652907   7.025770198


     kinetic energy (Ekin) =     0.01401653 Ry
     temperature           =   737.67767076 K 
     Ekin + Etot (const)   =   -31.80203272 Ry

     Linear momentum :   -0.0000000000   -0.0000000000   -0.0000000000

     Writing output data file pwscf.save
     Check: negative starting charge=   -0.367486
     NEW-OLD atomic charge density approx. for the potential
     Check: negative starting charge=   -0.353167

     negative rho (up, down):  2.697E-01 0.000E+00

     total cpu time spent up to now is        1.4 secs

     per-process dynamical memory:    20.4 Mb

     Self-consistent Calculation

     iteration #  1     ecut=    30.00 Ry     beta=0.70
     Davidson diagonalization with overlap
     c_bands:  1 eigenvalues not converged
     ethr =  1.00E-06,  avg # of iterations = 20.0

     negative rho (up, down):  7.912E-02 0.000E+00

     total cpu time spent up to now is        1.5 secs

     total energy              =     -29.16683524 Ry
     Harris-Foulkes estimate   =     -31.80194153 Ry
     estimated scf accuracy    <       3.30453150 Ry

     iteration #  2     ecut=    30.00 Ry     beta=0.70
     Davidson diagonalization with overlap
     ethr =  1.00E-02,  avg # of iterations =  5.0

     negative rho (up, down):  2.226E-03 0.000E+00

     total cpu time spent up to now is        1.6 secs

     total energy              =     -31.65637291 Ry
     Harris-Foulkes estimate   =     -38.66017824 Ry
     estimated scf accuracy    <      22.59941340 Ry

     iteration #  3     ecut=    30.00 Ry     beta=0.70
     Davidson diagonalization with overlap
     ethr =  1.00E-02,  avg # of iterations =  2.0

     negative rho (up, down):  2.061E-04 0.000E+00

     total cpu time spent up to now is        1.6 secs

     total energy              =     -31.54419966 Ry
     Harris-Foulkes estimate   =     -31.88623618 Ry
     estimated scf accuracy    <      12.42379930 Ry

     iteration #  4     ecut=    30.00 Ry     beta=0.70
     Davidson diagonalization with overlap
     ethr =  1.00E-02,  avg # of iterations =  1.0

     negative rho (up, down):  3.930E-02 0.000E+00

     total cpu time spent up to now is        1.7 secs

     total energy              =     -29.27351169 Ry
     Harris-Foulkes estimate   =     -31.54767063 Ry
     estimated scf accuracy    <      12.09071250 Ry

     iteration #  5     ecut=    30.00 Ry     beta=0.70
     Davidson diagonalization with overlap
     ethr =  1.00E-02,  avg # of iterations =  8.0

     negative rho (up, down):  3.167E-02 0.000E+00

     total cpu time spent up to now is        1.8 secs

     total energy              =     -31.46875271 Ry
     Harris-Foulkes estimate   =     -31.49389440 Ry
     estimated scf accuracy    <       0.31594702 Ry

     iteration #  6     ecut=    30.00 Ry     beta=0.70
     Davidson diagonalization with overlap
     ethr =  3.95E-03,  avg # of iterations =  1.0

     negative rho (up, down):  4.889E-03 0.000E+00

     total cpu time spent up to now is        1.8 secs

     total energy              =     -31.44234615 Ry
     Harris-Foulkes estimate   =     -31.46959767 Ry
     estimated scf accuracy    <       0.22692708 Ry

     iteration #  7     ecut=    30.00 Ry     beta=0.70
     Davidson diagonalization with overlap
     ethr =  2.84E-03,  avg # of iterations =  1.0

     negative rho (up, down):  5.972E-05 0.000E+00

     total cpu time spent up to now is        1.8 secs

     total energy              =     -31.47464751 Ry
     Harris-Foulkes estimate   =     -31.54738704 Ry
     estimated scf accuracy    <       1.16107873 Ry

     iteration #  8     ecut=    30.00 Ry     beta=0.70
     Davidson diagonalization with overlap
     ethr =  2.84E-03,  avg # of iterations =  1.0

     negative rho (up, down):  8.400E-06 0.000E+00

     total cpu time spent up to now is        1.9 secs

     total energy              =     -31.46146929 Ry
     Harris-Foulkes estimate   =     -31.49131899 Ry
     estimated scf accuracy    <       0.23363119 Ry

     iteration #  9     ecut=    30.00 Ry     beta=0.70
     Davidson diagonalization with overlap
     ethr =  2.84E-03,  avg # of iterations =  1.0

     total cpu time spent up to now is        1.9 secs

     total energy              =     -31.45881834 Ry
     Harris-Foulkes estimate   =     -31.50412798 Ry
     estimated scf accuracy    <       0.89440286 Ry

     iteration # 10     ecut=    30.00 Ry     beta=0.70
     Davidson diagonalization with overlap
     ethr =  2.84E-03,  avg # of iterations =  1.0

     total cpu time spent up to now is        2.0 secs

     total energy              =     -31.45992274 Ry
     Harris-Foulkes estimate   =     -31.46850182 Ry
     estimated scf accuracy    <       0.16368841 Ry

     iteration # 11     ecut=    30.00 Ry     beta=0.70
     Davidson diagonalization with overlap
     ethr =  2.05E-03,  avg # of iterations =  5.0

     total cpu time spent up to now is        2.0 secs

     total energy              =     -32.48007093 Ry
     Harris-Foulkes estimate   =     -32.48501806 Ry
     estimated scf accuracy    <       4.50153492 Ry

     iteration # 12     ecut=    30.00 Ry     beta=0.70
     Davidson diagonalization with overlap
     ethr =  2.05E-03,  avg # of iterations =  1.0

     total cpu time spent up to now is        2.1 secs

     total energy              =     -32.44669132 Ry
     Harris-Foulkes estimate   =     -32.48009362 Ry
     estimated scf accuracy    <       4.49159019 Ry

     iteration # 13     ecut=    30.00 Ry     beta=0.70
     Davidson diagonalization with overlap
     ethr =  2.05E-03,  avg # of iterations =  1.0

     negative rho (up, down):  6.338E-03 0.000E+00

     total cpu time spent up to now is        2.1 secs

     total energy              =     -32.71807150 Ry
     Harris-Foulkes estimate   =     -32.44671026 Ry
     estimated scf accuracy    <       4.43307101 Ry

     iteration # 14     ecut=    30.00 Ry     beta=0.70
     Davidson diagonalization with overlap
     ethr =  2.05E-03,  avg # of iterations =  1.0

     negative rho (up, down):  3.005E-03 0.000E+00

     total cpu time spent up to now is        2.2 secs

     total energy              =     -32.74589846 Ry
     Harris-Foulkes estimate   =     -32.72759652 Ry
     estimated scf accuracy    <       4.96614771 Ry

     iteration # 15     ecut=    30.00 Ry     beta=0.70
     Davidson diagonalization with overlap
     ethr =  2.05E-03,  avg # of iterations =  1.0

     negative rho (up, down):  2.254E-03 0.000E+00

     total cpu time spent up to now is        2.2 secs

     total energy              =     -32.73676037 Ry
     Harris-Foulkes estimate   =     -32.74618897 Ry
     estimated scf accuracy    <       5.01141913 Ry

     iteration # 16     ecut=    30.00 Ry     beta=0.70
     Davidson diagonalization with overlap
     ethr =  2.05E-03,  avg # of iterations =  1.0

     negative rho (up, down):  2.219E-03 0.000E+00

     total cpu time spent up to now is        2.3 secs

     total energy              =     -32.74436628 Ry
     Harris-Foulkes estimate   =     -32.73680450 Ry
     estimated scf accuracy    <       4.98827348 Ry

     iteration # 17     ecut=    30.00 Ry     beta=0.70
     Davidson diagonalization with overlap
     ethr =  2.05E-03,  avg # of iterations =  1.0

     negative rho (up, down):  1.951E-03 0.000E+00

     total cpu time spent up to now is        2.3 secs

     total energy              =     -32.75158297 Ry
     Harris-Foulkes estimate   =     -32.74437786 Ry
     estimated scf accuracy    <       4.99502839 Ry

     iteration # 18     ecut=    30.00 Ry     beta=0.70
     Davidson diagonalization with overlap
     ethr =  2.05E-03,  avg # of iterations =  1.0

     negative rho (up, down):  1.470E-02 0.000E+00

     total cpu time spent up to now is        2.4 secs

     total energy              =     -37.49626626 Ry
     Harris-Foulkes estimate   =     -32.75159085 Ry
     estimated scf accuracy    <       5.00686450 Ry

     iteration # 19     ecut=    30.00 Ry     beta=0.70
     Davidson diagonalization with overlap
     ethr =  2.05E-03,  avg # of iterations =  5.0

     negative rho (up, down):  2.376E-01 0.000E+00

     total cpu time spent up to now is        2.5 secs

     total energy              =     -22.18502421 Ry
     Harris-Foulkes estimate   =     -43.48473272 Ry
     estimated scf accuracy    <      10.39868921 Ry

     iteration # 20     ecut=    30.00 Ry     beta=0.70
     Davidson diagonalization with overlap
     ethr =  2.05E-03,  avg # of iterations = 10.0

     negative rho (up, down):  1.718E-02 0.000E+00

     total cpu time spent up to now is        2.6 secs

     total energy              =     -30.74888786 Ry
     Harris-Foulkes estimate   =     -41.41971168 Ry
     estimated scf accuracy    <      30.89781039 Ry

     iteration # 21     ecut=    30.00 Ry     beta=0.70
     Davidson diagonalization with overlap
     ethr =  2.05E-03,  avg # of iterations =  5.0

     negative rho (up, down):  1.914E-05 0.000E+00

     total cpu time spent up to now is        2.6 secs

     total energy              =     -31.72794027 Ry
     Harris-Foulkes estimate   =     -34.43850920 Ry
     estimated scf accuracy    <      16.95622852 Ry

     iteration # 22     ecut=    30.00 Ry     beta=0.70
     Davidson diagonalization with overlap
     ethr =  2.05E-03,  avg # of iterations =  2.0

     negative rho (up, down):  5.031E-02 0.000E+00

     total cpu time spent up to now is        2.7 secs

     total energy              =     -31.46428236 Ry
     Harris-Foulkes estimate   =     -31.77363225 Ry
     estimated scf accuracy    <      12.89748306 Ry

     iteration # 23     ecut=    30.00 Ry     beta=0.70
     Davidson diagonalization with overlap
     ethr =  2.05E-03,  avg # of iterations =  8.0

     negative rho (up, down):  1.703E-02 0.000E+00

     total cpu time spent up to now is        2.7 secs

     total energy              =     -27.65509640 Ry
     Harris-Foulkes estimate   =     -32.93786423 Ry
     estimated scf accuracy    <       6.37441523 Ry

     iteration # 24     ecut=    30.00 Ry     beta=0.70
     Davidson diagonalization with overlap
     ethr =  2.05E-03,  avg # of iterations =  7.0

     negative rho (up, down):  2.073E-02 0.000E+00

     total cpu time spent up to now is        2.8 secs

     total energy              =     -18.28158725 Ry
     Harris-Foulkes estimate   =     -34.24604755 Ry
     estimated scf accuracy    <      10.59231171 Ry

     iteration # 25     ecut=    30.00 Ry     beta=0.70
     Davidson diagonalization with overlap
     ethr =  2.05E-03,  avg # of iterations =  4.0

     negative rho (up, down):  2.124E-02 0.000E+00

     total cpu time spent up to now is        2.9 secs

     total energy              =     -25.68001102 Ry
     Harris-Foulkes estimate   =     -36.11280568 Ry
     estimated scf accuracy    <       5.77525673 Ry

     iteration # 26     ecut=    30.00 Ry     beta=0.70
     Davidson diagonalization with overlap
     ethr =  2.05E-03,  avg # of iterations =  4.0

     negative rho (up, down):  3.058E-02 0.000E+00

     total cpu time spent up to now is        3.0 secs

     total energy              =     -10.37947699 Ry
     Harris-Foulkes estimate   =     -46.91363351 Ry
     estimated scf accuracy    <       7.88839412 Ry

     iteration # 27     ecut=    30.00 Ry     beta=0.70
     Davidson diagonalization with overlap
     ethr =  2.05E-03,  avg # of iterations =  6.0

     negative rho (up, down):  7.337E-03 0.000E+00

     total cpu time spent up to now is        3.0 secs

     total energy              =     -31.31019564 Ry
     Harris-Foulkes estimate   =     -32.16998499 Ry
     estimated scf accuracy    <       3.88679113 Ry

     iteration # 28     ecut=    30.00 Ry     beta=0.70
     Davidson diagonalization with overlap
     ethr =  2.05E-03,  avg # of iterations =  3.0

     negative rho (up, down):  9.311E-03 0.000E+00

     total cpu time spent up to now is        3.1 secs

     total energy              =     -31.48304852 Ry
     Harris-Foulkes estimate   =     -31.56551587 Ry
     estimated scf accuracy    <       5.04212109 Ry

     iteration # 29     ecut=    30.00 Ry     beta=0.70
     Davidson diagonalization with overlap
     ethr =  2.05E-03,  avg # of iterations =  1.0

     negative rho (up, down):  2.011E-02 0.000E+00

     total cpu time spent up to now is        3.1 secs

     total energy              =     -31.55511817 Ry
     Harris-Foulkes estimate   =     -31.49771644 Ry
     estimated scf accuracy    <       1.31757121 Ry

     iteration # 30     ecut=    30.00 Ry     beta=0.70
     Davidson diagonalization with overlap
     ethr =  2.05E-03,  avg # of iterations =  1.0

     negative rho (up, down):  6.159E-04 0.000E+00

     total cpu time spent up to now is        3.2 secs

     total energy              =     -31.19068570 Ry
     Harris-Foulkes estimate   =     -31.61322064 Ry
     estimated scf accuracy    <       4.33868698 Ry

     iteration # 31     ecut=    30.00 Ry     beta=0.70
     Davidson diagonalization with overlap
     ethr =  2.05E-03,  avg # of iterations =  2.0

     negative rho (up, down):  2.186E-03 0.000E+00

     total cpu time spent up to now is        3.2 secs

     total energy              =     -31.48266388 Ry
     Harris-Foulkes estimate   =     -31.70988993 Ry
     estimated scf accuracy    <       3.17200567 Ry

     iteration # 32     ecut=    30.00 Ry     beta=0.70
     Davidson diagonalization with overlap
     ethr =  2.05E-03,  avg # of iterations =  1.0

     total cpu time spent up to now is        3.3 secs

     total energy              =     -31.48305677 Ry
     Harris-Foulkes estimate   =     -31.52629723 Ry
     estimated scf accuracy    <       0.78885620 Ry

     iteration # 33     ecut=    30.00 Ry     beta=0.70
     Davidson diagonalization with overlap
     ethr =  2.05E-03,  avg # of iterations =  1.0

     negative rho (up, down):  6.577E-06 0.000E+00

     total cpu time spent up to now is        3.3 secs

     total energy              =     -31.35798691 Ry
     Harris-Foulkes estimate   =     -31.52313001 Ry
     estimated scf accuracy    <       2.23344382 Ry

     iteration # 34     ecut=    30.00 Ry     beta=0.70
     Davidson diagonalization with overlap
     ethr =  2.05E-03,  avg # of iterations =  1.0

     negative rho (up, down):  9.046E-04 0.000E+00

     total cpu time spent up to now is        3.4 secs

     total energy              =     -31.52191057 Ry
     Harris-Foulkes estimate   =     -31.59417402 Ry
     estimated scf accuracy    <       2.98628212 Ry

     iteration # 35     ecut=    30.00 Ry     beta=0.70
     Davidson diagonalization with overlap
     ethr =  2.05E-03,  avg # of iterations =  1.0

     negative rho (up, down):  4.699E-04 0.000E+00

     total cpu time spent up to now is        3.4 secs

     total energy              =     -31.44777313 Ry
     Harris-Foulkes estimate   =     -31.52615617 Ry
     estimated scf accuracy    <       1.97446734 Ry

     iteration # 36     ecut=    30.00 Ry     beta=0.70
     Davidson diagonalization with overlap
     ethr =  2.05E-03,  avg # of iterations =  2.0

     negative rho (up, down):  6.546E-05 0.000E+00

     total cpu time spent up to now is        3.5 secs

     total energy              =     -31.44221461 Ry
     Harris-Foulkes estimate   =     -31.56969911 Ry
     estimated scf accuracy    <       2.68002499 Ry

     iteration # 37     ecut=    30.00 Ry     beta=0.70
     Davidson diagonalization with overlap
     ethr =  2.05E-03,  avg # of iterations =  2.0

     negative rho (up, down):  1.050E-04 0.000E+00

     total cpu time spent up to now is        3.5 secs

     total energy              =     -31.50316035 Ry
     Harris-Foulkes estimate   =     -31.51693350 Ry
     estimated scf accuracy    <       0.74847357 Ry

     iteration # 38     ecut=    30.00 Ry     beta=0.70
     Davidson diagonalization with overlap
     ethr =  2.05E-03,  avg # of iterations =  1.0

     negative rho (up, down):  6.544E-05 0.000E+00

     total cpu time spent up to now is        3.6 secs

     total energy              =     -31.48993483 Ry
     Harris-Foulkes estimate   =     -31.50496519 Ry
     estimated scf accuracy    <       0.39250567 Ry

     iteration # 39     ecut=    30.00 Ry     beta=0.70
     Davidson diagonalization with overlap
     ethr =  2.05E-03,  avg # of iterations =  1.0

     total cpu time spent up to now is        3.6 secs

     total energy              =     -31.48937748 Ry
     Harris-Foulkes estimate   =     -31.49446220 Ry
     estimated scf accuracy    <       0.01293530 Ry

     iteration # 40     ecut=    30.00 Ry     beta=0.70
     Davidson diagonalization with overlap
     ethr =  1.62E-04,  avg # of iterations =  1.0

     total cpu time spent up to now is        3.7 secs

     total energy              =     -31.48980374 Ry
     Harris-Foulkes estimate   =     -31.49057276 Ry
     estimated scf accuracy    <       0.01294384 Ry

     iteration # 41     ecut=    30.00 Ry     beta=0.70
     Davidson diagonalization with overlap
     ethr =  1.62E-04,  avg # of iterations =  1.0

     total cpu time spent up to now is        3.7 secs

     total energy              =     -31.48910203 Ry
     Harris-Foulkes estimate   =     -31.49109445 Ry
     estimated scf accuracy    <       0.09304668 Ry

     iteration # 42     ecut=    30.00 Ry     beta=0.70
     Davidson diagonalization with overlap
     ethr =  1.62E-04,  avg # of iterations =  1.0

     total cpu time spent up to now is        3.8 secs

     total energy              =     -31.49022420 Ry
     Harris-Foulkes estimate   =     -31.49023539 Ry
     estimated scf accuracy    <       0.00171149 Ry

     iteration # 43     ecut=    30.00 Ry     beta=0.70
     Davidson diagonalization with overlap
     ethr =  2.14E-05,  avg # of iterations =  1.0

     total cpu time spent up to now is        3.8 secs

     total energy              =     -31.49019269 Ry
     Harris-Foulkes estimate   =     -31.49022925 Ry
     estimated scf accuracy    <       0.00100254 Ry

     iteration # 44     ecut=    30.00 Ry     beta=0.70
     Davidson diagonalization with overlap
     ethr =  1.25E-05,  avg # of iterations = 11.0

     total cpu time spent up to now is        3.9 secs

     total energy              =     -31.49021450 Ry
     Harris-Foulkes estimate   =     -31.49022172 Ry
     estimated scf accuracy    <       0.00039615 Ry

     iteration # 45     ecut=    30.00 Ry     beta=0.70
     Davidson diagonalization with overlap
     ethr =  4.95E-06,  avg # of iterations =  1.0

     total cpu time spent up to now is        3.9 secs

     total energy              =     -31.49021751 Ry
     Harris-Foulkes estimate   =     -31.49021784 Ry
     estimated scf accuracy    <       0.00001290 Ry

     iteration # 46     ecut=    30.00 Ry     beta=0.70
     Davidson diagonalization with overlap
     ethr =  1.61E-07,  avg # of iterations =  1.0

     total cpu time spent up to now is        4.0 secs

     total energy              =     -31.49021768 Ry
     Harris-Foulkes estimate   =     -31.49021771 Ry
     estimated scf accuracy    <       0.00000025 Ry

     iteration # 47     ecut=    30.00 Ry     beta=0.70
     Davidson diagonalization with overlap
     ethr =  3.09E-09,  avg # of iterations =  1.0

     total cpu time spent up to now is        4.0 secs

     total energy              =     -31.49021766 Ry
     Harris-Foulkes estimate   =     -31.49021769 Ry
     estimated scf accuracy    <       0.00000003 Ry

     iteration # 48     ecut=    30.00 Ry     beta=0.70
     Davidson diagonalization with overlap
     ethr =  4.18E-10,  avg # of iterations =  1.0

     total cpu time spent up to now is        4.0 secs

     End of self-consistent calculation

          k = 0.0000 0.0000 0.0000 ( 22119 PWs)   bands (ev):

   -23.6447  -7.0512  -7.0507  -7.0502  -6.9826  -6.9094  -0.2416   0.6273

     the Fermi energy is    -6.9165 ev

!    total energy              =     -31.49021764 Ry
     Harris-Foulkes estimate   =     -31.49021767 Ry
     estimated scf accuracy    <          9.5E-09 Ry

     convergence has been achieved in  48 iterations

     Forces acting on atoms (Ry/au):

     atom    1 type  2   force =    -0.00075004    0.00036748    0.00074471
     atom    2 type  1   force =     0.00018240   -0.00030043   -0.00061966
     atom    3 type  1   force =     0.00056764   -0.00006704   -0.00012506

     Total force =     0.001450     Total SCF correction =     0.000034

     Entering Dynamics:    iteration =     2
                           time      =   0.0097 pico-seconds


     Andersen thermostat:    3 collisions

ATOMIC_POSITIONS (bohr)
O        3.275018311   3.061971540  18.170607625
H       14.297674908  11.201843168  12.583985415
H        9.071178076   8.130158383   7.260692719


     kinetic energy (Ekin) =     0.01415698 Ry
     temperature           =   745.06941011 K 
     Ekin + Etot (const)   =   -31.47606065 Ry
     Message from routine dynamics:
     Total linear momentum <> 0

     Linear momentum :    0.2888204439    0.1282230970   -0.2398505255

     Writing output data file pwscf.save

     first order wave-functions extrapolation
     Check: negative starting charge=   -0.353167
     first order charge density extrapolation
     Check: negative starting charge=   -0.354051

     negative rho (up, down):  4.306E-01 0.000E+00

     total cpu time spent up to now is        4.5 secs

     per-process dynamical memory:    20.4 Mb

     Self-consistent Calculation

     iteration #  1     ecut=    30.00 Ry     beta=0.70
     Davidson diagonalization with overlap
     ethr =  1.00E-06,  avg # of iterations = 11.0

     negative rho (up, down):  1.123E-02 0.000E+00

     total cpu time spent up to now is        4.7 secs

     total energy              =     -20.67572202 Ry
     Harris-Foulkes estimate   =     -32.35185655 Ry
     estimated scf accuracy    <      12.60817565 Ry

     iteration #  2     ecut=    30.00 Ry     beta=0.70
     Davidson diagonalization with overlap
     ethr =  1.00E-02,  avg # of iterations =  3.0

     negative rho (up, down):  7.548E-03 0.000E+00

     total cpu time spent up to now is        4.8 secs

     total energy              =     -34.55505723 Ry
     Harris-Foulkes estimate   =     -44.82451415 Ry
     estimated scf accuracy    <      22.16757955 Ry

     iteration #  3     ecut=    30.00 Ry     beta=0.70
     Davidson diagonalization with overlap
     ethr =  1.00E-02,  avg # of iterations =  2.0

     negative rho (up, down):  5.404E-03 0.000E+00

     total cpu time spent up to now is        4.8 secs

     total energy              =     -32.09854236 Ry
     Harris-Foulkes estimate   =     -35.08557531 Ry
     estimated scf accuracy    <       8.04159315 Ry

     iteration #  4     ecut=    30.00 Ry     beta=0.70
     Davidson diagonalization with overlap
     ethr =  1.00E-02,  avg # of iterations =  2.0

     negative rho (up, down):  2.454E-03 0.000E+00

     total cpu time spent up to now is        4.9 secs

     total energy              =     -30.34300702 Ry
     Harris-Foulkes estimate   =     -32.21362406 Ry
     estimated scf accuracy    <       3.77632054 Ry

     iteration #  5     ecut=    30.00 Ry     beta=0.70
     Davidson diagonalization with overlap
     ethr =  1.00E-02,  avg # of iterations =  5.0

     negative rho (up, down):  2.118E-03 0.000E+00

     total cpu time spent up to now is        4.9 secs

     total energy              =     -31.67315605 Ry
     Harris-Foulkes estimate   =     -33.23754833 Ry
     estimated scf accuracy    <       6.60655346 Ry

     iteration #  6     ecut=    30.00 Ry     beta=0.70
     Davidson diagonalization with overlap
     ethr =  1.00E-02,  avg # of iterations =  2.0

     negative rho (up, down):  3.083E-03 0.000E+00

     total cpu time spent up to now is        5.0 secs

     total energy              =     -30.98263701 Ry
     Harris-Foulkes estimate   =     -31.71302809 Ry
     estimated scf accuracy    <       4.17155085 Ry

     iteration #  7     ecut=    30.00 Ry     beta=0.70
     Davidson diagonalization with overlap
     ethr =  1.00E-02,  avg # of iterations =  1.0

     negative rho (up, down):  2.308E-04 0.000E+00

     total cpu time spent up to now is        5.0 secs

     total energy              =     -30.74641161 Ry
     Harris-Foulkes estimate   =     -31.93833896 Ry
     estimated scf accuracy    <       3.50248745 Ry

     iteration #  8     ecut=    30.00 Ry     beta=0.70
     Davidson diagonalization with overlap
     ethr =  1.00E-02,  avg # of iterations =  1.0

     negative rho (up, down):  3.483E-04 0.000E+00

     total cpu time spent up to now is        5.1 secs

     total energy              =     -32.21071635 Ry
     Harris-Foulkes estimate   =     -32.39232668 Ry
     estimated scf accuracy    <       4.98984954 Ry

     iteration #  9     ecut=    30.00 Ry     beta=0.70
     Davidson diagonalization with overlap
     ethr =  1.00E-02,  avg # of iterations =  1.0

     negative rho (up, down):  3.511E-04 0.000E+00

     total cpu time spent up to now is        5.1 secs

     total energy              =     -32.19566096 Ry
     Harris-Foulkes estimate   =     -32.21242809 Ry
     estimated scf accuracy    <       4.75983780 Ry

     iteration # 10     ecut=    30.00 Ry     beta=0.70
     Davidson diagonalization with overlap
     ethr =  1.00E-02,  avg # of iterations =  1.0

     negative rho (up, down):  1.958E-03 0.000E+00

     total cpu time spent up to now is        5.2 secs

     total energy              =     -32.44278417 Ry
     Harris-Foulkes estimate   =     -32.19574577 Ry
     estimated scf accuracy    <       4.74125805 Ry

     iteration # 11     ecut=    30.00 Ry     beta=0.70
     Davidson diagonalization with overlap
     ethr =  1.00E-02,  avg # of iterations =  1.0

     negative rho (up, down):  3.359E-03 0.000E+00

     total cpu time spent up to now is        5.2 secs

     total energy              =     -32.32793171 Ry
     Harris-Foulkes estimate   =     -32.44393273 Ry
     estimated scf accuracy    <       5.11921100 Ry

     iteration # 12     ecut=    30.00 Ry     beta=0.70
     Davidson diagonalization with overlap
     ethr =  1.00E-02,  avg # of iterations =  1.0

     negative rho (up, down):  1.760E-04 0.000E+00

     total cpu time spent up to now is        5.3 secs

     total energy              =     -30.63763088 Ry
     Harris-Foulkes estimate   =     -32.32818024 Ry
     estimated scf accuracy    <       4.95251721 Ry

     iteration # 13     ecut=    30.00 Ry     beta=0.70
     Davidson diagonalization with overlap
     ethr =  1.00E-02,  avg # of iterations =  2.0

     negative rho (up, down):  1.270E-04 0.000E+00

     total cpu time spent up to now is        5.3 secs

     total energy              =     -32.23505245 Ry
     Harris-Foulkes estimate   =     -32.25591795 Ry
     estimated scf accuracy    <       4.01723781 Ry

     iteration # 14     ecut=    30.00 Ry     beta=0.70
     Davidson diagonalization with overlap
     ethr =  1.00E-02,  avg # of iterations =  1.0

     negative rho (up, down):  1.114E-04 0.000E+00

     total cpu time spent up to now is        5.4 secs

     total energy              =     -32.24006958 Ry
     Harris-Foulkes estimate   =     -32.23526688 Ry
     estimated scf accuracy    <       3.96933307 Ry

     iteration # 15     ecut=    30.00 Ry     beta=0.70
     Davidson diagonalization with overlap
     ethr =  1.00E-02,  avg # of iterations =  1.0

     negative rho (up, down):  2.623E-05 0.000E+00

     total cpu time spent up to now is        5.4 secs

     total energy              =     -32.03419607 Ry
     Harris-Foulkes estimate   =     -32.24008030 Ry
     estimated scf accuracy    <       3.97189743 Ry

     iteration # 16     ecut=    30.00 Ry     beta=0.70
     Davidson diagonalization with overlap
     ethr =  1.00E-02,  avg # of iterations =  1.0

     negative rho (up, down):  4.774E-05 0.000E+00

     total cpu time spent up to now is        5.4 secs

     total energy              =     -32.19367347 Ry
     Harris-Foulkes estimate   =     -32.03557151 Ry
     estimated scf accuracy    <       3.63573784 Ry

     iteration # 17     ecut=    30.00 Ry     beta=0.70
     Davidson diagonalization with overlap
     ethr =  1.00E-02,  avg # of iterations =  1.0

     negative rho (up, down):  6.000E-05 0.000E+00

     total cpu time spent up to now is        5.5 secs

     total energy              =     -32.23162945 Ry
     Harris-Foulkes estimate   =     -32.19400349 Ry
     estimated scf accuracy    <       3.85542107 Ry

     iteration # 18     ecut=    30.00 Ry     beta=0.70
     Davidson diagonalization with overlap
     ethr =  1.00E-02,  avg # of iterations =  1.0

     negative rho (up, down):  7.110E-06 0.000E+00

     total cpu time spent up to now is        5.5 secs

     total energy              =     -32.05455755 Ry
     Harris-Foulkes estimate   =     -32.23169854 Ry
     estimated scf accuracy    <       3.92008562 Ry

     iteration # 19     ecut=    30.00 Ry     beta=0.70
     Davidson diagonalization with overlap
     ethr =  1.00E-02,  avg # of iterations =  1.0

     negative rho (up, down):  7.656E-06 0.000E+00

     total cpu time spent up to now is        5.6 secs

     total energy              =     -31.59546444 Ry
     Harris-Foulkes estimate   =     -32.05526517 Ry
     estimated scf accuracy    <       3.65106590 Ry

     iteration # 20     ecut=    30.00 Ry     beta=0.70
     Davidson diagonalization with overlap
     ethr =  1.00E-02,  avg # of iterations =  1.0

     negative rho (up, down):  7.279E-07 0.000E+00

     total cpu time spent up to now is        5.6 secs

     total energy              =     -30.80489521 Ry
     Harris-Foulkes estimate   =     -31.59967039 Ry
     estimated scf accuracy    <       2.95281493 Ry

     iteration # 21     ecut=    30.00 Ry     beta=0.70
     Davidson diagonalization with overlap
     ethr =  1.00E-02,  avg # of iterations =  1.0

     total cpu time spent up to now is        5.7 secs

     total energy              =     -31.80096366 Ry
     Harris-Foulkes estimate   =     -32.34412407 Ry
     estimated scf accuracy    <       4.95472582 Ry

     iteration # 22     ecut=    30.00 Ry     beta=0.70
     Davidson diagonalization with overlap
     ethr =  1.00E-02,  avg # of iterations =  1.0

     negative rho (up, down):  1.036E-07 0.000E+00

     total cpu time spent up to now is        5.8 secs

     total energy              =     -30.95387595 Ry
     Harris-Foulkes estimate   =     -31.80630636 Ry
     estimated scf accuracy    <       4.16237513 Ry

     iteration # 23     ecut=    30.00 Ry     beta=0.70
     Davidson diagonalization with overlap
     ethr =  1.00E-02,  avg # of iterations =  1.0

     total cpu time spent up to now is        5.8 secs

     total energy              =     -31.40342714 Ry
     Harris-Foulkes estimate   =     -31.93956662 Ry
     estimated scf accuracy    <       3.42888865 Ry

     iteration # 24     ecut=    30.00 Ry     beta=0.70
     Davidson diagonalization with overlap
     ethr =  1.00E-02,  avg # of iterations =  1.0

     total cpu time spent up to now is        5.9 secs

     total energy              =     -31.56596507 Ry
     Harris-Foulkes estimate   =     -31.51444239 Ry
     estimated scf accuracy    <       2.47210560 Ry

     iteration # 25     ecut=    30.00 Ry     beta=0.70
     Davidson diagonalization with overlap
     ethr =  1.00E-02,  avg # of iterations =  1.0

     total cpu time spent up to now is        5.9 secs

     total energy              =     -31.53249167 Ry
     Harris-Foulkes estimate   =     -31.58126962 Ry
     estimated scf accuracy    <       4.74995288 Ry

     iteration # 26     ecut=    30.00 Ry     beta=0.70
     Davidson diagonalization with overlap
     ethr =  1.00E-02,  avg # of iterations =  1.0

     total cpu time spent up to now is        6.0 secs

     total energy              =     -31.48045424 Ry
     Harris-Foulkes estimate   =     -31.53293059 Ry
     estimated scf accuracy    <       3.87278177 Ry

     iteration # 27     ecut=    30.00 Ry     beta=0.70
     Davidson diagonalization with overlap
     ethr =  1.00E-02,  avg # of iterations =  1.0

     total cpu time spent up to now is        6.0 secs

     total energy              =     -31.50639982 Ry
     Harris-Foulkes estimate   =     -31.49543976 Ry
     estimated scf accuracy    <       0.52351372 Ry

     iteration # 28     ecut=    30.00 Ry     beta=0.70
     Davidson diagonalization with overlap
     ethr =  6.54E-03,  avg # of iterations =  1.0

     total cpu time spent up to now is        6.1 secs

     total energy              =     -31.47736546 Ry
     Harris-Foulkes estimate   =     -31.51252921 Ry
     estimated scf accuracy    <       2.29083879 Ry

     iteration # 29     ecut=    30.00 Ry     beta=0.70
     Davidson diagonalization with overlap
     ethr =  6.54E-03,  avg # of iterations =  1.0

     total cpu time spent up to now is        6.1 secs

     total energy              =     -31.49117709 Ry
     Harris-Foulkes estimate   =     -31.49123617 Ry
     estimated scf accuracy    <       0.07249929 Ry

     iteration # 30     ecut=    30.00 Ry     beta=0.70
     Davidson diagonalization with overlap
     ethr =  9.06E-04,  avg # of iterations =  1.0

     negative rho (up, down):  4.901E-08 0.000E+00

     total cpu time spent up to now is        6.2 secs

     total energy              =     -31.49300404 Ry
     Harris-Foulkes estimate   =     -31.49118194 Ry
     estimated scf accuracy    <       0.06482622 Ry

     iteration # 31     ecut=    30.00 Ry     beta=0.70
     Davidson diagonalization with overlap
     ethr =  8.10E-04,  avg # of iterations =  1.0

     total cpu time spent up to now is        6.2 secs

     total energy              =     -31.48939132 Ry
     Harris-Foulkes estimate   =     -31.49478989 Ry
     estimated scf accuracy    <       0.47610601 Ry

     iteration # 32     ecut=    30.00 Ry     beta=0.70
     Davidson diagonalization with overlap
     ethr =  8.10E-04,  avg # of iterations =  1.0

     total cpu time spent up to now is        6.3 secs

     total energy              =     -31.49109995 Ry
     Harris-Foulkes estimate   =     -31.49108408 Ry
     estimated scf accuracy    <       0.06335136 Ry

     iteration # 33     ecut=    30.00 Ry     beta=0.70
     Davidson diagonalization with overlap
     ethr =  7.92E-04,  avg # of iterations =  1.0

     total cpu time spent up to now is        6.3 secs

     total energy              =     -31.49004140 Ry
     Harris-Foulkes estimate   =     -31.49110232 Ry
     estimated scf accuracy    <       0.06495032 Ry

     iteration # 34     ecut=    30.00 Ry     beta=0.70
     Davidson diagonalization with overlap
     ethr =  7.92E-04,  avg # of iterations =  1.0

     total cpu time spent up to now is        6.4 secs

     total energy              =     -31.49047823 Ry
     Harris-Foulkes estimate   =     -31.49052413 Ry
     estimated scf accuracy    <       0.00055031 Ry

     iteration # 35     ecut=    30.00 Ry     beta=0.70
     Davidson diagonalization with overlap
     ethr =  6.88E-06,  avg # of iterations = 20.0

     total cpu time spent up to now is        6.4 secs

     total energy              =     -31.49051259 Ry
     Harris-Foulkes estimate   =     -31.49058558 Ry
     estimated scf accuracy    <       0.00758342 Ry

     iteration # 36     ecut=    30.00 Ry     beta=0.70
     Davidson diagonalization with overlap
     ethr =  6.88E-06,  avg # of iterations =  1.0

     total cpu time spent up to now is        6.5 secs

     total energy              =     -31.49049674 Ry
     Harris-Foulkes estimate   =     -31.49053141 Ry
     estimated scf accuracy    <       0.00174487 Ry

     iteration # 37     ecut=    30.00 Ry     beta=0.70
     Davidson diagonalization with overlap
     ethr =  6.88E-06,  avg # of iterations =  1.0

     total cpu time spent up to now is        6.5 secs

     total energy              =     -31.49051059 Ry
     Harris-Foulkes estimate   =     -31.49051061 Ry
     estimated scf accuracy    <       0.00002069 Ry

     iteration # 38     ecut=    30.00 Ry     beta=0.70
     Davidson diagonalization with overlap
     ethr =  2.59E-07,  avg # of iterations =  1.0

     total cpu time spent up to now is        6.6 secs

     total energy              =     -31.49050900 Ry
     Harris-Foulkes estimate   =     -31.49051077 Ry
     estimated scf accuracy    <       0.00001199 Ry

     iteration # 39     ecut=    30.00 Ry     beta=0.70
     Davidson diagonalization with overlap
     ethr =  1.50E-07,  avg # of iterations =  1.0

     total cpu time spent up to now is        6.6 secs

     total energy              =     -31.49050816 Ry
     Harris-Foulkes estimate   =     -31.49050939 Ry
     estimated scf accuracy    <       0.00000602 Ry

     iteration # 40     ecut=    30.00 Ry     beta=0.70
     Davidson diagonalization with overlap
     ethr =  7.52E-08,  avg # of iterations =  1.0

     total cpu time spent up to now is        6.7 secs

     total energy              =     -31.49050727 Ry
     Harris-Foulkes estimate   =     -31.49050824 Ry
     estimated scf accuracy    <       0.00000110 Ry

     iteration # 41     ecut=    30.00 Ry     beta=0.70
     Davidson diagonalization with overlap
     ethr =  1.38E-08,  avg # of iterations =  1.0

     total cpu time spent up to now is        6.7 secs

     total energy              =     -31.49050731 Ry
     Harris-Foulkes estimate   =     -31.49050730 Ry
     estimated scf accuracy    <       0.00000006 Ry

     iteration # 42     ecut=    30.00 Ry     beta=0.70
     Davidson diagonalization with overlap
     ethr =  7.63E-10,  avg # of iterations =  1.0

     total cpu time spent up to now is        6.8 secs

     End of self-consistent calculation

          k = 0.0000 0.0000 0.0000 ( 22119 PWs)   bands (ev):

   -23.6577  -7.0631  -7.0625  -7.0620  -7.0106  -6.9036  -0.2417   0.6390

     the Fermi energy is    -6.9285 ev

!    total energy              =     -31.49050730 Ry
     Harris-Foulkes estimate   =     -31.49050732 Ry
     estimated scf accuracy    <          9.6E-10 Ry

     convergence has been achieved in  42 iterations

     Forces acting on atoms (Ry/au):

     atom    1 type  2   force =    -0.00071343    0.00017172    0.00059010
     atom    2 type  1   force =    -0.00026551   -0.00046585   -0.00093321
     atom    3 type  1   force =     0.00097894    0.00029413    0.00034311

     Total force =     0.001791     Total SCF correction =     0.000026

     Entering Dynamics:    iteration =     3
                           time      =   0.0145 pico-seconds


     Andersen thermostat:    3 collisions

ATOMIC_POSITIONS (bohr)
O        3.281244201   3.064414742  18.206850936
H       14.042603363  11.015578915  11.936981744
H        9.227621654   8.277718446   7.333544927


     kinetic energy (Ekin) =     0.03244094 Ry
     temperature           =  1707.33777238 K 
     Ekin + Etot (const)   =   -31.45806635 Ry
     Message from routine dynamics:
     Total linear momentum <> 0

     Linear momentum :    0.4926187896    0.3968274614   -0.2627643151

     Writing output data file pwscf.save

     second order wave-functions extrapolation
     Check: negative starting charge=   -0.354051
     second order charge density extrapolation
     Check: negative starting charge=   -0.355335

     negative rho (up, down):  7.044E-02 0.000E+00

     total cpu time spent up to now is        7.3 secs

     per-process dynamical memory:    20.4 Mb

     Self-consistent Calculation

     iteration #  1     ecut=    30.00 Ry     beta=0.70
     Davidson diagonalization with overlap
     ethr =  1.00E-06,  avg # of iterations = 11.0

     negative rho (up, down):  1.263E-02 0.000E+00

     total cpu time spent up to now is        7.4 secs

     total energy              =      -4.13687948 Ry
     Harris-Foulkes estimate   =     -68.76286443 Ry
     estimated scf accuracy    <       5.61136313 Ry

     iteration #  2     ecut=    30.00 Ry     beta=0.70
     Davidson diagonalization with overlap
     ethr =  1.00E-02,  avg # of iterations =  3.0

     negative rho (up, down):  8.463E-03 0.000E+00

     total cpu time spent up to now is        7.5 secs

     total energy              =     -31.44463296 Ry
     Harris-Foulkes estimate   =     -35.36483226 Ry
     estimated scf accuracy    <       8.30238914 Ry

     iteration #  3     ecut=    30.00 Ry     beta=0.70
     Davidson diagonalization with overlap
     ethr =  1.00E-02,  avg # of iterations =  4.0

     negative rho (up, down):  2.716E-03 0.000E+00

     total cpu time spent up to now is        7.5 secs

     total energy              =     -31.45532939 Ry
     Harris-Foulkes estimate   =     -33.26533098 Ry
     estimated scf accuracy    <       6.89002877 Ry

     iteration #  4     ecut=    30.00 Ry     beta=0.70
     Davidson diagonalization with overlap
     ethr =  1.00E-02,  avg # of iterations =  2.0

     negative rho (up, down):  2.549E-03 0.000E+00

     total cpu time spent up to now is        7.6 secs

     total energy              =     -32.53089546 Ry
     Harris-Foulkes estimate   =     -32.37649909 Ry
     estimated scf accuracy    <       2.37342983 Ry

     iteration #  5     ecut=    30.00 Ry     beta=0.70
     Davidson diagonalization with overlap
     ethr =  1.00E-02,  avg # of iterations =  1.0

     negative rho (up, down):  2.351E-03 0.000E+00

     total cpu time spent up to now is        7.6 secs

     total energy              =     -32.71190830 Ry
     Harris-Foulkes estimate   =     -32.52806818 Ry
     estimated scf accuracy    <       2.37658460 Ry

     iteration #  6     ecut=    30.00 Ry     beta=0.70
     Davidson diagonalization with overlap
     ethr =  1.00E-02,  avg # of iterations =  1.0

     negative rho (up, down):  2.352E-03 0.000E+00

     total cpu time spent up to now is        7.7 secs

     total energy              =     -32.22754977 Ry
     Harris-Foulkes estimate   =     -32.71375003 Ry
     estimated scf accuracy    <       2.67649093 Ry

     iteration #  7     ecut=    30.00 Ry     beta=0.70
     Davidson diagonalization with overlap
     ethr =  1.00E-02,  avg # of iterations =  1.0

     negative rho (up, down):  1.765E-03 0.000E+00

     total cpu time spent up to now is        7.7 secs

     total energy              =     -31.80433265 Ry
     Harris-Foulkes estimate   =     -32.28185905 Ry
     estimated scf accuracy    <       3.46262515 Ry

     iteration #  8     ecut=    30.00 Ry     beta=0.70
     Davidson diagonalization with overlap
     ethr =  1.00E-02,  avg # of iterations =  1.0

     negative rho (up, down):  1.142E-03 0.000E+00

     total cpu time spent up to now is        7.8 secs

     total energy              =     -31.65358963 Ry
     Harris-Foulkes estimate   =     -31.90773041 Ry
     estimated scf accuracy    <       1.61941328 Ry

     iteration #  9     ecut=    30.00 Ry     beta=0.70
     Davidson diagonalization with overlap
     ethr =  1.00E-02,  avg # of iterations =  3.0

     negative rho (up, down):  7.046E-05 0.000E+00

     total cpu time spent up to now is        7.8 secs

     total energy              =     -31.69321315 Ry
     Harris-Foulkes estimate   =     -33.26266708 Ry
     estimated scf accuracy    <      11.14623076 Ry

     iteration # 10     ecut=    30.00 Ry     beta=0.70
     Davidson diagonalization with overlap
     ethr =  1.00E-02,  avg # of iterations =  1.0

     negative rho (up, down):  1.913E-04 0.000E+00

     total cpu time spent up to now is        7.9 secs

     total energy              =     -33.45124262 Ry
     Harris-Foulkes estimate   =     -32.10171027 Ry
     estimated scf accuracy    <       4.83132634 Ry

     iteration # 11     ecut=    30.00 Ry     beta=0.70
     Davidson diagonalization with overlap
     ethr =  1.00E-02,  avg # of iterations =  2.0

     negative rho (up, down):  1.393E-02 0.000E+00

     total cpu time spent up to now is        7.9 secs

     total energy              =     -34.67847148 Ry
     Harris-Foulkes estimate   =     -33.66934351 Ry
     estimated scf accuracy    <      16.08696676 Ry

     iteration # 12     ecut=    30.00 Ry     beta=0.70
     Davidson diagonalization with overlap
     ethr =  1.00E-02,  avg # of iterations =  1.0

     negative rho (up, down):  9.464E-03 0.000E+00

     total cpu time spent up to now is        8.0 secs

     total energy              =     -32.87985098 Ry
     Harris-Foulkes estimate   =     -34.69651966 Ry
     estimated scf accuracy    <      17.74446116 Ry

     iteration # 13     ecut=    30.00 Ry     beta=0.70
     Davidson diagonalization with overlap
     ethr =  1.00E-02,  avg # of iterations =  2.0

     negative rho (up, down):  9.646E-03 0.000E+00

     total cpu time spent up to now is        8.0 secs

     total energy              =     -32.74182935 Ry
     Harris-Foulkes estimate   =     -33.04756045 Ry
     estimated scf accuracy    <       6.53233954 Ry

     iteration # 14     ecut=    30.00 Ry     beta=0.70
     Davidson diagonalization with overlap
     ethr =  1.00E-02,  avg # of iterations =  1.0

     negative rho (up, down):  1.900E-01 0.000E+00

     total cpu time spent up to now is        8.1 secs

     total energy              =     -31.15188035 Ry
     Harris-Foulkes estimate   =     -32.75989845 Ry
     estimated scf accuracy    <       5.89264139 Ry

     iteration # 15     ecut=    30.00 Ry     beta=0.70
     Davidson diagonalization with overlap
     ethr =  1.00E-02,  avg # of iterations =  2.0

     negative rho (up, down):  2.912E-01 0.000E+00

     total cpu time spent up to now is        8.1 secs

     total energy              =     -32.82378985 Ry
     Harris-Foulkes estimate   =     -32.77541575 Ry
     estimated scf accuracy    <       2.85050979 Ry

     iteration # 16     ecut=    30.00 Ry     beta=0.70
     Davidson diagonalization with overlap
     ethr =  1.00E-02,  avg # of iterations =  2.0

     negative rho (up, down):  1.355E-01 0.000E+00

     total cpu time spent up to now is        8.2 secs

     total energy              =     -32.17464085 Ry
     Harris-Foulkes estimate   =     -33.22878152 Ry
     estimated scf accuracy    <       5.43990137 Ry

     iteration # 17     ecut=    30.00 Ry     beta=0.70
     Davidson diagonalization with overlap
     ethr =  1.00E-02,  avg # of iterations =  2.0

     negative rho (up, down):  1.181E-01 0.000E+00

     total cpu time spent up to now is        8.2 secs

     total energy              =     -32.38748792 Ry
     Harris-Foulkes estimate   =     -32.39966788 Ry
     estimated scf accuracy    <       2.31053286 Ry

     iteration # 18     ecut=    30.00 Ry     beta=0.70
     Davidson diagonalization with overlap
     ethr =  1.00E-02,  avg # of iterations =  1.0

     negative rho (up, down):  2.370E-02 0.000E+00

     total cpu time spent up to now is        8.3 secs

     total energy              =     -32.03159812 Ry
     Harris-Foulkes estimate   =     -32.39050817 Ry
     estimated scf accuracy    <       2.25611058 Ry

     iteration # 19     ecut=    30.00 Ry     beta=0.70
     Davidson diagonalization with overlap
     ethr =  1.00E-02,  avg # of iterations =  1.0

     negative rho (up, down):  8.304E-03 0.000E+00

     total cpu time spent up to now is        8.3 secs

     total energy              =     -31.95502874 Ry
     Harris-Foulkes estimate   =     -32.04006988 Ry
     estimated scf accuracy    <       1.77338669 Ry

     iteration # 20     ecut=    30.00 Ry     beta=0.70
     Davidson diagonalization with overlap
     ethr =  1.00E-02,  avg # of iterations =  1.0

     negative rho (up, down):  8.844E-08 0.000E+00

     total cpu time spent up to now is        8.4 secs

     total energy              =     -31.73880753 Ry
     Harris-Foulkes estimate   =     -31.95681168 Ry
     estimated scf accuracy    <       1.66835917 Ry

     iteration # 21     ecut=    30.00 Ry     beta=0.70
     Davidson diagonalization with overlap
     ethr =  1.00E-02,  avg # of iterations =  2.0

     negative rho (up, down):  1.617E-04 0.000E+00

     total cpu time spent up to now is        8.4 secs

     total energy              =     -31.29203898 Ry
     Harris-Foulkes estimate   =     -31.93161228 Ry
     estimated scf accuracy    <       4.39531287 Ry

     iteration # 22     ecut=    30.00 Ry     beta=0.70
     Davidson diagonalization with overlap
     ethr =  1.00E-02,  avg # of iterations =  1.0

     negative rho (up, down):  9.553E-04 0.000E+00

     total cpu time spent up to now is        8.5 secs

     total energy              =     -31.75329980 Ry
     Harris-Foulkes estimate   =     -31.68712901 Ry
     estimated scf accuracy    <       1.06428733 Ry

     iteration # 23     ecut=    30.00 Ry     beta=0.70
     Davidson diagonalization with overlap
     ethr =  1.00E-02,  avg # of iterations =  1.0

     total cpu time spent up to now is        8.5 secs

     total energy              =     -31.71798371 Ry
     Harris-Foulkes estimate   =     -31.75416886 Ry
     estimated scf accuracy    <       1.18926501 Ry

     iteration # 24     ecut=    30.00 Ry     beta=0.70
     Davidson diagonalization with overlap
     ethr =  1.00E-02,  avg # of iterations =  1.0

     negative rho (up, down):  1.898E-04 0.000E+00

     total cpu time spent up to now is        8.6 secs

     total energy              =     -31.71468748 Ry
     Harris-Foulkes estimate   =     -31.72021084 Ry
     estimated scf accuracy    <       1.47760281 Ry

     iteration # 25     ecut=    30.00 Ry     beta=0.70
     Davidson diagonalization with overlap
     ethr =  1.00E-02,  avg # of iterations =  1.0

     negative rho (up, down):  3.437E-03 0.000E+00

     total cpu time spent up to now is        8.6 secs

     total energy              =     -31.57272820 Ry
     Harris-Foulkes estimate   =     -31.71473386 Ry
     estimated scf accuracy    <       1.48801949 Ry

     iteration # 26     ecut=    30.00 Ry     beta=0.70
     Davidson diagonalization with overlap
     ethr =  1.00E-02,  avg # of iterations =  1.0

     negative rho (up, down):  1.266E-03 0.000E+00

     total cpu time spent up to now is        8.7 secs

     total energy              =     -31.56401578 Ry
     Harris-Foulkes estimate   =     -31.74327030 Ry
     estimated scf accuracy    <       3.23371007 Ry

     iteration # 27     ecut=    30.00 Ry     beta=0.70
     Davidson diagonalization with overlap
     ethr =  1.00E-02,  avg # of iterations =  1.0

     negative rho (up, down):  1.305E-03 0.000E+00

     total cpu time spent up to now is        8.7 secs

     total energy              =     -31.62590551 Ry
     Harris-Foulkes estimate   =     -31.63067293 Ry
     estimated scf accuracy    <       1.23692329 Ry

     iteration # 28     ecut=    30.00 Ry     beta=0.70
     Davidson diagonalization with overlap
     ethr =  1.00E-02,  avg # of iterations =  1.0

     negative rho (up, down):  4.199E-04 0.000E+00

     total cpu time spent up to now is        8.8 secs

     total energy              =     -31.61876058 Ry
     Harris-Foulkes estimate   =     -31.62598038 Ry
     estimated scf accuracy    <       1.23280669 Ry

     iteration # 29     ecut=    30.00 Ry     beta=0.70
     Davidson diagonalization with overlap
     ethr =  1.00E-02,  avg # of iterations =  1.0

     negative rho (up, down):  5.910E-04 0.000E+00

     total cpu time spent up to now is        8.8 secs

     total energy              =     -31.64367937 Ry
     Harris-Foulkes estimate   =     -31.61850771 Ry
     estimated scf accuracy    <       1.10273226 Ry

     iteration # 30     ecut=    30.00 Ry     beta=0.70
     Davidson diagonalization with overlap
     ethr =  1.00E-02,  avg # of iterations =  1.0

     negative rho (up, down):  1.828E-02 0.000E+00

     total cpu time spent up to now is        8.9 secs

     total energy              =     -31.42670241 Ry
     Harris-Foulkes estimate   =     -31.64471339 Ry
     estimated scf accuracy    <       1.09752639 Ry

     iteration # 31     ecut=    30.00 Ry     beta=0.70
     Davidson diagonalization with overlap
     ethr =  1.00E-02,  avg # of iterations =  2.0

     negative rho (up, down):  4.167E-03 0.000E+00

     total cpu time spent up to now is        8.9 secs

     total energy              =     -32.32837560 Ry
     Harris-Foulkes estimate   =     -32.99898646 Ry
     estimated scf accuracy    <       6.07265842 Ry

     iteration # 32     ecut=    30.00 Ry     beta=0.70
     Davidson diagonalization with overlap
     ethr =  1.00E-02,  avg # of iterations =  2.0

     negative rho (up, down):  2.823E-03 0.000E+00

     total cpu time spent up to now is        9.0 secs

     total energy              =     -32.34379890 Ry
     Harris-Foulkes estimate   =     -32.36406890 Ry
     estimated scf accuracy    <       5.03128289 Ry

     iteration # 33     ecut=    30.00 Ry     beta=0.70
     Davidson diagonalization with overlap
     ethr =  1.00E-02,  avg # of iterations =  1.0

     negative rho (up, down):  1.145E-05 0.000E+00

     total cpu time spent up to now is        9.0 secs

     total energy              =     -31.46317437 Ry
     Harris-Foulkes estimate   =     -32.34449492 Ry
     estimated scf accuracy    <       4.99151252 Ry

     iteration # 34     ecut=    30.00 Ry     beta=0.70
     Davidson diagonalization with overlap
     ethr =  1.00E-02,  avg # of iterations =  1.0

     negative rho (up, down):  1.728E-06 0.000E+00

     total cpu time spent up to now is        9.1 secs

     total energy              =     -31.47031965 Ry
     Harris-Foulkes estimate   =     -31.52200957 Ry
     estimated scf accuracy    <       1.03283968 Ry

     iteration # 35     ecut=    30.00 Ry     beta=0.70
     Davidson diagonalization with overlap
     ethr =  1.00E-02,  avg # of iterations =  1.0

     negative rho (up, down):  4.065E-08 0.000E+00

     total cpu time spent up to now is        9.1 secs

     total energy              =     -31.48078072 Ry
     Harris-Foulkes estimate   =     -31.49510986 Ry
     estimated scf accuracy    <       0.25186839 Ry

     iteration # 36     ecut=    30.00 Ry     beta=0.70
     Davidson diagonalization with overlap
     ethr =  3.15E-03,  avg # of iterations =  1.0

     negative rho (up, down):  4.308E-07 0.000E+00

     total cpu time spent up to now is        9.2 secs

     total energy              =     -31.46964587 Ry
     Harris-Foulkes estimate   =     -31.50580953 Ry
     estimated scf accuracy    <       1.20450300 Ry

     iteration # 37     ecut=    30.00 Ry     beta=0.70
     Davidson diagonalization with overlap
     ethr =  3.15E-03,  avg # of iterations =  1.0

     total cpu time spent up to now is        9.2 secs

     total energy              =     -31.48740796 Ry
     Harris-Foulkes estimate   =     -31.49566393 Ry
     estimated scf accuracy    <       0.30576473 Ry

     iteration # 38     ecut=    30.00 Ry     beta=0.70
     Davidson diagonalization with overlap
     ethr =  3.15E-03,  avg # of iterations =  1.0

     total cpu time spent up to now is        9.3 secs

     total energy              =     -31.49160982 Ry
     Harris-Foulkes estimate   =     -31.49288540 Ry
     estimated scf accuracy    <       0.04389094 Ry

     iteration # 39     ecut=    30.00 Ry     beta=0.70
     Davidson diagonalization with overlap
     ethr =  5.49E-04,  avg # of iterations =  1.0

     total cpu time spent up to now is        9.3 secs

     total energy              =     -31.49207553 Ry
     Harris-Foulkes estimate   =     -31.49256255 Ry
     estimated scf accuracy    <       0.01151728 Ry

     iteration # 40     ecut=    30.00 Ry     beta=0.70
     Davidson diagonalization with overlap
     ethr =  1.44E-04,  avg # of iterations =  1.0

     total cpu time spent up to now is        9.4 secs

     total energy              =     -31.49341568 Ry
     Harris-Foulkes estimate   =     -31.49289015 Ry
     estimated scf accuracy    <       0.03572800 Ry

     iteration # 41     ecut=    30.00 Ry     beta=0.70
     Davidson diagonalization with overlap
     ethr =  1.44E-04,  avg # of iterations =  1.0

     total cpu time spent up to now is        9.4 secs

     total energy              =     -31.49289966 Ry
     Harris-Foulkes estimate   =     -31.49423854 Ry
     estimated scf accuracy    <       0.19281532 Ry

     iteration # 42     ecut=    30.00 Ry     beta=0.70
     Davidson diagonalization with overlap
     ethr =  1.44E-04,  avg # of iterations =  1.0

     total cpu time spent up to now is        9.5 secs

     total energy              =     -31.49159100 Ry
     Harris-Foulkes estimate   =     -31.49317410 Ry
     estimated scf accuracy    <       0.07529447 Ry

     iteration # 43     ecut=    30.00 Ry     beta=0.70
     Davidson diagonalization with overlap
     ethr =  1.44E-04,  avg # of iterations =  1.0

     total cpu time spent up to now is        9.5 secs

     total energy              =     -31.49243892 Ry
     Harris-Foulkes estimate   =     -31.49244292 Ry
     estimated scf accuracy    <       0.00041535 Ry

     iteration # 44     ecut=    30.00 Ry     beta=0.70
     Davidson diagonalization with overlap
     ethr =  5.19E-06,  avg # of iterations =  9.0

     total cpu time spent up to now is        9.6 secs

     total energy              =     -31.49243760 Ry
     Harris-Foulkes estimate   =     -31.49244046 Ry
     estimated scf accuracy    <       0.00015184 Ry

     iteration # 45     ecut=    30.00 Ry     beta=0.70
     Davidson diagonalization with overlap
     ethr =  1.90E-06,  avg # of iterations =  3.0

     total cpu time spent up to now is        9.6 secs

     total energy              =     -31.49243794 Ry
     Harris-Foulkes estimate   =     -31.49243841 Ry
     estimated scf accuracy    <       0.00001165 Ry

     iteration # 46     ecut=    30.00 Ry     beta=0.70
     Davidson diagonalization with overlap
     ethr =  1.46E-07,  avg # of iterations =  1.0

     total cpu time spent up to now is        9.7 secs

     total energy              =     -31.49243804 Ry
     Harris-Foulkes estimate   =     -31.49243810 Ry
     estimated scf accuracy    <       0.00000061 Ry

     iteration # 47     ecut=    30.00 Ry     beta=0.70
     Davidson diagonalization with overlap
     ethr =  7.65E-09,  avg # of iterations =  1.0

     total cpu time spent up to now is        9.7 secs

     End of self-consistent calculation

          k = 0.0000 0.0000 0.0000 ( 22119 PWs)   bands (ev):

   -23.6909  -7.0939  -7.0938  -7.0927  -7.0850  -6.8796  -0.2443   0.6175

     the Fermi energy is    -6.9594 ev

!    total energy              =     -31.49243801 Ry
     Harris-Foulkes estimate   =     -31.49243805 Ry
     estimated scf accuracy    <          7.0E-09 Ry

     convergence has been achieved in  47 iterations

     Forces acting on atoms (Ry/au):

     atom    1 type  2   force =    -0.00062926    0.00019642   -0.00033646
     atom    2 type  1   force =    -0.00235664   -0.00162728   -0.00236995
     atom    3 type  1   force =     0.00298590    0.00143086    0.00270641

     Total force =     0.005714     Total SCF correction =     0.000016

     Entering Dynamics:    iteration =     4
                           time      =   0.0194 pico-seconds


     Andersen thermostat:    3 collisions

ATOMIC_POSITIONS (bohr)
O        3.345368621   3.045556710  18.192749842
H       13.591877333  11.138954115  12.116782716
H        8.662515290   8.453084349   7.377127625


     kinetic energy (Ekin) =     0.03557272 Ry
     temperature           =  1872.16026146 K 
     Ekin + Etot (const)   =   -31.45686529 Ry
     Message from routine dynamics:
     Total linear momentum <> 0

     Linear momentum :   -0.2809692589    0.3061302210   -0.3867808697

     Writing output data file pwscf.save

     second order wave-functions extrapolation
     Check: negative starting charge=   -0.355335
     second order charge density extrapolation
     Check: negative starting charge=   -0.354519

     negative rho (up, down):  1.300E-01 0.000E+00

     total cpu time spent up to now is       10.2 secs

     per-process dynamical memory:    20.4 Mb

     Self-consistent Calculation

     iteration #  1     ecut=    30.00 Ry     beta=0.70
     Davidson diagonalization with overlap
     c_bands:  1 eigenvalues not converged
     ethr =  1.00E-06,  avg # of iterations = 20.0

     negative rho (up, down):  3.168E-02 0.000E+00

     total cpu time spent up to now is       10.3 secs

     total energy              =     -31.41905356 Ry
     Harris-Foulkes estimate   =     -31.42179064 Ry
     estimated scf accuracy    <       0.05751987 Ry

     iteration #  2     ecut=    30.00 Ry     beta=0.70
     Davidson diagonalization with overlap
     ethr =  7.19E-04,  avg # of iterations =  2.0

     negative rho (up, down):  2.901E-02 0.000E+00

     total cpu time spent up to now is       10.4 secs

     total energy              =     -31.46969196 Ry
     Harris-Foulkes estimate   =     -32.00768552 Ry
     estimated scf accuracy    <       4.57510545 Ry

     iteration #  3     ecut=    30.00 Ry     beta=0.70
     Davidson diagonalization with overlap
     ethr =  7.19E-04,  avg # of iterations =  2.0

     negative rho (up, down):  2.018E-02 0.000E+00

     total cpu time spent up to now is       10.4 secs

     total energy              =     -31.35288062 Ry
     Harris-Foulkes estimate   =     -31.47786432 Ry
     estimated scf accuracy    <       1.38855644 Ry

     iteration #  4     ecut=    30.00 Ry     beta=0.70
     Davidson diagonalization with overlap
     ethr =  7.19E-04,  avg # of iterations =  1.0

     negative rho (up, down):  7.964E-03 0.000E+00

     total cpu time spent up to now is       10.5 secs

     total energy              =     -31.44166946 Ry
     Harris-Foulkes estimate   =     -31.59846518 Ry
     estimated scf accuracy    <       3.01820955 Ry

     iteration #  5     ecut=    30.00 Ry     beta=0.70
     Davidson diagonalization with overlap
     ethr =  7.19E-04,  avg # of iterations =  1.0

     negative rho (up, down):  7.322E-03 0.000E+00

     total cpu time spent up to now is       10.5 secs

     total energy              =     -31.48032490 Ry
     Harris-Foulkes estimate   =     -31.48731473 Ry
     estimated scf accuracy    <       0.16681521 Ry

     iteration #  6     ecut=    30.00 Ry     beta=0.70
     Davidson diagonalization with overlap
     ethr =  7.19E-04,  avg # of iterations =  1.0

     negative rho (up, down):  2.430E-03 0.000E+00

     total cpu time spent up to now is       10.6 secs

     total energy              =     -31.49220520 Ry
     Harris-Foulkes estimate   =     -31.49061402 Ry
     estimated scf accuracy    <       0.48184117 Ry

     iteration #  7     ecut=    30.00 Ry     beta=0.70
     Davidson diagonalization with overlap
     ethr =  7.19E-04,  avg # of iterations =  1.0

     negative rho (up, down):  8.855E-04 0.000E+00

     total cpu time spent up to now is       10.6 secs

     total energy              =     -31.48783556 Ry
     Harris-Foulkes estimate   =     -31.49274708 Ry
     estimated scf accuracy    <       0.24255703 Ry

     iteration #  8     ecut=    30.00 Ry     beta=0.70
     Davidson diagonalization with overlap
     ethr =  7.19E-04,  avg # of iterations =  1.0

     negative rho (up, down):  9.841E-06 0.000E+00

     total cpu time spent up to now is       10.7 secs

     total energy              =     -31.49340861 Ry
     Harris-Foulkes estimate   =     -31.49201006 Ry
     estimated scf accuracy    <       0.03024011 Ry

     iteration #  9     ecut=    30.00 Ry     beta=0.70
     Davidson diagonalization with overlap
     ethr =  3.78E-04,  avg # of iterations =  3.0

     negative rho (up, down):  6.189E-07 0.000E+00

     total cpu time spent up to now is       10.8 secs

     total energy              =     -31.48626275 Ry
     Harris-Foulkes estimate   =     -31.49493304 Ry
     estimated scf accuracy    <       0.33034986 Ry

     iteration # 10     ecut=    30.00 Ry     beta=0.70
     Davidson diagonalization with overlap
     ethr =  3.78E-04,  avg # of iterations =  1.0

     negative rho (up, down):  5.637E-08 0.000E+00

     total cpu time spent up to now is       10.8 secs

     total energy              =     -31.49219999 Ry
     Harris-Foulkes estimate   =     -31.49249004 Ry
     estimated scf accuracy    <       0.05843015 Ry

     iteration # 11     ecut=    30.00 Ry     beta=0.70
     Davidson diagonalization with overlap
     ethr =  3.78E-04,  avg # of iterations =  1.0

     total cpu time spent up to now is       10.9 secs

     total energy              =     -31.49188314 Ry
     Harris-Foulkes estimate   =     -31.49223701 Ry
     estimated scf accuracy    <       0.03299220 Ry

     iteration # 12     ecut=    30.00 Ry     beta=0.70
     Davidson diagonalization with overlap
     ethr =  3.78E-04,  avg # of iterations =  1.0

     total cpu time spent up to now is       10.9 secs

     total energy              =     -31.49190641 Ry
     Harris-Foulkes estimate   =     -31.49197981 Ry
     estimated scf accuracy    <       0.00657584 Ry

     iteration # 13     ecut=    30.00 Ry     beta=0.70
     Davidson diagonalization with overlap
     ethr =  8.22E-05,  avg # of iterations =  1.0

     total cpu time spent up to now is       11.0 secs

     total energy              =     -31.49190333 Ry
     Harris-Foulkes estimate   =     -31.49192705 Ry
     estimated scf accuracy    <       0.00119936 Ry

     iteration # 14     ecut=    30.00 Ry     beta=0.70
     Davidson diagonalization with overlap
     ethr =  1.50E-05,  avg # of iterations = 11.0

     total cpu time spent up to now is       11.0 secs

     total energy              =     -31.49191585 Ry
     Harris-Foulkes estimate   =     -31.49191591 Ry
     estimated scf accuracy    <       0.00000266 Ry

     iteration # 15     ecut=    30.00 Ry     beta=0.70
     Davidson diagonalization with overlap
     ethr =  3.32E-08,  avg # of iterations =  6.0

     total cpu time spent up to now is       11.1 secs

     End of self-consistent calculation

          k = 0.0000 0.0000 0.0000 ( 22119 PWs)   bands (ev):

   -23.6837  -7.0876  -7.0863  -7.0860  -7.0700  -6.8846  -0.2429   0.6201

     the Fermi energy is    -6.9527 ev

!    total energy              =     -31.49191597 Ry
     Harris-Foulkes estimate   =     -31.49191589 Ry
     estimated scf accuracy    <          5.4E-09 Ry

     convergence has been achieved in  15 iterations

     Forces acting on atoms (Ry/au):

     atom    1 type  2   force =     0.00021764   -0.00003988    0.00004195
     atom    2 type  1   force =    -0.00226656   -0.00118412   -0.00209350
     atom    3 type  1   force =     0.00204892    0.00122400    0.00205154

     Total force =     0.004569     Total SCF correction =     0.000065

     Entering Dynamics:    iteration =     5
                           time      =   0.0242 pico-seconds


     Andersen thermostat:    3 collisions

ATOMIC_POSITIONS (bohr)
O        3.323152484   3.004235481  18.207252958
H       13.882087445  11.343082480  12.153742477
H        8.724243986   8.903549707   7.110415541


     kinetic energy (Ekin) =     0.02257877 Ry
     temperature           =  1188.30074264 K 
     Ekin + Etot (const)   =   -31.46933720 Ry
     Message from routine dynamics:
     Total linear momentum <> 0

     Linear momentum :    0.2648621927   -0.1904309686    0.1868481342

     Writing output data file pwscf.save

     second order wave-functions extrapolation
     Check: negative starting charge=   -0.354519
     second order charge density extrapolation
     Check: negative starting charge=   -0.354951

     negative rho (up, down):  9.137E-02 0.000E+00

     total cpu time spent up to now is       11.6 secs

     per-process dynamical memory:    20.4 Mb

     Self-consistent Calculation

     iteration #  1     ecut=    30.00 Ry     beta=0.70
     Davidson diagonalization with overlap
     ethr =  1.00E-06,  avg # of iterations = 19.0

     negative rho (up, down):  2.141E-02 0.000E+00

     total cpu time spent up to now is       11.8 secs

     total energy              =     -31.43296154 Ry
     Harris-Foulkes estimate   =     -31.42551818 Ry
     estimated scf accuracy    <       0.04884325 Ry

     iteration #  2     ecut=    30.00 Ry     beta=0.70
     Davidson diagonalization with overlap
     ethr =  6.11E-04,  avg # of iterations =  2.0

     negative rho (up, down):  1.970E-02 0.000E+00

     total cpu time spent up to now is       11.8 secs

     total energy              =     -31.47199448 Ry
     Harris-Foulkes estimate   =     -31.96497780 Ry
     estimated scf accuracy    <       4.47952000 Ry

     iteration #  3     ecut=    30.00 Ry     beta=0.70
     Davidson diagonalization with overlap
     ethr =  6.11E-04,  avg # of iterations =  2.0

     negative rho (up, down):  1.908E-02 0.000E+00

     total cpu time spent up to now is       11.9 secs

     total energy              =     -31.46614640 Ry
     Harris-Foulkes estimate   =     -31.50815209 Ry
     estimated scf accuracy    <       1.10293109 Ry

     iteration #  4     ecut=    30.00 Ry     beta=0.70
     Davidson diagonalization with overlap
     ethr =  6.11E-04,  avg # of iterations =  1.0

     negative rho (up, down):  1.057E-02 0.000E+00

     total cpu time spent up to now is       11.9 secs

     total energy              =     -31.39834417 Ry
     Harris-Foulkes estimate   =     -31.48051831 Ry
     estimated scf accuracy    <       0.82996253 Ry

     iteration #  5     ecut=    30.00 Ry     beta=0.70
     Davidson diagonalization with overlap
     ethr =  6.11E-04,  avg # of iterations =  1.0

     negative rho (up, down):  3.934E-03 0.000E+00

     total cpu time spent up to now is       12.0 secs
[...]

     total cpu time spent up to now is       40.8 secs

     total energy              =     -31.63655944 Ry
     Harris-Foulkes estimate   =     -31.63662570 Ry
     estimated scf accuracy    <       0.01509895 Ry

     iteration # 54     ecut=    30.00 Ry     beta=0.70
     Davidson diagonalization with overlap
     ethr =  1.86E-04,  avg # of iterations =  1.0

     total cpu time spent up to now is       40.9 secs

     total energy              =     -31.63657982 Ry
     Harris-Foulkes estimate   =     -31.63655981 Ry
     estimated scf accuracy    <       0.01506967 Ry

     iteration # 55     ecut=    30.00 Ry     beta=0.70
     Davidson diagonalization with overlap
     ethr =  1.86E-04,  avg # of iterations =  1.0

     total cpu time spent up to now is       40.9 secs

     total energy              =     -31.63653135 Ry
     Harris-Foulkes estimate   =     -31.63657985 Ry
     estimated scf accuracy    <       0.01508375 Ry

     iteration # 56     ecut=    30.00 Ry     beta=0.70
     Davidson diagonalization with overlap
     ethr =  1.86E-04,  avg # of iterations =  1.0

     total cpu time spent up to now is       41.0 secs

     total energy              =     -31.63641021 Ry
     Harris-Foulkes estimate   =     -31.63653134 Ry
     estimated scf accuracy    <       0.01505112 Ry

     iteration # 57     ecut=    30.00 Ry     beta=0.70
     Davidson diagonalization with overlap
     ethr =  1.86E-04,  avg # of iterations =  1.0

     total cpu time spent up to now is       41.1 secs

     total energy              =     -31.63692435 Ry
     Harris-Foulkes estimate   =     -31.63641012 Ry
     estimated scf accuracy    <       0.01496203 Ry

     iteration # 58     ecut=    30.00 Ry     beta=0.70
     Davidson diagonalization with overlap
     ethr =  1.86E-04,  avg # of iterations =  1.0

     total cpu time spent up to now is       41.1 secs

     total energy              =     -31.63641556 Ry
     Harris-Foulkes estimate   =     -31.63692259 Ry
     estimated scf accuracy    <       0.01539537 Ry

     iteration # 59     ecut=    30.00 Ry     beta=0.70
     Davidson diagonalization with overlap
     ethr =  1.86E-04,  avg # of iterations =  1.0

     total cpu time spent up to now is       41.1 secs

     total energy              =     -31.63595543 Ry
     Harris-Foulkes estimate   =     -31.63641433 Ry
     estimated scf accuracy    <       0.01498928 Ry

     iteration # 60     ecut=    30.00 Ry     beta=0.70
     Davidson diagonalization with overlap
     ethr =  1.86E-04,  avg # of iterations =  1.0

     negative rho (up, down):  8.251E-08 0.000E+00

     total cpu time spent up to now is       41.2 secs

     total energy              =     -31.62604866 Ry
     Harris-Foulkes estimate   =     -31.63595329 Ry
     estimated scf accuracy    <       0.01478799 Ry

     iteration # 61     ecut=    30.00 Ry     beta=0.70
     Davidson diagonalization with overlap
     ethr =  1.85E-04,  avg # of iterations =  4.0

     total cpu time spent up to now is       41.3 secs

     total energy              =     -31.53286400 Ry
     Harris-Foulkes estimate   =     -32.04554146 Ry
     estimated scf accuracy    <       3.93565431 Ry

     iteration # 62     ecut=    30.00 Ry     beta=0.70
     Davidson diagonalization with overlap
     ethr =  1.85E-04,  avg # of iterations =  5.0

     total cpu time spent up to now is       41.3 secs

     total energy              =     -31.62975696 Ry
     Harris-Foulkes estimate   =     -31.63057132 Ry
     estimated scf accuracy    <       0.05511690 Ry

     iteration # 63     ecut=    30.00 Ry     beta=0.70
     Davidson diagonalization with overlap
     ethr =  1.85E-04,  avg # of iterations =  1.0

     total cpu time spent up to now is       41.4 secs

     total energy              =     -31.64764822 Ry
     Harris-Foulkes estimate   =     -31.62977022 Ry
     estimated scf accuracy    <       0.05918333 Ry

     iteration # 64     ecut=    30.00 Ry     beta=0.70
     Davidson diagonalization with overlap
     ethr =  1.85E-04,  avg # of iterations =  1.0

     total cpu time spent up to now is       41.4 secs

     total energy              =     -31.64044679 Ry
     Harris-Foulkes estimate   =     -31.63993235 Ry
     estimated scf accuracy    <       0.01956173 Ry

     iteration # 65     ecut=    30.00 Ry     beta=0.70
     Davidson diagonalization with overlap
     ethr =  1.85E-04,  avg # of iterations =  1.0

     total cpu time spent up to now is       41.5 secs

     total energy              =     -31.63509727 Ry
     Harris-Foulkes estimate   =     -31.64045937 Ry
     estimated scf accuracy    <       0.02032249 Ry

     iteration # 66     ecut=    30.00 Ry     beta=0.70
     Davidson diagonalization with overlap
     ethr =  1.85E-04,  avg # of iterations =  1.0

     total cpu time spent up to now is       41.5 secs

     total energy              =     -31.63484383 Ry
     Harris-Foulkes estimate   =     -31.63513798 Ry
     estimated scf accuracy    <       0.01550903 Ry

     iteration # 67     ecut=    30.00 Ry     beta=0.70
     Davidson diagonalization with overlap
     ethr =  1.85E-04,  avg # of iterations =  1.0

     total cpu time spent up to now is       41.6 secs

     total energy              =     -31.66104105 Ry
     Harris-Foulkes estimate   =     -31.63484222 Ry
     estimated scf accuracy    <       0.01625365 Ry

     iteration # 68     ecut=    30.00 Ry     beta=0.70
     Davidson diagonalization with overlap
     ethr =  1.85E-04,  avg # of iterations =  3.0

     total cpu time spent up to now is       41.6 secs

     total energy              =     -31.60167965 Ry
     Harris-Foulkes estimate   =     -31.67559737 Ry
     estimated scf accuracy    <       1.38563147 Ry

     iteration # 69     ecut=    30.00 Ry     beta=0.70
     Davidson diagonalization with overlap
     ethr =  1.85E-04,  avg # of iterations =  1.0

     total cpu time spent up to now is       41.7 secs

     total energy              =     -31.65707963 Ry
     Harris-Foulkes estimate   =     -31.64749220 Ry
     estimated scf accuracy    <       0.03190283 Ry

     iteration # 70     ecut=    30.00 Ry     beta=0.70
     Davidson diagonalization with overlap
     ethr =  1.85E-04,  avg # of iterations =  1.0

     total cpu time spent up to now is       41.7 secs

     total energy              =     -31.67555428 Ry
     Harris-Foulkes estimate   =     -31.66237920 Ry
     estimated scf accuracy    <       0.44407943 Ry

     iteration # 71     ecut=    30.00 Ry     beta=0.70
     Davidson diagonalization with overlap
     ethr =  1.85E-04,  avg # of iterations =  1.0

     total cpu time spent up to now is       41.8 secs

     total energy              =     -31.61370852 Ry
     Harris-Foulkes estimate   =     -31.68206675 Ry
     estimated scf accuracy    <       1.88596538 Ry

     iteration # 72     ecut=    30.00 Ry     beta=0.70
     Davidson diagonalization with overlap
     ethr =  1.85E-04,  avg # of iterations =  1.0

     negative rho (up, down):  6.758E-07 0.000E+00

     total cpu time spent up to now is       41.8 secs

     total energy              =     -31.61591082 Ry
     Harris-Foulkes estimate   =     -31.65104882 Ry
     estimated scf accuracy    <       0.04399932 Ry

     iteration # 73     ecut=    30.00 Ry     beta=0.70
     Davidson diagonalization with overlap
     ethr =  1.85E-04,  avg # of iterations =  4.0

     total cpu time spent up to now is       41.9 secs

     total energy              =     -31.46484219 Ry
     Harris-Foulkes estimate   =     -31.80217484 Ry
     estimated scf accuracy    <       3.55682757 Ry

     iteration # 74     ecut=    30.00 Ry     beta=0.70
     Davidson diagonalization with overlap
     ethr =  1.85E-04,  avg # of iterations =  3.0

     total cpu time spent up to now is       41.9 secs

     total energy              =     -31.63482113 Ry
     Harris-Foulkes estimate   =     -31.63678142 Ry
     estimated scf accuracy    <       0.01517628 Ry

     iteration # 75     ecut=    30.00 Ry     beta=0.70
     Davidson diagonalization with overlap
     ethr =  1.85E-04,  avg # of iterations =  1.0

     total cpu time spent up to now is       42.0 secs

     total energy              =     -31.63240208 Ry
     Harris-Foulkes estimate   =     -31.63476393 Ry
     estimated scf accuracy    <       0.01647338 Ry

     iteration # 76     ecut=    30.00 Ry     beta=0.70
     Davidson diagonalization with overlap
     ethr =  1.85E-04,  avg # of iterations =  1.0

     total cpu time spent up to now is       42.0 secs

     total energy              =     -31.62562748 Ry
     Harris-Foulkes estimate   =     -31.63164351 Ry
     estimated scf accuracy    <       0.04486556 Ry

     iteration # 77     ecut=    30.00 Ry     beta=0.70
     Davidson diagonalization with overlap
     ethr =  1.85E-04,  avg # of iterations =  1.0

     total cpu time spent up to now is       42.1 secs

     total energy              =     -31.62749695 Ry
     Harris-Foulkes estimate   =     -31.62684491 Ry
     estimated scf accuracy    <       0.00848204 Ry

     iteration # 78     ecut=    30.00 Ry     beta=0.70
     Davidson diagonalization with overlap
     ethr =  1.06E-04,  avg # of iterations =  1.0

     total cpu time spent up to now is       42.1 secs

     total energy              =     -31.62723871 Ry
     Harris-Foulkes estimate   =     -31.62828315 Ry
     estimated scf accuracy    <       0.10871520 Ry

     iteration # 79     ecut=    30.00 Ry     beta=0.70
     Davidson diagonalization with overlap
     ethr =  1.06E-04,  avg # of iterations =  1.0

     total cpu time spent up to now is       42.2 secs

     total energy              =     -31.62208706 Ry
     Harris-Foulkes estimate   =     -31.62741867 Ry
     estimated scf accuracy    <       0.04660866 Ry

     iteration # 80     ecut=    30.00 Ry     beta=0.70
     Davidson diagonalization with overlap
     ethr =  1.06E-04,  avg # of iterations =  1.0

     total cpu time spent up to now is       42.2 secs

     total energy              =     -31.63078569 Ry
     Harris-Foulkes estimate   =     -31.62984821 Ry
     estimated scf accuracy    <       0.05908580 Ry

     iteration # 81     ecut=    30.00 Ry     beta=0.70
     Davidson diagonalization with overlap
     ethr =  1.06E-04,  avg # of iterations =  1.0

     total cpu time spent up to now is       42.3 secs

     total energy              =     -31.63355692 Ry
     Harris-Foulkes estimate   =     -31.63076654 Ry
     estimated scf accuracy    <       0.05394333 Ry

     iteration # 82     ecut=    30.00 Ry     beta=0.70
     Davidson diagonalization with overlap
     ethr =  1.06E-04,  avg # of iterations =  1.0

     total cpu time spent up to now is       42.3 secs

     total energy              =     -31.63662330 Ry
     Harris-Foulkes estimate   =     -31.63312916 Ry
     estimated scf accuracy    <       0.02747076 Ry

     iteration # 83     ecut=    30.00 Ry     beta=0.70
     Davidson diagonalization with overlap
     ethr =  1.06E-04,  avg # of iterations =  1.0

     total cpu time spent up to now is       42.4 secs

     total energy              =     -31.63717237 Ry
     Harris-Foulkes estimate   =     -31.63587183 Ry
     estimated scf accuracy    <       0.01478820 Ry

     iteration # 84     ecut=    30.00 Ry     beta=0.70
     Davidson diagonalization with overlap
     ethr =  1.06E-04,  avg # of iterations =  1.0

     total cpu time spent up to now is       42.4 secs

     total energy              =     -31.63730777 Ry
     Harris-Foulkes estimate   =     -31.63715318 Ry
     estimated scf accuracy    <       0.01565999 Ry

     iteration # 85     ecut=    30.00 Ry     beta=0.70
     Davidson diagonalization with overlap
     ethr =  1.06E-04,  avg # of iterations =  1.0

     total cpu time spent up to now is       42.5 secs

     total energy              =     -31.63695322 Ry
     Harris-Foulkes estimate   =     -31.63730796 Ry
     estimated scf accuracy    <       0.01582619 Ry

     iteration # 86     ecut=    30.00 Ry     beta=0.70
     Davidson diagonalization with overlap
     ethr =  1.06E-04,  avg # of iterations =  1.0

     total cpu time spent up to now is       42.5 secs

     total energy              =     -31.63707585 Ry
     Harris-Foulkes estimate   =     -31.63695302 Ry
     estimated scf accuracy    <       0.01544774 Ry

     iteration # 87     ecut=    30.00 Ry     beta=0.70
     Davidson diagonalization with overlap
     ethr =  1.06E-04,  avg # of iterations =  1.0

     total cpu time spent up to now is       42.6 secs

     total energy              =     -31.63735958 Ry
     Harris-Foulkes estimate   =     -31.63707587 Ry
     estimated scf accuracy    <       0.01555024 Ry

     iteration # 88     ecut=    30.00 Ry     beta=0.70
     Davidson diagonalization with overlap
     ethr =  1.06E-04,  avg # of iterations =  1.0

     total cpu time spent up to now is       42.6 secs

     total energy              =     -31.63940374 Ry
     Harris-Foulkes estimate   =     -31.63735964 Ry
     estimated scf accuracy    <       0.01589027 Ry

     iteration # 89     ecut=    30.00 Ry     beta=0.70
     Davidson diagonalization with overlap
     ethr =  1.06E-04,  avg # of iterations =  1.0

     total cpu time spent up to now is       42.6 secs

     total energy              =     -31.64127598 Ry
     Harris-Foulkes estimate   =     -31.63941659 Ry
     estimated scf accuracy    <       0.01884260 Ry

     iteration # 90     ecut=    30.00 Ry     beta=0.70
     Davidson diagonalization with overlap
     ethr =  1.06E-04,  avg # of iterations =  1.0

     total cpu time spent up to now is       42.7 secs

     total energy              =     -31.63159263 Ry
     Harris-Foulkes estimate   =     -31.64129206 Ry
     estimated scf accuracy    <       0.02174875 Ry

     iteration # 91     ecut=    30.00 Ry     beta=0.70
     Davidson diagonalization with overlap
     ethr =  1.06E-04,  avg # of iterations =  1.0

     total cpu time spent up to now is       42.7 secs

     total energy              =     -31.65480323 Ry
     Harris-Foulkes estimate   =     -31.62954633 Ry
     estimated scf accuracy    <       0.05954455 Ry

     iteration # 92     ecut=    30.00 Ry     beta=0.70
     Davidson diagonalization with overlap
     ethr =  1.06E-04,  avg # of iterations =  2.0

     total cpu time spent up to now is       42.8 secs

     total energy              =     -31.64397785 Ry
     Harris-Foulkes estimate   =     -31.64357125 Ry
     estimated scf accuracy    <       0.02517759 Ry

     iteration # 93     ecut=    30.00 Ry     beta=0.70
     Davidson diagonalization with overlap
     ethr =  1.06E-04,  avg # of iterations =  1.0

     total cpu time spent up to now is       42.8 secs

     total energy              =     -31.64058924 Ry
     Harris-Foulkes estimate   =     -31.64398559 Ry
     estimated scf accuracy    <       0.02578746 Ry

     iteration # 94     ecut=    30.00 Ry     beta=0.70
     Davidson diagonalization with overlap
     ethr =  1.06E-04,  avg # of iterations =  1.0

     total cpu time spent up to now is       42.9 secs

     total energy              =     -31.64405814 Ry
     Harris-Foulkes estimate   =     -31.64062360 Ry
     estimated scf accuracy    <       0.02080490 Ry

     iteration # 95     ecut=    30.00 Ry     beta=0.70
     Davidson diagonalization with overlap
     ethr =  1.06E-04,  avg # of iterations =  1.0

     total cpu time spent up to now is       42.9 secs

     total energy              =     -31.65166818 Ry
     Harris-Foulkes estimate   =     -31.64409783 Ry
     estimated scf accuracy    <       0.02593567 Ry

     iteration # 96     ecut=    30.00 Ry     beta=0.70
     Davidson diagonalization with overlap
     ethr =  1.06E-04,  avg # of iterations =  1.0

     total cpu time spent up to now is       43.0 secs

     total energy              =     -31.65241747 Ry
     Harris-Foulkes estimate   =     -31.65207946 Ry
     estimated scf accuracy    <       0.05308121 Ry

     iteration # 97     ecut=    30.00 Ry     beta=0.70
     Davidson diagonalization with overlap
     ethr =  1.06E-04,  avg # of iterations =  1.0

     total cpu time spent up to now is       43.0 secs

     total energy              =     -31.68138373 Ry
     Harris-Foulkes estimate   =     -31.65242648 Ry
     estimated scf accuracy    <       0.05707043 Ry

     iteration # 98     ecut=    30.00 Ry     beta=0.70
     Davidson diagonalization with overlap
     ethr =  1.06E-04,  avg # of iterations =  3.0

     total cpu time spent up to now is       43.1 secs

     total energy              =     -31.74310136 Ry
     Harris-Foulkes estimate   =     -31.80944189 Ry
     estimated scf accuracy    <       4.62764577 Ry

     iteration # 99     ecut=    30.00 Ry     beta=0.70
     Davidson diagonalization with overlap
     ethr =  1.06E-04,  avg # of iterations =  1.0

     negative rho (up, down):  1.304E-07 0.000E+00

     total cpu time spent up to now is       43.1 secs

     total energy              =     -32.11008034 Ry
     Harris-Foulkes estimate   =     -31.74085748 Ry
     estimated scf accuracy    <       4.99835344 Ry

     iteration #100     ecut=    30.00 Ry     beta=0.70
     Davidson diagonalization with overlap
     ethr =  1.06E-04,  avg # of iterations =  3.0

     negative rho (up, down):  3.122E-08 0.000E+00

     total cpu time spent up to now is       43.2 secs

     total energy              =     -31.07384815 Ry
     Harris-Foulkes estimate   =     -32.09414807 Ry
     estimated scf accuracy    <       4.94755148 Ry

     End of self-consistent calculation

     convergence NOT achieved after 100 iterations: stopping

     Writing output data file pwscf.save
 
     init_run     :      0.17s CPU      0.19s WALL (       1 calls)
     electrons    :     26.50s CPU     34.15s WALL (      17 calls)
     update_pot   :      4.20s CPU      5.95s WALL (      16 calls)
     forces       :      0.71s CPU      0.72s WALL (      16 calls)

     Called by init_run:
     wfcinit      :      0.01s CPU      0.02s WALL (       1 calls)
     potinit      :      0.05s CPU      0.05s WALL (       1 calls)

     Called by electrons:
     c_bands      :     11.80s CPU     13.24s WALL (     507 calls)
     sum_band     :      2.92s CPU      3.08s WALL (     507 calls)
     v_of_rho     :      6.22s CPU      6.88s WALL (     524 calls)
     mix_rho      :      3.98s CPU      7.66s WALL (     507 calls)

     Called by c_bands:
     init_us_2    :      0.08s CPU      0.10s WALL (    1015 calls)
     cegterg      :     11.61s CPU     12.55s WALL (     507 calls)

     Called by sum_band:

     Called by *egterg:
     h_psi        :      9.83s CPU     10.35s WALL (    1729 calls)
     g_psi        :      0.08s CPU      0.08s WALL (    1221 calls)
     cdiaghg      :      0.62s CPU      0.76s WALL (    1712 calls)

     Called by h_psi:
     h_psi:pot    :      9.78s CPU     10.29s WALL (    1729 calls)
     h_psi:calbec :      0.34s CPU      0.53s WALL (    1729 calls)
     vloc_psi     :      9.40s CPU      9.73s WALL (    1729 calls)
     add_vuspsi   :      0.02s CPU      0.02s WALL (    1729 calls)

     General routines
     calbec       :      0.56s CPU      0.77s WALL (    1808 calls)
     fft          :      4.17s CPU      4.65s WALL (    5796 calls)
     fftw         :     10.56s CPU     10.98s WALL (   23624 calls)
     davcio       :      0.58s CPU      3.07s WALL (    8640 calls)
 
     Parallel routines
     fft_scatter  :      5.64s CPU      6.36s WALL (   29420 calls)
 
     PWSCF        :    32.46s CPU        43.33s WALL

 
   This run was terminated on:  15:27:29  13Feb2018            

=------------------------------------------------------------------------------=
   JOB DONE.
=------------------------------------------------------------------------------=
