
     Program PWSCF v.6.0 (svn rev. 13079) starts on 13Feb2018 at 15:30:13 

     This program is part of the open-source Quantum ESPRESSO suite
     for quantum simulation of materials; please cite
         "P. Giannozzi et al., J. Phys.:Condens. Matter 21 395502 (2009);
          URL http://www.quantum-espresso.org", 
     in publications or presentations arising from this work. More details at
     http://www.quantum-espresso.org/quote

     Parallel version (MPI), running on    28 processors
     R & G space division:  proc/nbgrp/npool/nimage =      28
     Reading input from inputs/MD-H2O-round1/467.in

     Current dimensions of program PWSCF are:
     Max number of different atomic species (ntypx) = 10
     Max number of k-points (npk) =  40000
     Max angular momentum in pseudopotentials (lmaxx) =  3

     Subspace diagonalization in iterative solution of the eigenvalue problem:
     a serial algorithm will be used

 
     Parallelization info
     --------------------
     sticks:   dense  smooth     PW     G-vecs:    dense   smooth      PW
     Min         136     136     33                 6338     6338     787
     Max         137     137     34                 6341     6341     792
     Sum        3809    3809    949               177509   177509   22119
 


     bravais-lattice index     =            1
     lattice parameter (alat)  =      20.0000  a.u.
     unit-cell volume          =    8000.0000 (a.u.)^3
     number of atoms/cell      =            3
     number of atomic types    =            2
     number of electrons       =         8.00
     number of Kohn-Sham states=            8
     kinetic-energy cutoff     =      30.0000  Ry
     charge density cutoff     =     120.0000  Ry
     convergence threshold     =      1.0E-08
     mixing beta               =       0.7000
     number of iterations used =            8  plain     mixing
     Exchange-correlation      = BLYP ( 1  3  1  3 0 0)
     nstep                     =         5000


     celldm(1)=  20.000000  celldm(2)=   0.000000  celldm(3)=   0.000000
     celldm(4)=   0.000000  celldm(5)=   0.000000  celldm(6)=   0.000000

     crystal axes: (cart. coord. in units of alat)
               a(1) = (   1.000000   0.000000   0.000000 )  
               a(2) = (   0.000000   1.000000   0.000000 )  
               a(3) = (   0.000000   0.000000   1.000000 )  

     reciprocal axes: (cart. coord. in units 2 pi/alat)
               b(1) = (  1.000000  0.000000  0.000000 )  
               b(2) = (  0.000000  1.000000  0.000000 )  
               b(3) = (  0.000000  0.000000  1.000000 )  


     PseudoPot. # 1 for  H read from file:
     ./H.blyp-hgh.UPF
     MD5 check sum: c576e69559cde411e611be972c763230
     Pseudo is Norm-conserving, Zval =  1.0
     Generated in analytical, separable form
     Using radial grid of  929 points,  0 beta functions with: 

     PseudoPot. # 2 for  O read from file:
     ./O.blyp-hgh.UPF
     MD5 check sum: d0b7156309aa9befef28faac7bc56342
     Pseudo is Norm-conserving, Zval =  6.0
     Generated in analytical, separable form
     Using radial grid of 1095 points,  1 beta functions with: 
                l(1) =   0

     atomic species   valence    mass     pseudopotential
        H              1.00     1.01000      H( 1.00)
        O              6.00    16.00000      O( 1.00)

     No symmetry found



   Cartesian axes

     site n.     atom                  positions (alat units)
         1           O   tau(   1) = (   0.8334126   0.4972235   0.6278223  )
         2           H   tau(   2) = (   0.4171461   0.7406514   0.4790331  )
         3           H   tau(   3) = (   0.8408496   0.5541848   0.5698695  )

     number of k points=     1  Marzari-Vanderbilt smearing, width (Ry)=  0.0250
                       cart. coord. in units 2pi/alat
        k(    1) = (   0.0000000   0.0000000   0.0000000), wk =   2.0000000

     Dense  grid:   177509 G-vectors     FFT dimensions: (  72,  72,  72)

     Estimated max dynamical RAM per process >       6.09Mb

     Estimated total allocated dynamical RAM >     170.64Mb

     Initial potential from superposition of free atoms
     Check: negative starting charge=   -0.348737

     starting charge    7.99998, renormalised to    8.00000

     negative rho (up, down):  3.487E-01 0.000E+00
     Starting wfc are    6 randomized atomic wfcs +    2 random wfc

     total cpu time spent up to now is        0.3 secs

     per-process dynamical memory:    18.8 Mb

     Self-consistent Calculation

     iteration #  1     ecut=    30.00 Ry     beta=0.70
     Davidson diagonalization with overlap
     ethr =  1.00E-02,  avg # of iterations =  6.0

     negative rho (up, down):  9.394E-02 0.000E+00

     total cpu time spent up to now is        0.4 secs

     total energy              =     -31.65100731 Ry
     Harris-Foulkes estimate   =     -32.09224819 Ry
     estimated scf accuracy    <       0.44227123 Ry

     iteration #  2     ecut=    30.00 Ry     beta=0.70
     Davidson diagonalization with overlap
     ethr =  5.53E-03,  avg # of iterations =  3.0

     negative rho (up, down):  7.414E-02 0.000E+00

     total cpu time spent up to now is        0.5 secs

     total energy              =     -31.65295404 Ry
     Harris-Foulkes estimate   =     -32.18054606 Ry
     estimated scf accuracy    <       1.88128966 Ry

     iteration #  3     ecut=    30.00 Ry     beta=0.70
     Davidson diagonalization with overlap
     ethr =  5.53E-03,  avg # of iterations =  2.0

     negative rho (up, down):  2.845E-02 0.000E+00

     total cpu time spent up to now is        0.5 secs

     total energy              =     -31.72012571 Ry
     Harris-Foulkes estimate   =     -31.89105159 Ry
     estimated scf accuracy    <       1.11477795 Ry

     iteration #  4     ecut=    30.00 Ry     beta=0.70
     Davidson diagonalization with overlap
     ethr =  5.53E-03,  avg # of iterations =  1.0

     negative rho (up, down):  7.865E-03 0.000E+00

     total cpu time spent up to now is        0.6 secs

     total energy              =     -31.69348156 Ry
     Harris-Foulkes estimate   =     -31.91834145 Ry
     estimated scf accuracy    <       1.30560902 Ry

     iteration #  5     ecut=    30.00 Ry     beta=0.70
     Davidson diagonalization with overlap
     ethr =  5.53E-03,  avg # of iterations =  1.0

     negative rho (up, down):  7.437E-04 0.000E+00

     total cpu time spent up to now is        0.6 secs

     total energy              =     -31.88005558 Ry
     Harris-Foulkes estimate   =     -31.96988907 Ry
     estimated scf accuracy    <       1.00870864 Ry

     iteration #  6     ecut=    30.00 Ry     beta=0.70
     Davidson diagonalization with overlap
     ethr =  5.53E-03,  avg # of iterations =  1.0

     negative rho (up, down):  7.027E-04 0.000E+00

     total cpu time spent up to now is        0.7 secs

     total energy              =     -31.82436899 Ry
     Harris-Foulkes estimate   =     -31.88066517 Ry
     estimated scf accuracy    <       0.82243250 Ry

     iteration #  7     ecut=    30.00 Ry     beta=0.70
     Davidson diagonalization with overlap
     ethr =  5.53E-03,  avg # of iterations =  1.0

     negative rho (up, down):  2.140E-04 0.000E+00

     total cpu time spent up to now is        0.7 secs

     total energy              =     -31.85786334 Ry
     Harris-Foulkes estimate   =     -31.86663651 Ry
     estimated scf accuracy    <       0.73117088 Ry

     iteration #  8     ecut=    30.00 Ry     beta=0.70
     Davidson diagonalization with overlap
     ethr =  5.53E-03,  avg # of iterations =  1.0

     negative rho (up, down):  9.150E-06 0.000E+00

     total cpu time spent up to now is        0.7 secs

     total energy              =     -31.85126872 Ry
     Harris-Foulkes estimate   =     -31.85979168 Ry
     estimated scf accuracy    <       0.22123039 Ry

     iteration #  9     ecut=    30.00 Ry     beta=0.70
     Davidson diagonalization with overlap
     ethr =  2.77E-03,  avg # of iterations =  1.0

     negative rho (up, down):  2.019E-07 0.000E+00

     total cpu time spent up to now is        0.8 secs

     total energy              =     -31.85603878 Ry
     Harris-Foulkes estimate   =     -31.85782854 Ry
     estimated scf accuracy    <       0.05595840 Ry

     iteration # 10     ecut=    30.00 Ry     beta=0.70
     Davidson diagonalization with overlap
     ethr =  6.99E-04,  avg # of iterations =  1.0

     negative rho (up, down):  4.473E-07 0.000E+00

     total cpu time spent up to now is        0.8 secs

     total energy              =     -31.85691947 Ry
     Harris-Foulkes estimate   =     -31.85707993 Ry
     estimated scf accuracy    <       0.00196918 Ry

     iteration # 11     ecut=    30.00 Ry     beta=0.70
     Davidson diagonalization with overlap
     ethr =  2.46E-05,  avg # of iterations = 16.0

     negative rho (up, down):  5.037E-07 0.000E+00

     total cpu time spent up to now is        0.9 secs

     total energy              =     -31.85695961 Ry
     Harris-Foulkes estimate   =     -31.85715915 Ry
     estimated scf accuracy    <       0.00816754 Ry

     iteration # 12     ecut=    30.00 Ry     beta=0.70
     Davidson diagonalization with overlap
     ethr =  2.46E-05,  avg # of iterations =  1.0

     total cpu time spent up to now is        1.0 secs

     total energy              =     -31.85706125 Ry
     Harris-Foulkes estimate   =     -31.85705071 Ry
     estimated scf accuracy    <       0.00005053 Ry

     iteration # 13     ecut=    30.00 Ry     beta=0.70
     Davidson diagonalization with overlap
     ethr =  6.32E-07,  avg # of iterations = 14.0

     total cpu time spent up to now is        1.1 secs

     total energy              =     -31.85700026 Ry
     Harris-Foulkes estimate   =     -31.85708796 Ry
     estimated scf accuracy    <       0.00268697 Ry

     iteration # 14     ecut=    30.00 Ry     beta=0.70
     Davidson diagonalization with overlap
     ethr =  6.32E-07,  avg # of iterations =  1.0

     total cpu time spent up to now is        1.1 secs

     total energy              =     -31.85704916 Ry
     Harris-Foulkes estimate   =     -31.85705434 Ry
     estimated scf accuracy    <       0.00016217 Ry

     iteration # 15     ecut=    30.00 Ry     beta=0.70
     Davidson diagonalization with overlap
     ethr =  6.32E-07,  avg # of iterations =  1.0

     total cpu time spent up to now is        1.2 secs

     total energy              =     -31.85705189 Ry
     Harris-Foulkes estimate   =     -31.85705163 Ry
     estimated scf accuracy    <       0.00000105 Ry

     iteration # 16     ecut=    30.00 Ry     beta=0.70
     Davidson diagonalization with overlap
     ethr =  1.31E-08,  avg # of iterations =  1.0

     total cpu time spent up to now is        1.2 secs

     total energy              =     -31.85705201 Ry
     Harris-Foulkes estimate   =     -31.85705192 Ry
     estimated scf accuracy    <       0.00000011 Ry

     iteration # 17     ecut=    30.00 Ry     beta=0.70
     Davidson diagonalization with overlap
     ethr =  1.37E-09,  avg # of iterations =  1.0

     total cpu time spent up to now is        1.3 secs

     total energy              =     -31.85705204 Ry
     Harris-Foulkes estimate   =     -31.85705201 Ry
     estimated scf accuracy    <       0.00000002 Ry

     iteration # 18     ecut=    30.00 Ry     beta=0.70
     Davidson diagonalization with overlap
     ethr =  2.87E-10,  avg # of iterations =  1.0

     total cpu time spent up to now is        1.3 secs

     End of self-consistent calculation

          k = 0.0000 0.0000 0.0000 ( 22119 PWs)   bands (ev):

   -26.0605 -11.0709  -7.1758  -7.1740  -7.0297  -0.4691   0.4880   0.7628

     the Fermi energy is    -7.0025 ev

!    total energy              =     -31.85705204 Ry
     Harris-Foulkes estimate   =     -31.85705205 Ry
     estimated scf accuracy    <          7.4E-10 Ry

     convergence has been achieved in  18 iterations

     Forces acting on atoms (Ry/au):

     atom    1 type  2   force =    -0.05074499   -0.38676261    0.39366199
     atom    2 type  1   force =    -0.00002109    0.00077497   -0.00080007
     atom    3 type  1   force =     0.05076608    0.38598764   -0.39286192

     Total force =     0.782966     Total SCF correction =     0.000027

     Molecular Dynamics Calculation

     Starting temperature  =  1000.00 K

     temperature is controlled by Andersen thermostat
     Collision frequency = 1.0000/timestep
     mass H                =     1.01
     mass O                =    16.00
     Time step             =   100.00 a.u.,  4.8378 femto-seconds

     Entering Dynamics:    iteration =     1
                           time      =   0.0048 pico-seconds


     Andersen thermostat:    3 collisions

ATOMIC_POSITIONS (bohr)
O       16.646416029   9.808173949  12.690471776
H        8.326661464  14.833766092   9.845626753
H       17.179168904  13.222085427   9.009229788


     kinetic energy (Ekin) =     0.00678997 Ry
     temperature           =   357.35014991 K 
     Ekin + Etot (const)   =   -31.85026207 Ry

     Linear momentum :   -0.0000000000    0.0000000000    0.0000000000

     Writing output data file pwscf.save
     Check: negative starting charge=   -0.348737
     NEW-OLD atomic charge density approx. for the potential
     Check: negative starting charge=   -0.342236

     negative rho (up, down):  3.876E-01 0.000E+00

     total cpu time spent up to now is        1.7 secs

     per-process dynamical memory:    20.4 Mb

     Self-consistent Calculation

     iteration #  1     ecut=    30.00 Ry     beta=0.70
     Davidson diagonalization with overlap
     ethr =  1.00E-06,  avg # of iterations = 14.0

     negative rho (up, down):  9.294E-02 0.000E+00

     total cpu time spent up to now is        1.9 secs

     total energy              =     -16.29120542 Ry
     Harris-Foulkes estimate   =     -34.75069531 Ry
     estimated scf accuracy    <       9.32775097 Ry

     iteration #  2     ecut=    30.00 Ry     beta=0.70
     Davidson diagonalization with overlap
     ethr =  1.00E-02,  avg # of iterations =  6.0

     negative rho (up, down):  6.503E-02 0.000E+00

     total cpu time spent up to now is        2.0 secs

     total energy              =     -33.06502217 Ry
     Harris-Foulkes estimate   =     -40.84968890 Ry
     estimated scf accuracy    <      17.71699455 Ry

     iteration #  3     ecut=    30.00 Ry     beta=0.70
     Davidson diagonalization with overlap
     ethr =  1.00E-02,  avg # of iterations =  2.0

     negative rho (up, down):  4.664E-02 0.000E+00

     total cpu time spent up to now is        2.0 secs

     total energy              =     -31.65173436 Ry
     Harris-Foulkes estimate   =     -33.57709193 Ry
     estimated scf accuracy    <       6.09403940 Ry

     iteration #  4     ecut=    30.00 Ry     beta=0.70
     Davidson diagonalization with overlap
     ethr =  1.00E-02,  avg # of iterations =  4.0

     negative rho (up, down):  4.250E-02 0.000E+00

     total cpu time spent up to now is        2.1 secs

     total energy              =     -31.55579307 Ry
     Harris-Foulkes estimate   =     -31.87617536 Ry
     estimated scf accuracy    <       2.02342172 Ry

     iteration #  5     ecut=    30.00 Ry     beta=0.70
     Davidson diagonalization with overlap
     ethr =  1.00E-02,  avg # of iterations =  1.0

     negative rho (up, down):  1.650E-02 0.000E+00

     total cpu time spent up to now is        2.1 secs

     total energy              =     -31.13502933 Ry
     Harris-Foulkes estimate   =     -31.99925145 Ry
     estimated scf accuracy    <       3.12951953 Ry

     iteration #  6     ecut=    30.00 Ry     beta=0.70
     Davidson diagonalization with overlap
     ethr =  1.00E-02,  avg # of iterations =  1.0

     negative rho (up, down):  2.481E-02 0.000E+00

     total cpu time spent up to now is        2.2 secs

     total energy              =     -31.35557538 Ry
     Harris-Foulkes estimate   =     -32.02879094 Ry
     estimated scf accuracy    <       4.22150270 Ry

     iteration #  7     ecut=    30.00 Ry     beta=0.70
     Davidson diagonalization with overlap
     ethr =  1.00E-02,  avg # of iterations =  1.0

     negative rho (up, down):  2.430E-02 0.000E+00

     total cpu time spent up to now is        2.2 secs

     total energy              =     -31.63201939 Ry
     Harris-Foulkes estimate   =     -31.66920214 Ry
     estimated scf accuracy    <       1.67289915 Ry

     iteration #  8     ecut=    30.00 Ry     beta=0.70
     Davidson diagonalization with overlap
     ethr =  1.00E-02,  avg # of iterations =  1.0

     negative rho (up, down):  1.426E-02 0.000E+00

     total cpu time spent up to now is        2.3 secs

     total energy              =     -31.52593210 Ry
     Harris-Foulkes estimate   =     -31.65221290 Ry
     estimated scf accuracy    <       0.99806224 Ry

     iteration #  9     ecut=    30.00 Ry     beta=0.70
     Davidson diagonalization with overlap
     ethr =  1.00E-02,  avg # of iterations =  1.0

     negative rho (up, down):  7.265E-03 0.000E+00

     total cpu time spent up to now is        2.3 secs

     total energy              =     -31.62914858 Ry
     Harris-Foulkes estimate   =     -31.69832901 Ry
     estimated scf accuracy    <       3.45040597 Ry

     iteration # 10     ecut=    30.00 Ry     beta=0.70
     Davidson diagonalization with overlap
     ethr =  1.00E-02,  avg # of iterations =  1.0

     negative rho (up, down):  1.719E-04 0.000E+00

     total cpu time spent up to now is        2.4 secs

     total energy              =     -31.63962265 Ry
     Harris-Foulkes estimate   =     -31.63556581 Ry
     estimated scf accuracy    <       2.81478574 Ry

     iteration # 11     ecut=    30.00 Ry     beta=0.70
     Davidson diagonalization with overlap
     ethr =  1.00E-02,  avg # of iterations =  1.0

     negative rho (up, down):  8.444E-05 0.000E+00

     total cpu time spent up to now is        2.4 secs

     total energy              =     -31.59599938 Ry
     Harris-Foulkes estimate   =     -31.64589645 Ry
     estimated scf accuracy    <       2.05339354 Ry

     iteration # 12     ecut=    30.00 Ry     beta=0.70
     Davidson diagonalization with overlap
     ethr =  1.00E-02,  avg # of iterations =  1.0

     negative rho (up, down):  2.530E-04 0.000E+00

     total cpu time spent up to now is        2.5 secs

     total energy              =     -31.51311832 Ry
     Harris-Foulkes estimate   =     -31.60500791 Ry
     estimated scf accuracy    <       1.43074103 Ry

     iteration # 13     ecut=    30.00 Ry     beta=0.70
     Davidson diagonalization with overlap
     ethr =  1.00E-02,  avg # of iterations =  1.0

     negative rho (up, down):  5.916E-05 0.000E+00

     total cpu time spent up to now is        2.5 secs

     total energy              =     -31.56720823 Ry
     Harris-Foulkes estimate   =     -31.59021756 Ry
     estimated scf accuracy    <       1.16177188 Ry

     iteration # 14     ecut=    30.00 Ry     beta=0.70
     Davidson diagonalization with overlap
     ethr =  1.00E-02,  avg # of iterations =  1.0

     negative rho (up, down):  3.144E-05 0.000E+00

     total cpu time spent up to now is        2.6 secs

     total energy              =     -31.57087069 Ry
     Harris-Foulkes estimate   =     -31.57312954 Ry
     estimated scf accuracy    <       0.33075020 Ry

     iteration # 15     ecut=    30.00 Ry     beta=0.70
     Davidson diagonalization with overlap
     ethr =  4.13E-03,  avg # of iterations =  1.0

     negative rho (up, down):  2.438E-04 0.000E+00

     total cpu time spent up to now is        2.6 secs

     total energy              =     -31.56416639 Ry
     Harris-Foulkes estimate   =     -31.57099279 Ry
     estimated scf accuracy    <       0.27403329 Ry

     iteration # 16     ecut=    30.00 Ry     beta=0.70
     Davidson diagonalization with overlap
     ethr =  3.43E-03,  avg # of iterations =  1.0

     negative rho (up, down):  5.064E-04 0.000E+00

     total cpu time spent up to now is        2.7 secs

     total energy              =     -31.56707099 Ry
     Harris-Foulkes estimate   =     -31.57284393 Ry
     estimated scf accuracy    <       0.61916859 Ry

     iteration # 17     ecut=    30.00 Ry     beta=0.70
     Davidson diagonalization with overlap
     ethr =  3.43E-03,  avg # of iterations =  1.0

     negative rho (up, down):  1.089E-06 0.000E+00

     total cpu time spent up to now is        2.7 secs

     total energy              =     -31.57951069 Ry
     Harris-Foulkes estimate   =     -31.56917703 Ry
     estimated scf accuracy    <       0.27792487 Ry

     iteration # 18     ecut=    30.00 Ry     beta=0.70
     Davidson diagonalization with overlap
     ethr =  3.43E-03,  avg # of iterations =  1.0

     negative rho (up, down):  9.075E-07 0.000E+00

     total cpu time spent up to now is        2.8 secs

     total energy              =     -31.60918886 Ry
     Harris-Foulkes estimate   =     -31.60214792 Ry
     estimated scf accuracy    <       1.31189086 Ry

     iteration # 19     ecut=    30.00 Ry     beta=0.70
     Davidson diagonalization with overlap
     ethr =  3.43E-03,  avg # of iterations =  1.0

     negative rho (up, down):  3.135E-07 0.000E+00

     total cpu time spent up to now is        2.8 secs

     total energy              =     -31.61634495 Ry
     Harris-Foulkes estimate   =     -31.60968946 Ry
     estimated scf accuracy    <       1.23239327 Ry

     iteration # 20     ecut=    30.00 Ry     beta=0.70
     Davidson diagonalization with overlap
     ethr =  3.43E-03,  avg # of iterations =  1.0

     negative rho (up, down):  1.411E-05 0.000E+00

     total cpu time spent up to now is        2.9 secs

     total energy              =     -31.62980440 Ry
     Harris-Foulkes estimate   =     -31.61630259 Ry
     estimated scf accuracy    <       1.18989440 Ry

     iteration # 21     ecut=    30.00 Ry     beta=0.70
     Davidson diagonalization with overlap
     ethr =  3.43E-03,  avg # of iterations =  1.0

     negative rho (up, down):  1.204E-06 0.000E+00

     total cpu time spent up to now is        2.9 secs

     total energy              =     -31.60713010 Ry
     Harris-Foulkes estimate   =     -31.63488513 Ry
     estimated scf accuracy    <       1.45825025 Ry

     iteration # 22     ecut=    30.00 Ry     beta=0.70
     Davidson diagonalization with overlap
     ethr =  3.43E-03,  avg # of iterations =  1.0

     negative rho (up, down):  1.077E-07 0.000E+00

     total cpu time spent up to now is        3.0 secs

     total energy              =     -31.56502316 Ry
     Harris-Foulkes estimate   =     -31.60754630 Ry
     estimated scf accuracy    <       1.38841704 Ry

     iteration # 23     ecut=    30.00 Ry     beta=0.70
     Davidson diagonalization with overlap
     ethr =  3.43E-03,  avg # of iterations =  1.0

     negative rho (up, down):  3.078E-07 0.000E+00

     total cpu time spent up to now is        3.0 secs

     total energy              =     -31.54379163 Ry
     Harris-Foulkes estimate   =     -31.56358814 Ry
     estimated scf accuracy    <       0.98308356 Ry

     iteration # 24     ecut=    30.00 Ry     beta=0.70
     Davidson diagonalization with overlap
     ethr =  3.43E-03,  avg # of iterations =  1.0

     negative rho (up, down):  3.898E-08 0.000E+00

     total cpu time spent up to now is        3.1 secs

     total energy              =     -31.55774798 Ry
     Harris-Foulkes estimate   =     -31.55077647 Ry
     estimated scf accuracy    <       0.06515867 Ry

     iteration # 25     ecut=    30.00 Ry     beta=0.70
     Davidson diagonalization with overlap
     ethr =  8.14E-04,  avg # of iterations =  1.0

     total cpu time spent up to now is        3.1 secs

     total energy              =     -31.55627182 Ry
     Harris-Foulkes estimate   =     -31.57179251 Ry
     estimated scf accuracy    <       1.36378309 Ry

     iteration # 26     ecut=    30.00 Ry     beta=0.70
     Davidson diagonalization with overlap
     ethr =  8.14E-04,  avg # of iterations =  1.0

     total cpu time spent up to now is        3.1 secs

     total energy              =     -31.53873435 Ry
     Harris-Foulkes estimate   =     -31.55844729 Ry
     estimated scf accuracy    <       0.62437951 Ry

     iteration # 27     ecut=    30.00 Ry     beta=0.70
     Davidson diagonalization with overlap
     ethr =  8.14E-04,  avg # of iterations =  1.0

     total cpu time spent up to now is        3.2 secs

     total energy              =     -31.55002528 Ry
     Harris-Foulkes estimate   =     -31.55026236 Ry
     estimated scf accuracy    <       0.02654716 Ry

     iteration # 28     ecut=    30.00 Ry     beta=0.70
     Davidson diagonalization with overlap
     ethr =  3.32E-04,  avg # of iterations =  1.0

     total cpu time spent up to now is        3.2 secs

     total energy              =     -31.54975469 Ry
     Harris-Foulkes estimate   =     -31.55006772 Ry
     estimated scf accuracy    <       0.01135483 Ry

     iteration # 29     ecut=    30.00 Ry     beta=0.70
     Davidson diagonalization with overlap
     ethr =  1.42E-04,  avg # of iterations =  1.0

     total cpu time spent up to now is        3.3 secs

     total energy              =     -31.54991172 Ry
     Harris-Foulkes estimate   =     -31.54991530 Ry
     estimated scf accuracy    <       0.00002437 Ry

     iteration # 30     ecut=    30.00 Ry     beta=0.70
     Davidson diagonalization with overlap
     c_bands:  1 eigenvalues not converged
     ethr =  3.05E-07,  avg # of iterations = 20.0

     total cpu time spent up to now is        3.4 secs

     total energy              =     -31.54991294 Ry
     Harris-Foulkes estimate   =     -31.54991633 Ry
     estimated scf accuracy    <       0.00019685 Ry

     iteration # 31     ecut=    30.00 Ry     beta=0.70
     Davidson diagonalization with overlap
     ethr =  3.05E-07,  avg # of iterations = 11.0

     total cpu time spent up to now is        3.4 secs

     total energy              =     -31.54991252 Ry
     Harris-Foulkes estimate   =     -31.54991401 Ry
     estimated scf accuracy    <       0.00002551 Ry

     iteration # 32     ecut=    30.00 Ry     beta=0.70
     Davidson diagonalization with overlap
     ethr =  3.05E-07,  avg # of iterations =  1.0

     total cpu time spent up to now is        3.5 secs

     total energy              =     -31.54991306 Ry
     Harris-Foulkes estimate   =     -31.54991343 Ry
     estimated scf accuracy    <       0.00001360 Ry

     iteration # 33     ecut=    30.00 Ry     beta=0.70
     Davidson diagonalization with overlap
     ethr =  1.70E-07,  avg # of iterations =  1.0

     total cpu time spent up to now is        3.5 secs

     total energy              =     -31.54991319 Ry
     Harris-Foulkes estimate   =     -31.54991322 Ry
     estimated scf accuracy    <       0.00000006 Ry

     iteration # 34     ecut=    30.00 Ry     beta=0.70
     Davidson diagonalization with overlap
     ethr =  7.69E-10,  avg # of iterations =  1.0

     total cpu time spent up to now is        3.6 secs

     End of self-consistent calculation

          k = 0.0000 0.0000 0.0000 ( 22119 PWs)   bands (ev):

   -23.6418  -7.6317  -6.9847  -6.9838  -6.8573  -6.4957  -0.1478   0.5867

     the Fermi energy is    -6.8258 ev

!    total energy              =     -31.54991315 Ry
     Harris-Foulkes estimate   =     -31.54991319 Ry
     estimated scf accuracy    <          9.1E-09 Ry

     convergence has been achieved in  34 iterations

     Forces acting on atoms (Ry/au):

     atom    1 type  2   force =     0.00494500    0.03713251   -0.03974119
     atom    2 type  1   force =     0.00033725   -0.00047226    0.00045776
     atom    3 type  1   force =    -0.00528225   -0.03666025    0.03928342

     Total force =     0.076800     Total SCF correction =     0.000068

     Entering Dynamics:    iteration =     2
                           time      =   0.0097 pico-seconds


     Andersen thermostat:    3 collisions

ATOMIC_POSITIONS (bohr)
O       16.613800469   9.852974585  12.644710486
H        8.194291889  15.146233742   9.328229784
H       17.828220618  12.199904733  10.251558088


     kinetic energy (Ekin) =     0.12453444 Ry
     temperature           =  6554.13631306 K 
     Ekin + Etot (const)   =   -31.42537872 Ry
     Message from routine dynamics:
     Total linear momentum <> 0

     Linear momentum :   -0.1704736794   -0.4780732785    0.1084678605

     Writing output data file pwscf.save

     first order wave-functions extrapolation
     Check: negative starting charge=   -0.342236
     first order charge density extrapolation
     Check: negative starting charge=   -0.344070

     negative rho (up, down):  6.244E-01 0.000E+00

     total cpu time spent up to now is        4.0 secs

     per-process dynamical memory:    20.4 Mb

     Self-consistent Calculation

     iteration #  1     ecut=    30.00 Ry     beta=0.70
     Davidson diagonalization with overlap
     ethr =  1.00E-06,  avg # of iterations = 16.0

     negative rho (up, down):  1.630E-01 0.000E+00

     total cpu time spent up to now is        4.3 secs

     total energy              =      20.70026044 Ry
     Harris-Foulkes estimate   =    -147.82557101 Ry
     estimated scf accuracy    <      12.97256362 Ry

     iteration #  2     ecut=    30.00 Ry     beta=0.70
     Davidson diagonalization with overlap
     ethr =  1.00E-02,  avg # of iterations =  5.0

     negative rho (up, down):  1.983E-02 0.000E+00

     total cpu time spent up to now is        4.4 secs

     total energy              =     -30.11035283 Ry
     Harris-Foulkes estimate   =     -40.68891860 Ry
     estimated scf accuracy    <      23.16344343 Ry

     iteration #  3     ecut=    30.00 Ry     beta=0.70
     Davidson diagonalization with overlap
     ethr =  1.00E-02,  avg # of iterations =  5.0

     negative rho (up, down):  1.467E-02 0.000E+00

     total cpu time spent up to now is        4.5 secs

     total energy              =     -32.17114234 Ry
     Harris-Foulkes estimate   =     -34.77210400 Ry
     estimated scf accuracy    <       7.74619279 Ry

     iteration #  4     ecut=    30.00 Ry     beta=0.70
     Davidson diagonalization with overlap
     ethr =  1.00E-02,  avg # of iterations =  2.0

     negative rho (up, down):  1.537E-02 0.000E+00

     total cpu time spent up to now is        4.5 secs

     total energy              =     -32.63578777 Ry
     Harris-Foulkes estimate   =     -32.97609585 Ry
     estimated scf accuracy    <       3.83174014 Ry

     iteration #  5     ecut=    30.00 Ry     beta=0.70
     Davidson diagonalization with overlap
     ethr =  1.00E-02,  avg # of iterations =  2.0

     negative rho (up, down):  2.749E-02 0.000E+00

     total cpu time spent up to now is        4.6 secs

     total energy              =     -31.49279474 Ry
     Harris-Foulkes estimate   =     -32.65227165 Ry
     estimated scf accuracy    <       3.51732379 Ry

     iteration #  6     ecut=    30.00 Ry     beta=0.70
     Davidson diagonalization with overlap
     ethr =  1.00E-02,  avg # of iterations =  2.0

     negative rho (up, down):  3.164E-02 0.000E+00

     total cpu time spent up to now is        4.6 secs

     total energy              =     -32.16818239 Ry
     Harris-Foulkes estimate   =     -32.54116142 Ry
     estimated scf accuracy    <       2.25587251 Ry

     iteration #  7     ecut=    30.00 Ry     beta=0.70
     Davidson diagonalization with overlap
     ethr =  1.00E-02,  avg # of iterations =  1.0

     negative rho (up, down):  3.625E-02 0.000E+00

     total cpu time spent up to now is        4.7 secs

     total energy              =     -31.79805391 Ry
     Harris-Foulkes estimate   =     -32.19032469 Ry
     estimated scf accuracy    <       1.72409269 Ry

     iteration #  8     ecut=    30.00 Ry     beta=0.70
     Davidson diagonalization with overlap
     ethr =  1.00E-02,  avg # of iterations =  1.0

     negative rho (up, down):  2.428E-02 0.000E+00

     total cpu time spent up to now is        4.7 secs

     total energy              =     -30.63270499 Ry
     Harris-Foulkes estimate   =     -31.82414385 Ry
     estimated scf accuracy    <       1.06907959 Ry

     iteration #  9     ecut=    30.00 Ry     beta=0.70
     Davidson diagonalization with overlap
     ethr =  1.00E-02,  avg # of iterations =  2.0

     negative rho (up, down):  2.499E-02 0.000E+00

     total cpu time spent up to now is        4.8 secs

     total energy              =     -31.79741755 Ry
     Harris-Foulkes estimate   =     -31.80916993 Ry
     estimated scf accuracy    <       1.80062780 Ry

     iteration # 10     ecut=    30.00 Ry     beta=0.70
     Davidson diagonalization with overlap
     ethr =  1.00E-02,  avg # of iterations =  1.0

     negative rho (up, down):  7.270E-02 0.000E+00

     total cpu time spent up to now is        4.8 secs

     total energy              =     -31.91695192 Ry
     Harris-Foulkes estimate   =     -31.79841972 Ry
     estimated scf accuracy    <       1.69089081 Ry

     iteration # 11     ecut=    30.00 Ry     beta=0.70
     Davidson diagonalization with overlap
     ethr =  1.00E-02,  avg # of iterations =  2.0

     negative rho (up, down):  2.193E-02 0.000E+00

     total cpu time spent up to now is        4.9 secs

     total energy              =     -31.88865343 Ry
     Harris-Foulkes estimate   =     -32.00046997 Ry
     estimated scf accuracy    <       1.50150940 Ry

     iteration # 12     ecut=    30.00 Ry     beta=0.70
     Davidson diagonalization with overlap
     ethr =  1.00E-02,  avg # of iterations =  1.0

     negative rho (up, down):  1.847E-02 0.000E+00

     total cpu time spent up to now is        4.9 secs

     total energy              =     -31.31860571 Ry
     Harris-Foulkes estimate   =     -31.89134935 Ry
     estimated scf accuracy    <       1.30306977 Ry

     iteration # 13     ecut=    30.00 Ry     beta=0.70
     Davidson diagonalization with overlap
     ethr =  1.00E-02,  avg # of iterations =  1.0

     negative rho (up, down):  1.098E-02 0.000E+00

     total cpu time spent up to now is        5.0 secs

     total energy              =     -32.06600401 Ry
     Harris-Foulkes estimate   =     -32.16827764 Ry
     estimated scf accuracy    <       2.07782911 Ry

     iteration # 14     ecut=    30.00 Ry     beta=0.70
     Davidson diagonalization with overlap
     ethr =  1.00E-02,  avg # of iterations =  1.0

     negative rho (up, down):  4.854E-03 0.000E+00

     total cpu time spent up to now is        5.0 secs

     total energy              =     -31.62255139 Ry
     Harris-Foulkes estimate   =     -32.06691243 Ry
     estimated scf accuracy    <       1.91074941 Ry

     iteration # 15     ecut=    30.00 Ry     beta=0.70
     Davidson diagonalization with overlap
     ethr =  1.00E-02,  avg # of iterations =  2.0

     negative rho (up, down):  1.364E-03 0.000E+00

     total cpu time spent up to now is        5.1 secs

     total energy              =     -31.68177493 Ry
     Harris-Foulkes estimate   =     -31.71410327 Ry
     estimated scf accuracy    <       0.10102839 Ry

     iteration # 16     ecut=    30.00 Ry     beta=0.70
     Davidson diagonalization with overlap
     ethr =  1.26E-03,  avg # of iterations =  2.0

     negative rho (up, down):  7.389E-06 0.000E+00

     total cpu time spent up to now is        5.1 secs

     total energy              =     -31.63393330 Ry
     Harris-Foulkes estimate   =     -31.74516069 Ry
     estimated scf accuracy    <       0.81519854 Ry

     iteration # 17     ecut=    30.00 Ry     beta=0.70
     Davidson diagonalization with overlap
     ethr =  1.26E-03,  avg # of iterations =  2.0

     negative rho (up, down):  1.567E-03 0.000E+00

     total cpu time spent up to now is        5.2 secs

     total energy              =     -31.69939076 Ry
     Harris-Foulkes estimate   =     -31.72403100 Ry
     estimated scf accuracy    <       1.56101030 Ry

     iteration # 18     ecut=    30.00 Ry     beta=0.70
     Davidson diagonalization with overlap
     ethr =  1.26E-03,  avg # of iterations =  1.0

     negative rho (up, down):  3.186E-04 0.000E+00

     total cpu time spent up to now is        5.2 secs

     total energy              =     -31.67023326 Ry
     Harris-Foulkes estimate   =     -31.70300333 Ry
     estimated scf accuracy    <       0.65215442 Ry

     iteration # 19     ecut=    30.00 Ry     beta=0.70
     Davidson diagonalization with overlap
     ethr =  1.26E-03,  avg # of iterations =  1.0

     negative rho (up, down):  1.700E-04 0.000E+00

     total cpu time spent up to now is        5.3 secs

     total energy              =     -31.68438004 Ry
     Harris-Foulkes estimate   =     -31.69966252 Ry
     estimated scf accuracy    <       0.38356628 Ry

     iteration # 20     ecut=    30.00 Ry     beta=0.70
     Davidson diagonalization with overlap
     ethr =  1.26E-03,  avg # of iterations =  1.0

     negative rho (up, down):  3.797E-05 0.000E+00

     total cpu time spent up to now is        5.3 secs

     total energy              =     -31.69422517 Ry
     Harris-Foulkes estimate   =     -31.69443267 Ry
     estimated scf accuracy    <       0.06925330 Ry

     iteration # 21     ecut=    30.00 Ry     beta=0.70
     Davidson diagonalization with overlap
     ethr =  8.66E-04,  avg # of iterations =  1.0

     negative rho (up, down):  1.721E-07 0.000E+00

     total cpu time spent up to now is        5.4 secs

     total energy              =     -31.69204420 Ry
     Harris-Foulkes estimate   =     -31.69424664 Ry
     estimated scf accuracy    <       0.05725882 Ry

     iteration # 22     ecut=    30.00 Ry     beta=0.70
     Davidson diagonalization with overlap
     ethr =  7.16E-04,  avg # of iterations =  1.0

     negative rho (up, down):  1.234E-08 0.000E+00

     total cpu time spent up to now is        5.4 secs

     total energy              =     -31.69339396 Ry
     Harris-Foulkes estimate   =     -31.69370313 Ry
     estimated scf accuracy    <       0.01430677 Ry

     iteration # 23     ecut=    30.00 Ry     beta=0.70
     Davidson diagonalization with overlap
     ethr =  1.79E-04,  avg # of iterations =  1.0

     total cpu time spent up to now is        5.5 secs

     total energy              =     -31.69350656 Ry
     Harris-Foulkes estimate   =     -31.69351945 Ry
     estimated scf accuracy    <       0.00043817 Ry

     iteration # 24     ecut=    30.00 Ry     beta=0.70
     Davidson diagonalization with overlap
     ethr =  5.48E-06,  avg # of iterations = 14.0

     total cpu time spent up to now is        5.5 secs

     total energy              =     -31.69351389 Ry
     Harris-Foulkes estimate   =     -31.69351444 Ry
     estimated scf accuracy    <       0.00001377 Ry

     iteration # 25     ecut=    30.00 Ry     beta=0.70
     Davidson diagonalization with overlap
     ethr =  1.72E-07,  avg # of iterations =  1.0

     total cpu time spent up to now is        5.6 secs

     total energy              =     -31.69351421 Ry
     Harris-Foulkes estimate   =     -31.69351465 Ry
     estimated scf accuracy    <       0.00001611 Ry

     iteration # 26     ecut=    30.00 Ry     beta=0.70
     Davidson diagonalization with overlap
     ethr =  1.72E-07,  avg # of iterations =  1.0

     total cpu time spent up to now is        5.6 secs

     End of self-consistent calculation

          k = 0.0000 0.0000 0.0000 ( 22119 PWs)   bands (ev):

   -23.6108  -8.5359  -6.9239  -6.9233  -6.7886  -4.9034  -0.1039   0.6515

     the Fermi energy is    -6.7547 ev

!    total energy              =     -31.69351439 Ry
     Harris-Foulkes estimate   =     -31.69351441 Ry
     estimated scf accuracy    <          8.3E-09 Ry

     convergence has been achieved in  26 iterations

     Forces acting on atoms (Ry/au):

     atom    1 type  2   force =     0.05129567    0.10007070   -0.10199167
     atom    2 type  1   force =     0.00034942   -0.00000517    0.00001219
     atom    3 type  1   force =    -0.05164509   -0.10006553    0.10197948

     Total force =     0.214774     Total SCF correction =     0.000017

     Entering Dynamics:    iteration =     3
                           time      =   0.0145 pico-seconds


     Andersen thermostat:    3 collisions

ATOMIC_POSITIONS (bohr)
O       16.646362859   9.937893187  12.565465616
H        8.339128521  14.979886128   9.340528296
H       17.167544149  11.021007172  11.494623861


     kinetic energy (Ekin) =     0.05424427 Ry
     temperature           =  2854.82746443 K 
     Ekin + Etot (const)   =   -31.63927012 Ry
     Message from routine dynamics:
     Total linear momentum <> 0

     Linear momentum :    0.1787055280    0.1401610093   -0.2625475312

     Writing output data file pwscf.save

     second order wave-functions extrapolation
     Check: negative starting charge=   -0.344070
     second order charge density extrapolation
     Check: negative starting charge=   -0.349227

     negative rho (up, down):  3.515E-01 0.000E+00

     total cpu time spent up to now is        6.1 secs

     per-process dynamical memory:    20.4 Mb

     Self-consistent Calculation

     iteration #  1     ecut=    30.00 Ry     beta=0.70
     Davidson diagonalization with overlap
     c_bands:  1 eigenvalues not converged
     ethr =  1.00E-06,  avg # of iterations = 20.0

     negative rho (up, down):  5.631E-02 0.000E+00

     total cpu time spent up to now is        6.2 secs

     total energy              =     -26.85408056 Ry
     Harris-Foulkes estimate   =     -32.62906647 Ry
     estimated scf accuracy    <       2.74835591 Ry

     iteration #  2     ecut=    30.00 Ry     beta=0.70
     Davidson diagonalization with overlap
     ethr =  1.00E-02,  avg # of iterations =  3.0

     negative rho (up, down):  3.613E-02 0.000E+00

     total cpu time spent up to now is        6.3 secs

     total energy              =     -31.77886306 Ry
     Harris-Foulkes estimate   =     -33.13318609 Ry
     estimated scf accuracy    <       3.23166646 Ry

     iteration #  3     ecut=    30.00 Ry     beta=0.70
     Davidson diagonalization with overlap
     ethr =  1.00E-02,  avg # of iterations =  1.0

     negative rho (up, down):  3.068E-02 0.000E+00

     total cpu time spent up to now is        6.3 secs

     total energy              =     -31.98301825 Ry
     Harris-Foulkes estimate   =     -32.62767663 Ry
     estimated scf accuracy    <       2.63196398 Ry

     iteration #  4     ecut=    30.00 Ry     beta=0.70
     Davidson diagonalization with overlap
     ethr =  1.00E-02,  avg # of iterations =  1.0

     negative rho (up, down):  1.957E-02 0.000E+00

     total cpu time spent up to now is        6.4 secs

     total energy              =     -31.84409880 Ry
     Harris-Foulkes estimate   =     -32.02824486 Ry
     estimated scf accuracy    <       0.67029978 Ry

     iteration #  5     ecut=    30.00 Ry     beta=0.70
     Davidson diagonalization with overlap
     ethr =  8.38E-03,  avg # of iterations =  1.0

     negative rho (up, down):  1.211E-02 0.000E+00

     total cpu time spent up to now is        6.4 secs

     total energy              =     -31.80646391 Ry
     Harris-Foulkes estimate   =     -32.04611418 Ry
     estimated scf accuracy    <       1.51913888 Ry

     iteration #  6     ecut=    30.00 Ry     beta=0.70
     Davidson diagonalization with overlap
     ethr =  8.38E-03,  avg # of iterations =  1.0

     negative rho (up, down):  7.404E-03 0.000E+00

     total cpu time spent up to now is        6.5 secs

     total energy              =     -31.80309286 Ry
     Harris-Foulkes estimate   =     -31.86603377 Ry
     estimated scf accuracy    <       0.75769808 Ry

     iteration #  7     ecut=    30.00 Ry     beta=0.70
     Davidson diagonalization with overlap
     ethr =  8.38E-03,  avg # of iterations =  1.0

     negative rho (up, down):  4.929E-04 0.000E+00

     total cpu time spent up to now is        6.5 secs

     total energy              =     -31.79296092 Ry
     Harris-Foulkes estimate   =     -31.86658100 Ry
     estimated scf accuracy    <       1.48988684 Ry

     iteration #  8     ecut=    30.00 Ry     beta=0.70
     Davidson diagonalization with overlap
     ethr =  8.38E-03,  avg # of iterations =  1.0

     negative rho (up, down):  6.536E-04 0.000E+00

     total cpu time spent up to now is        6.6 secs

     total energy              =     -31.82958604 Ry
     Harris-Foulkes estimate   =     -31.85384770 Ry
     estimated scf accuracy    <       0.54427744 Ry

     iteration #  9     ecut=    30.00 Ry     beta=0.70
     Davidson diagonalization with overlap
     ethr =  6.80E-03,  avg # of iterations =  1.0

     negative rho (up, down):  4.255E-04 0.000E+00

     total cpu time spent up to now is        6.6 secs

     total energy              =     -31.84317071 Ry
     Harris-Foulkes estimate   =     -31.84472346 Ry
     estimated scf accuracy    <       0.09739820 Ry

     iteration # 10     ecut=    30.00 Ry     beta=0.70
     Davidson diagonalization with overlap
     ethr =  1.22E-03,  avg # of iterations =  1.0

     total cpu time spent up to now is        6.7 secs

     total energy              =     -31.84458340 Ry
     Harris-Foulkes estimate   =     -31.84391477 Ry
     estimated scf accuracy    <       0.00677747 Ry

     iteration # 11     ecut=    30.00 Ry     beta=0.70
     Davidson diagonalization with overlap
     ethr =  8.47E-05,  avg # of iterations =  7.0

     total cpu time spent up to now is        6.7 secs

     total energy              =     -31.84436561 Ry
     Harris-Foulkes estimate   =     -31.84466895 Ry
     estimated scf accuracy    <       0.02165858 Ry

     iteration # 12     ecut=    30.00 Ry     beta=0.70
     Davidson diagonalization with overlap
     ethr =  8.47E-05,  avg # of iterations =  1.0

     total cpu time spent up to now is        6.8 secs

     total energy              =     -31.84428138 Ry
     Harris-Foulkes estimate   =     -31.84445113 Ry
     estimated scf accuracy    <       0.00456626 Ry

     iteration # 13     ecut=    30.00 Ry     beta=0.70
     Davidson diagonalization with overlap
     ethr =  5.71E-05,  avg # of iterations =  1.0

     total cpu time spent up to now is        6.8 secs

     total energy              =     -31.84442372 Ry
     Harris-Foulkes estimate   =     -31.84440440 Ry
     estimated scf accuracy    <       0.00089765 Ry

     iteration # 14     ecut=    30.00 Ry     beta=0.70
     Davidson diagonalization with overlap
     ethr =  1.12E-05,  avg # of iterations =  3.0

     total cpu time spent up to now is        6.9 secs

     total energy              =     -31.84435129 Ry
     Harris-Foulkes estimate   =     -31.84443137 Ry
     estimated scf accuracy    <       0.00291949 Ry

     iteration # 15     ecut=    30.00 Ry     beta=0.70
     Davidson diagonalization with overlap
     ethr =  1.12E-05,  avg # of iterations =  1.0

     total cpu time spent up to now is        6.9 secs

     total energy              =     -31.84439229 Ry
     Harris-Foulkes estimate   =     -31.84439204 Ry
     estimated scf accuracy    <       0.00000401 Ry

     iteration # 16     ecut=    30.00 Ry     beta=0.70
     Davidson diagonalization with overlap
     ethr =  5.01E-08,  avg # of iterations =  7.0

     total cpu time spent up to now is        7.0 secs

     total energy              =     -31.84439179 Ry
     Harris-Foulkes estimate   =     -31.84439246 Ry
     estimated scf accuracy    <       0.00002675 Ry

     iteration # 17     ecut=    30.00 Ry     beta=0.70
     Davidson diagonalization with overlap
     ethr =  5.01E-08,  avg # of iterations =  1.0

     total cpu time spent up to now is        7.0 secs

     total energy              =     -31.84439218 Ry
     Harris-Foulkes estimate   =     -31.84439219 Ry
     estimated scf accuracy    <       0.00000009 Ry

     iteration # 18     ecut=    30.00 Ry     beta=0.70
     Davidson diagonalization with overlap
     ethr =  1.07E-09,  avg # of iterations =  1.0

     total cpu time spent up to now is        7.1 secs

     End of self-consistent calculation

          k = 0.0000 0.0000 0.0000 ( 22119 PWs)   bands (ev):

   -26.1583 -11.0849  -7.1762  -7.1746  -7.0298  -0.4599   0.5106   0.7537

     the Fermi energy is    -7.0029 ev

!    total energy              =     -31.84439218 Ry
     Harris-Foulkes estimate   =     -31.84439219 Ry
     estimated scf accuracy    <          4.6E-09 Ry

     convergence has been achieved in  18 iterations

     Forces acting on atoms (Ry/au):

     atom    1 type  2   force =    -0.19534887   -0.40654785    0.40212889
     atom    2 type  1   force =     0.00037437    0.00071798   -0.00077748
     atom    3 type  1   force =     0.19497451    0.40582987   -0.40135141

     Total force =     0.853784     Total SCF correction =     0.000081

     Entering Dynamics:    iteration =     4
                           time      =   0.0194 pico-seconds


     Andersen thermostat:    3 collisions

ATOMIC_POSITIONS (bohr)
O       16.480754971   9.666689193  12.826812790
H        8.529806907  15.037192973   9.195860825
H       19.600357056  15.260001217   7.499138075


     kinetic energy (Ekin) =     0.46331796 Ry
     temperature           = 24384.01109794 K 
     Ekin + Etot (const)   =   -31.38107422 Ry
     Message from routine dynamics:
     Total linear momentum <> 0

     Linear momentum :   -0.1136467753   -0.0025382674   -0.1928042847

     Writing output data file pwscf.save

     second order wave-functions extrapolation
     Check: negative starting charge=   -0.349227
     second order charge density extrapolation
     Check: negative starting charge=   -0.346294

     negative rho (up, down):  1.353E+00 0.000E+00

     total cpu time spent up to now is        7.5 secs

     per-process dynamical memory:    20.4 Mb

     Self-consistent Calculation

     iteration #  1     ecut=    30.00 Ry     beta=0.70
     Davidson diagonalization with overlap
     ethr =  1.00E-06,  avg # of iterations = 10.0

     negative rho (up, down):  2.538E-01 0.000E+00

     total cpu time spent up to now is        7.7 secs

     total energy              =      91.48575938 Ry
     Harris-Foulkes estimate   =   -8635.82243255 Ry
     estimated scf accuracy    <      18.93745571 Ry

     iteration #  2     ecut=    30.00 Ry     beta=0.70
     Davidson diagonalization with overlap
     ethr =  1.00E-02,  avg # of iterations = 11.0

     negative rho (up, down):  1.087E-01 0.000E+00

     total cpu time spent up to now is        7.8 secs

     total energy              =     -16.07540899 Ry
     Harris-Foulkes estimate   =     -55.15258717 Ry
     estimated scf accuracy    <      33.84615160 Ry

     iteration #  3     ecut=    30.00 Ry     beta=0.70
     Davidson diagonalization with overlap
     ethr =  1.00E-02,  avg # of iterations =  6.0

     negative rho (up, down):  8.412E-02 0.000E+00

     total cpu time spent up to now is        7.9 secs

     total energy              =      -1.28661733 Ry
     Harris-Foulkes estimate   =    -126.09406047 Ry
     estimated scf accuracy    <       9.19996045 Ry

     iteration #  4     ecut=    30.00 Ry     beta=0.70
     Davidson diagonalization with overlap
     ethr =  1.00E-02,  avg # of iterations =  5.0

     negative rho (up, down):  6.753E-02 0.000E+00

     total cpu time spent up to now is        7.9 secs

     total energy              =     -32.08398683 Ry
     Harris-Foulkes estimate   =     -33.64450725 Ry
     estimated scf accuracy    <       5.49189197 Ry

     iteration #  5     ecut=    30.00 Ry     beta=0.70
     Davidson diagonalization with overlap
     ethr =  1.00E-02,  avg # of iterations =  4.0

     negative rho (up, down):  6.254E-02 0.000E+00

     total cpu time spent up to now is        8.0 secs

     total energy              =     -23.76026758 Ry
     Harris-Foulkes estimate   =     -34.17277138 Ry
     estimated scf accuracy    <       4.46304914 Ry

     iteration #  6     ecut=    30.00 Ry     beta=0.70
     Davidson diagonalization with overlap
     ethr =  1.00E-02,  avg # of iterations =  4.0

     negative rho (up, down):  5.329E-02 0.000E+00

     total cpu time spent up to now is        8.0 secs

     total energy              =     -20.93930249 Ry
     Harris-Foulkes estimate   =     -34.73917504 Ry
     estimated scf accuracy    <       9.93786483 Ry

     iteration #  7     ecut=    30.00 Ry     beta=0.70
     Davidson diagonalization with overlap
     ethr =  1.00E-02,  avg # of iterations =  4.0

     negative rho (up, down):  5.946E-02 0.000E+00

     total cpu time spent up to now is        8.1 secs

     total energy              =     -31.94789428 Ry
     Harris-Foulkes estimate   =     -32.28050896 Ry
     estimated scf accuracy    <       3.05483793 Ry

     iteration #  8     ecut=    30.00 Ry     beta=0.70
     Davidson diagonalization with overlap
     ethr =  1.00E-02,  avg # of iterations =  1.0

     negative rho (up, down):  4.831E-02 0.000E+00

     total cpu time spent up to now is        8.1 secs

     total energy              =     -31.52806354 Ry
     Harris-Foulkes estimate   =     -32.01963291 Ry
     estimated scf accuracy    <       2.64633396 Ry

     iteration #  9     ecut=    30.00 Ry     beta=0.70
     Davidson diagonalization with overlap
     ethr =  1.00E-02,  avg # of iterations =  1.0

     negative rho (up, down):  4.084E-02 0.000E+00

     total cpu time spent up to now is        8.2 secs

     total energy              =     -31.64224756 Ry
     Harris-Foulkes estimate   =     -31.70301048 Ry
     estimated scf accuracy    <       1.42725228 Ry

     iteration # 10     ecut=    30.00 Ry     beta=0.70
     Davidson diagonalization with overlap
     ethr =  1.00E-02,  avg # of iterations =  1.0

     negative rho (up, down):  2.604E-01 0.000E+00

     total cpu time spent up to now is        8.2 secs

     total energy              =     -36.49405966 Ry
     Harris-Foulkes estimate   =     -31.66554185 Ry
     estimated scf accuracy    <       2.02105441 Ry

     iteration # 11     ecut=    30.00 Ry     beta=0.70
     Davidson diagonalization with overlap
     ethr =  1.00E-02,  avg # of iterations =  4.0

     negative rho (up, down):  1.929E-01 0.000E+00

     total cpu time spent up to now is        8.3 secs

     total energy              =    2547.91503434 Ry
     Harris-Foulkes estimate   =    -223.11908947 Ry
     estimated scf accuracy    <      30.18681013 Ry

     iteration # 12     ecut=    30.00 Ry     beta=0.70
     Davidson diagonalization with overlap
     ethr =  1.00E-02,  avg # of iterations =  5.0

     negative rho (up, down):  1.939E-01 0.000E+00

     total cpu time spent up to now is        8.4 secs

     total energy              =      -5.86902691 Ry
     Harris-Foulkes estimate   =    -303.69687051 Ry
     estimated scf accuracy    <       8.02850567 Ry

     iteration # 13     ecut=    30.00 Ry     beta=0.70
     Davidson diagonalization with overlap
     ethr =  1.00E-02,  avg # of iterations =  4.0

     negative rho (up, down):  1.944E-01 0.000E+00

     total cpu time spent up to now is        8.5 secs

     total energy              =    -110.73170563 Ry
     Harris-Foulkes estimate   =     -55.55596191 Ry
     estimated scf accuracy    <      12.03223283 Ry

     iteration # 14     ecut=    30.00 Ry     beta=0.70
     Davidson diagonalization with overlap
     ethr =  1.00E-02,  avg # of iterations =  4.0

     negative rho (up, down):  1.804E-01 0.000E+00

     total cpu time spent up to now is        8.5 secs

     total energy              =    -654.78212158 Ry
     Harris-Foulkes estimate   =    -357.24720747 Ry
     estimated scf accuracy    <      41.35174161 Ry

     iteration # 15     ecut=    30.00 Ry     beta=0.70
     Davidson diagonalization with overlap
     ethr =  1.00E-02,  avg # of iterations =  4.0

     negative rho (up, down):  1.581E-01 0.000E+00

     total cpu time spent up to now is        8.6 secs

     total energy              =    -791.08511420 Ry
     Harris-Foulkes estimate   =   -1186.18905437 Ry
     estimated scf accuracy    <      41.67913000 Ry

     iteration # 16     ecut=    30.00 Ry     beta=0.70
     Davidson diagonalization with overlap
     ethr =  1.00E-02,  avg # of iterations =  4.0

     negative rho (up, down):  6.003E-02 0.000E+00

     total cpu time spent up to now is        8.7 secs

     total energy              =    -325.84595924 Ry
     Harris-Foulkes estimate   =   -2600.20363157 Ry
     estimated scf accuracy    <      34.35556938 Ry

     iteration # 17     ecut=    30.00 Ry     beta=0.70
     Davidson diagonalization with overlap
     ethr =  1.00E-02,  avg # of iterations =  7.0

     negative rho (up, down):  1.473E-01 0.000E+00

     total cpu time spent up to now is        8.7 secs

     total energy              =      -1.93756980 Ry
     Harris-Foulkes estimate   =    -576.87409433 Ry
     estimated scf accuracy    <      26.52889270 Ry

     iteration # 18     ecut=    30.00 Ry     beta=0.70
     Davidson diagonalization with overlap
     ethr =  1.00E-02,  avg # of iterations =  4.0

     negative rho (up, down):  1.308E-01 0.000E+00

     total cpu time spent up to now is        8.8 secs

     total energy              =      24.39000426 Ry
     Harris-Foulkes estimate   =    -333.81410662 Ry
     estimated scf accuracy    <      45.66308223 Ry

     iteration # 19     ecut=    30.00 Ry     beta=0.70
     Davidson diagonalization with overlap
     ethr =  1.00E-02,  avg # of iterations =  6.0

     negative rho (up, down):  5.744E-01 0.000E+00

     total cpu time spent up to now is        8.9 secs

     total energy              =     -36.49621395 Ry
     Harris-Foulkes estimate   =     -78.45394295 Ry
     estimated scf accuracy    <      24.73432231 Ry

     iteration # 20     ecut=    30.00 Ry     beta=0.70
     Davidson diagonalization with overlap
     ethr =  1.00E-02,  avg # of iterations =  5.0

     negative rho (up, down):  6.990E-01 0.000E+00

     total cpu time spent up to now is        9.0 secs

     total energy              =    -182.15544898 Ry
     Harris-Foulkes estimate   =    -496.06016812 Ry
     estimated scf accuracy    <      42.57139566 Ry

     iteration # 21     ecut=    30.00 Ry     beta=0.70
     Davidson diagonalization with overlap
     ethr =  1.00E-02,  avg # of iterations =  7.0

     negative rho (up, down):  8.244E-01 0.000E+00

     total cpu time spent up to now is        9.0 secs

     total energy              =     -64.59589107 Ry
     Harris-Foulkes estimate   =   -2198.34573164 Ry
     estimated scf accuracy    <      28.89413747 Ry

     iteration # 22     ecut=    30.00 Ry     beta=0.70
     Davidson diagonalization with overlap
     ethr =  1.00E-02,  avg # of iterations =  9.0

     negative rho (up, down):  1.283E+00 0.000E+00

     total cpu time spent up to now is        9.1 secs

     total energy              =    -178.75062219 Ry
     Harris-Foulkes estimate   =   -1726.94077225 Ry
     estimated scf accuracy    <      30.65816900 Ry

     iteration # 23     ecut=    30.00 Ry     beta=0.70
     Davidson diagonalization with overlap
     ethr =  1.00E-02,  avg # of iterations =  5.0

     negative rho (up, down):  1.512E+00 0.000E+00

     total cpu time spent up to now is        9.2 secs

     total energy              =      51.05690017 Ry
     Harris-Foulkes estimate   =   -2579.42984838 Ry
     estimated scf accuracy    <      31.71429110 Ry

     iteration # 24     ecut=    30.00 Ry     beta=0.70
     Davidson diagonalization with overlap
     ethr =  1.00E-02,  avg # of iterations =  8.0

     negative rho (up, down):  9.253E-01 0.000E+00

     total cpu time spent up to now is        9.3 secs

     total energy              =      63.19438478 Ry
     Harris-Foulkes estimate   =   -1200.31822359 Ry
     estimated scf accuracy    <      25.72807056 Ry

     iteration # 25     ecut=    30.00 Ry     beta=0.70
     Davidson diagonalization with overlap
     ethr =  1.00E-02,  avg # of iterations =  6.0

     negative rho (up, down):  1.094E+00 0.000E+00

     total cpu time spent up to now is        9.4 secs

     total energy              =      31.87154376 Ry
     Harris-Foulkes estimate   =   -1898.98606847 Ry
     estimated scf accuracy    <      18.27343904 Ry

     iteration # 26     ecut=    30.00 Ry     beta=0.70
     Davidson diagonalization with overlap
     ethr =  1.00E-02,  avg # of iterations =  7.0

     negative rho (up, down):  9.658E-01 0.000E+00

     total cpu time spent up to now is        9.5 secs

     total energy              =     637.78972729 Ry
     Harris-Foulkes estimate   =   -8313.17969897 Ry
     estimated scf accuracy    <      26.82947182 Ry

     iteration # 27     ecut=    30.00 Ry     beta=0.70
     Davidson diagonalization with overlap
     ethr =  1.00E-02,  avg # of iterations =  9.0

     negative rho (up, down):  4.135E-01 0.000E+00

     total cpu time spent up to now is        9.6 secs

     total energy              =      72.10896489 Ry
     Harris-Foulkes estimate   =    -366.15606306 Ry
     estimated scf accuracy    <      26.05466496 Ry

     iteration # 28     ecut=    30.00 Ry     beta=0.70
     Davidson diagonalization with overlap
     ethr =  1.00E-02,  avg # of iterations =  6.0

     negative rho (up, down):  4.595E-01 0.000E+00

     total cpu time spent up to now is        9.7 secs

     total energy              =      24.53697863 Ry
     Harris-Foulkes estimate   =   -2653.89361261 Ry
     estimated scf accuracy    <      23.30858651 Ry

     iteration # 29     ecut=    30.00 Ry     beta=0.70
     Davidson diagonalization with overlap
     ethr =  1.00E-02,  avg # of iterations = 11.0

     negative rho (up, down):  1.643E-02 0.000E+00

     total cpu time spent up to now is        9.8 secs

     total energy              =      65.72934628 Ry
     Harris-Foulkes estimate   =   -2591.56449711 Ry
     estimated scf accuracy    <      16.13321445 Ry

     iteration # 30     ecut=    30.00 Ry     beta=0.70
     Davidson diagonalization with overlap
     ethr =  1.00E-02,  avg # of iterations =  7.0

     negative rho (up, down):  1.172E-02 0.000E+00

     total cpu time spent up to now is        9.8 secs

     total energy              =     -40.50055706 Ry
     Harris-Foulkes estimate   =     -48.23535165 Ry
     estimated scf accuracy    <      25.91913913 Ry

     iteration # 31     ecut=    30.00 Ry     beta=0.70
     Davidson diagonalization with overlap
     ethr =  1.00E-02,  avg # of iterations =  4.0

     negative rho (up, down):  4.729E-02 0.000E+00

     total cpu time spent up to now is        9.9 secs

     total energy              =     -35.46951795 Ry
     Harris-Foulkes estimate   =     -40.82431356 Ry
     estimated scf accuracy    <      15.59340155 Ry

     iteration # 32     ecut=    30.00 Ry     beta=0.70
     Davidson diagonalization with overlap
     ethr =  1.00E-02,  avg # of iterations =  6.0

     negative rho (up, down):  6.417E-02 0.000E+00

     total cpu time spent up to now is       10.0 secs

     total energy              =      26.23774490 Ry
     Harris-Foulkes estimate   =    -193.79020293 Ry
     estimated scf accuracy    <      20.61920275 Ry

     iteration # 33     ecut=    30.00 Ry     beta=0.70
     Davidson diagonalization with overlap
     ethr =  1.00E-02,  avg # of iterations =  5.0

     negative rho (up, down):  8.150E-02 0.000E+00

     total cpu time spent up to now is       10.1 secs

     total energy              =     -70.79461445 Ry
     Harris-Foulkes estimate   =    -151.37689257 Ry
     estimated scf accuracy    <      25.10034036 Ry

     iteration # 34     ecut=    30.00 Ry     beta=0.70
     Davidson diagonalization with overlap
     ethr =  1.00E-02,  avg # of iterations =  9.0

     negative rho (up, down):  8.193E-02 0.000E+00

     total cpu time spent up to now is       10.1 secs

     total energy              =    -388.23541656 Ry
     Harris-Foulkes estimate   =   -1624.21132117 Ry
     estimated scf accuracy    <      21.53210158 Ry

     iteration # 35     ecut=    30.00 Ry     beta=0.70
     Davidson diagonalization with overlap
     ethr =  1.00E-02,  avg # of iterations =  8.0

     negative rho (up, down):  9.268E-02 0.000E+00

     total cpu time spent up to now is       10.2 secs

     total energy              =      23.79706386 Ry
     Harris-Foulkes estimate   =   -3183.35740363 Ry
     estimated scf accuracy    <      11.18893555 Ry

     iteration # 36     ecut=    30.00 Ry     beta=0.70
     Davidson diagonalization with overlap
     ethr =  1.00E-02,  avg # of iterations =  6.0

     total cpu time spent up to now is       10.3 secs

     total energy              =      81.84692953 Ry
     Harris-Foulkes estimate   =    -141.94811302 Ry
     estimated scf accuracy    <      36.08392967 Ry

     iteration # 37     ecut=    30.00 Ry     beta=0.70
     Davidson diagonalization with overlap
     ethr =  1.00E-02,  avg # of iterations =  9.0

     total cpu time spent up to now is       10.4 secs

     total energy              =     -35.46873263 Ry
     Harris-Foulkes estimate   =     -36.78067961 Ry
     estimated scf accuracy    <      10.45993206 Ry

     iteration # 38     ecut=    30.00 Ry     beta=0.70
     Davidson diagonalization with overlap
     ethr =  1.00E-02,  avg # of iterations =  1.0

     negative rho (up, down):  2.071E-02 0.000E+00

     total cpu time spent up to now is       10.4 secs

     total energy              =     -33.78581326 Ry
     Harris-Foulkes estimate   =     -35.49654082 Ry
     estimated scf accuracy    <       7.94234100 Ry

     iteration # 39     ecut=    30.00 Ry     beta=0.70
     Davidson diagonalization with overlap
     ethr =  1.00E-02,  avg # of iterations =  5.0

     negative rho (up, down):  3.592E-03 0.000E+00

     total cpu time spent up to now is       10.5 secs

     total energy              =      -8.25592025 Ry
     Harris-Foulkes estimate   =     -51.60922486 Ry
     estimated scf accuracy    <       7.18904897 Ry

     iteration # 40     ecut=    30.00 Ry     beta=0.70
     Davidson diagonalization with overlap
     ethr =  1.00E-02,  avg # of iterations =  4.0

     negative rho (up, down):  2.237E-03 0.000E+00

     total cpu time spent up to now is       10.6 secs

     total energy              =     -33.91615847 Ry
     Harris-Foulkes estimate   =     -34.55046104 Ry
     estimated scf accuracy    <       6.32478586 Ry

     iteration # 41     ecut=    30.00 Ry     beta=0.70
     Davidson diagonalization with overlap
     ethr =  1.00E-02,  avg # of iterations =  3.0

     total cpu time spent up to now is       10.6 secs

     total energy              =     -33.63330670 Ry
     Harris-Foulkes estimate   =     -33.92236927 Ry
     estimated scf accuracy    <       5.31239254 Ry

     iteration # 42     ecut=    30.00 Ry     beta=0.70
     Davidson diagonalization with overlap
     ethr =  1.00E-02,  avg # of iterations =  1.0

     negative rho (up, down):  2.156E-04 0.000E+00

     total cpu time spent up to now is       10.7 secs

     total energy              =     -32.52018164 Ry
     Harris-Foulkes estimate   =     -33.85729598 Ry
     estimated scf accuracy    <       5.54462684 Ry

     iteration # 43     ecut=    30.00 Ry     beta=0.70
     Davidson diagonalization with overlap
     ethr =  1.00E-02,  avg # of iterations =  1.0

     negative rho (up, down):  1.528E-03 0.000E+00

     total cpu time spent up to now is       10.7 secs

     total energy              =     -31.83386417 Ry
     Harris-Foulkes estimate   =     -32.56011485 Ry
     estimated scf accuracy    <       3.28546218 Ry

     iteration # 44     ecut=    30.00 Ry     beta=0.70
     Davidson diagonalization with overlap
     ethr =  1.00E-02,  avg # of iterations =  3.0

     negative rho (up, down):  1.368E-03 0.000E+00

     total cpu time spent up to now is       10.8 secs

     total energy              =     -29.14893284 Ry
     Harris-Foulkes estimate   =     -32.69888526 Ry
     estimated scf accuracy    <       2.30096521 Ry

     iteration # 45     ecut=    30.00 Ry     beta=0.70
     Davidson diagonalization with overlap
     ethr =  1.00E-02,  avg # of iterations =  3.0

     negative rho (up, down):  2.150E-03 0.000E+00

     total cpu time spent up to now is       10.8 secs

     total energy              =     -24.67722301 Ry
     Harris-Foulkes estimate   =     -32.49678121 Ry
     estimated scf accuracy    <       2.17049577 Ry

     iteration # 46     ecut=    30.00 Ry     beta=0.70
     Davidson diagonalization with overlap
     ethr =  1.00E-02,  avg # of iterations =  3.0

     negative rho (up, down):  5.876E-03 0.000E+00

     total cpu time spent up to now is       10.9 secs

     total energy              =     -31.71181705 Ry
     Harris-Foulkes estimate   =     -31.93865361 Ry
     estimated scf accuracy    <       2.01816937 Ry

     iteration # 47     ecut=    30.00 Ry     beta=0.70
     Davidson diagonalization with overlap
     ethr =  1.00E-02,  avg # of iterations =  4.0

     negative rho (up, down):  2.204E-03 0.000E+00

     total cpu time spent up to now is       10.9 secs

     total energy              =      -0.58020373 Ry
     Harris-Foulkes estimate   =     -43.90820141 Ry
     estimated scf accuracy    <      16.07969003 Ry

     iteration # 48     ecut=    30.00 Ry     beta=0.70
     Davidson diagonalization with overlap
     ethr =  1.00E-02,  avg # of iterations =  5.0

     negative rho (up, down):  1.760E-02 0.000E+00

     total cpu time spent up to now is       11.0 secs

     total energy              =     -27.48841845 Ry
     Harris-Foulkes estimate   =     -31.75859957 Ry
     estimated scf accuracy    <       1.16600169 Ry

     iteration # 49     ecut=    30.00 Ry     beta=0.70
     Davidson diagonalization with overlap
     ethr =  1.00E-02,  avg # of iterations =  2.0

     negative rho (up, down):  2.545E-08 0.000E+00

     total cpu time spent up to now is       11.1 secs

     total energy              =     -31.32107274 Ry
     Harris-Foulkes estimate   =     -31.52416996 Ry
     estimated scf accuracy    <       0.34758486 Ry

     iteration # 50     ecut=    30.00 Ry     beta=0.70
     Davidson diagonalization with overlap
     ethr =  4.34E-03,  avg # of iterations =  2.0

     negative rho (up, down):  4.143E-02 0.000E+00

     total cpu time spent up to now is       11.1 secs

     total energy              =     -32.68355860 Ry
     Harris-Foulkes estimate   =     -31.63277809 Ry
     estimated scf accuracy    <       1.38318142 Ry

     iteration # 51     ecut=    30.00 Ry     beta=0.70
     Davidson diagonalization with overlap
     ethr =  4.34E-03,  avg # of iterations =  4.0

     negative rho (up, down):  3.338E-02 0.000E+00

     total cpu time spent up to now is       11.2 secs

     total energy              =      12.71445487 Ry
     Harris-Foulkes estimate   =     -97.32516616 Ry
     estimated scf accuracy    <      17.32146257 Ry

     iteration # 52     ecut=    30.00 Ry     beta=0.70
     Davidson diagonalization with overlap
     ethr =  4.34E-03,  avg # of iterations =  6.0

     negative rho (up, down):  1.793E-02 0.000E+00

     total cpu time spent up to now is       11.2 secs

     total energy              =     -35.69878413 Ry
     Harris-Foulkes estimate   =     -35.82791337 Ry
     estimated scf accuracy    <       5.34265764 Ry

     iteration # 53     ecut=    30.00 Ry     beta=0.70
     Davidson diagonalization with overlap
     ethr =  4.34E-03,  avg # of iterations =  3.0

     negative rho (up, down):  9.752E-03 0.000E+00

     total cpu time spent up to now is       11.3 secs

     total energy              =     -29.36511767 Ry
     Harris-Foulkes estimate   =    -108.57033815 Ry
     estimated scf accuracy    <      17.01202076 Ry

     iteration # 54     ecut=    30.00 Ry     beta=0.70
     Davidson diagonalization with overlap
     ethr =  4.34E-03,  avg # of iterations =  6.0

     negative rho (up, down):  2.116E-02 0.000E+00

     total cpu time spent up to now is       11.4 secs

     total energy              =     -24.52722156 Ry
     Harris-Foulkes estimate   =    -102.78453984 Ry
     estimated scf accuracy    <       5.82919770 Ry

     iteration # 55     ecut=    30.00 Ry     beta=0.70
     Davidson diagonalization with overlap
     ethr =  4.34E-03,  avg # of iterations =  4.0

     negative rho (up, down):  2.247E-02 0.000E+00

     total cpu time spent up to now is       11.4 secs

     total energy              =     -64.82493182 Ry
     Harris-Foulkes estimate   =    -109.09986988 Ry
     estimated scf accuracy    <      32.56316395 Ry

     iteration # 56     ecut=    30.00 Ry     beta=0.70
     Davidson diagonalization with overlap
     ethr =  4.34E-03,  avg # of iterations =  4.0

     negative rho (up, down):  1.981E-02 0.000E+00

     total cpu time spent up to now is       11.5 secs

     total energy              =       1.50418807 Ry
     Harris-Foulkes estimate   =    -142.64319610 Ry
     estimated scf accuracy    <      17.82859283 Ry

     iteration # 57     ecut=    30.00 Ry     beta=0.70
     Davidson diagonalization with overlap
     ethr =  4.34E-03,  avg # of iterations =  5.0

     negative rho (up, down):  2.483E-02 0.000E+00

     total cpu time spent up to now is       11.6 secs

     total energy              =     -40.25539522 Ry
     Harris-Foulkes estimate   =     -31.95724908 Ry
     estimated scf accuracy    <       0.99839749 Ry

     iteration # 58     ecut=    30.00 Ry     beta=0.70
     Davidson diagonalization with overlap
     ethr =  4.34E-03,  avg # of iterations =  4.0

     negative rho (up, down):  6.974E-02 0.000E+00

     total cpu time spent up to now is       11.6 secs

     total energy              =    -222.94014266 Ry
     Harris-Foulkes estimate   =    -432.43766578 Ry
     estimated scf accuracy    <      22.18871064 Ry

     iteration # 59     ecut=    30.00 Ry     beta=0.70
     Davidson diagonalization with overlap
     ethr =  4.34E-03,  avg # of iterations =  7.0

     negative rho (up, down):  2.007E-01 0.000E+00

     total cpu time spent up to now is       11.7 secs

     total energy              =   -1165.10156768 Ry
     Harris-Foulkes estimate   =   -1905.36972036 Ry
     estimated scf accuracy    <      49.78416958 Ry

     iteration # 60     ecut=    30.00 Ry     beta=0.70
     Davidson diagonalization with overlap
     ethr =  4.34E-03,  avg # of iterations =  5.0

     negative rho (up, down):  2.222E-01 0.000E+00

     total cpu time spent up to now is       11.8 secs

     total energy              =    -148.76212986 Ry
     Harris-Foulkes estimate   =   -2433.69746454 Ry
     estimated scf accuracy    <      44.05759042 Ry

     iteration # 61     ecut=    30.00 Ry     beta=0.70
     Davidson diagonalization with overlap
     ethr =  4.34E-03,  avg # of iterations =  6.0

     negative rho (up, down):  2.789E-01 0.000E+00

     total cpu time spent up to now is       11.9 secs

     total energy              =   -2787.17181819 Ry
     Harris-Foulkes estimate   =    -694.94932944 Ry
     estimated scf accuracy    <      49.29273128 Ry

     iteration # 62     ecut=    30.00 Ry     beta=0.70
     Davidson diagonalization with overlap
     ethr =  4.34E-03,  avg # of iterations =  8.0

     negative rho (up, down):  2.925E-01 0.000E+00

     total cpu time spent up to now is       11.9 secs

     total energy              =     -92.20069043 Ry
     Harris-Foulkes estimate   =   -6543.34321248 Ry
     estimated scf accuracy    <      43.45687615 Ry

     iteration # 63     ecut=    30.00 Ry     beta=0.70
     Davidson diagonalization with overlap
     ethr =  4.34E-03,  avg # of iterations =  6.0

     negative rho (up, down):  2.525E-01 0.000E+00

     total cpu time spent up to now is       12.0 secs

     total energy              =    -489.27519541 Ry
     Harris-Foulkes estimate   =   -1765.60281146 Ry
     estimated scf accuracy    <      52.25286177 Ry

     iteration # 64     ecut=    30.00 Ry     beta=0.70
     Davidson diagonalization with overlap
     ethr =  4.34E-03,  avg # of iterations = 10.0

     negative rho (up, down):  1.953E-01 0.000E+00

     total cpu time spent up to now is       12.1 secs

     total energy              =    6035.61637898 Ry
     Harris-Foulkes estimate   =   -1458.58066900 Ry
     estimated scf accuracy    <      44.26437287 Ry

     iteration # 65     ecut=    30.00 Ry     beta=0.70
     Davidson diagonalization with overlap
     ethr =  4.34E-03,  avg # of iterations =  6.0

     negative rho (up, down):  1.476E-01 0.000E+00

     total cpu time spent up to now is       12.2 secs

     total energy              =    -959.63496781 Ry
     Harris-Foulkes estimate   =     -98.78992590 Ry
     estimated scf accuracy    <      42.05691701 Ry

     iteration # 66     ecut=    30.00 Ry     beta=0.70
     Davidson diagonalization with overlap
     ethr =  4.34E-03,  avg # of iterations =  8.0

     negative rho (up, down):  1.568E+00 0.000E+00

     total cpu time spent up to now is       12.3 secs

     total energy              =   -1347.94413305 Ry
     Harris-Foulkes estimate   =   -3973.58406171 Ry
     estimated scf accuracy    <      47.86026138 Ry

     iteration # 67     ecut=    30.00 Ry     beta=0.70
     Davidson diagonalization with overlap
     ethr =  4.34E-03,  avg # of iterations =  7.0

     negative rho (up, down):  7.673E-01 0.000E+00

     total cpu time spent up to now is       12.4 secs

     total energy              =    -173.29093052 Ry
     Harris-Foulkes estimate   =   -6635.30836146 Ry
     estimated scf accuracy    <      29.27997051 Ry

     iteration # 68     ecut=    30.00 Ry     beta=0.70
     Davidson diagonalization with overlap
     ethr =  4.34E-03,  avg # of iterations =  8.0

     negative rho (up, down):  1.008E+00 0.000E+00

     total cpu time spent up to now is       12.5 secs

     total energy              =     268.54786833 Ry
     Harris-Foulkes estimate   =   -6040.44669759 Ry
     estimated scf accuracy    <      31.98404988 Ry

     iteration # 69     ecut=    30.00 Ry     beta=0.70
     Davidson diagonalization with overlap
     ethr =  4.34E-03,  avg # of iterations = 10.0

     negative rho (up, down):  8.983E-01 0.000E+00

     total cpu time spent up to now is       12.6 secs

     total energy              =      83.60009522 Ry
     Harris-Foulkes estimate   =   -1392.82585446 Ry
     estimated scf accuracy    <      25.60430876 Ry

     iteration # 70     ecut=    30.00 Ry     beta=0.70
     Davidson diagonalization with overlap
     ethr =  4.34E-03,  avg # of iterations = 10.0

     negative rho (up, down):  8.794E-01 0.000E+00

     total cpu time spent up to now is       12.7 secs

     total energy              =    -234.34659841 Ry
     Harris-Foulkes estimate   =    -732.14236270 Ry
     estimated scf accuracy    <      21.08646055 Ry

     iteration # 71     ecut=    30.00 Ry     beta=0.70
     Davidson diagonalization with overlap
     ethr =  4.34E-03,  avg # of iterations = 13.0

     negative rho (up, down):  6.209E-01 0.000E+00

     total cpu time spent up to now is       12.8 secs

     total energy              =     103.15903129 Ry
     Harris-Foulkes estimate   =   -2567.30984184 Ry
     estimated scf accuracy    <      18.44452698 Ry

     iteration # 72     ecut=    30.00 Ry     beta=0.70
     Davidson diagonalization with overlap
     ethr =  4.34E-03,  avg # of iterations = 11.0

     negative rho (up, down):  6.777E-02 0.000E+00

     total cpu time spent up to now is       12.9 secs

     total energy              =     -23.66064272 Ry
     Harris-Foulkes estimate   =   -2634.85509882 Ry
     estimated scf accuracy    <      19.64886567 Ry

     iteration # 73     ecut=    30.00 Ry     beta=0.70
     Davidson diagonalization with overlap
     ethr =  4.34E-03,  avg # of iterations =  5.0

     negative rho (up, down):  4.995E-02 0.000E+00

     total cpu time spent up to now is       13.0 secs

     total energy              =     127.22448175 Ry
     Harris-Foulkes estimate   =   -1943.17515221 Ry
     estimated scf accuracy    <      15.79474094 Ry

     iteration # 74     ecut=    30.00 Ry     beta=0.70
     Davidson diagonalization with overlap
     ethr =  4.34E-03,  avg # of iterations = 12.0

     negative rho (up, down):  7.281E-04 0.000E+00

     total cpu time spent up to now is       13.1 secs

     total energy              =     -46.89034741 Ry
     Harris-Foulkes estimate   =     -62.65074315 Ry
     estimated scf accuracy    <      49.45262950 Ry

     iteration # 75     ecut=    30.00 Ry     beta=0.70
     Davidson diagonalization with overlap
     ethr =  4.34E-03,  avg # of iterations =  5.0

     total cpu time spent up to now is       13.1 secs

     total energy              =      25.17805727 Ry
     Harris-Foulkes estimate   =    -284.84718147 Ry
     estimated scf accuracy    <      10.76242526 Ry

     iteration # 76     ecut=    30.00 Ry     beta=0.70
     Davidson diagonalization with overlap
     ethr =  4.34E-03,  avg # of iterations =  8.0

     total cpu time spent up to now is       13.2 secs

     total energy              =     -43.20074720 Ry
     Harris-Foulkes estimate   =     -50.51728599 Ry
     estimated scf accuracy    <      31.38534824 Ry

     iteration # 77     ecut=    30.00 Ry     beta=0.70
     Davidson diagonalization with overlap
     ethr =  4.34E-03,  avg # of iterations =  3.0

     total cpu time spent up to now is       13.3 secs

     total energy              =     -42.11858924 Ry
     Harris-Foulkes estimate   =     -43.82929239 Ry
     estimated scf accuracy    <      18.88274338 Ry

     iteration # 78     ecut=    30.00 Ry     beta=0.70
     Davidson diagonalization with overlap
     ethr =  4.34E-03,  avg # of iterations =  1.0

     negative rho (up, down):  5.975E-03 0.000E+00

     total cpu time spent up to now is       13.3 secs

     total energy              =     -38.84781246 Ry
     Harris-Foulkes estimate   =     -42.12620994 Ry
     estimated scf accuracy    <      16.25445944 Ry

     iteration # 79     ecut=    30.00 Ry     beta=0.70
     Davidson diagonalization with overlap
     ethr =  4.34E-03,  avg # of iterations =  3.0

     negative rho (up, down):  1.013E-02 0.000E+00

     total cpu time spent up to now is       13.4 secs

     total energy              =     -32.95691613 Ry
     Harris-Foulkes estimate   =     -39.54898304 Ry
     estimated scf accuracy    <      16.56429587 Ry

     iteration # 80     ecut=    30.00 Ry     beta=0.70
     Davidson diagonalization with overlap
     ethr =  4.34E-03,  avg # of iterations =  6.0

     negative rho (up, down):  4.940E-02 0.000E+00

     total cpu time spent up to now is       13.5 secs

     total energy              =      42.74757248 Ry
     Harris-Foulkes estimate   =    -629.64720416 Ry
     estimated scf accuracy    <      48.84435922 Ry

     iteration # 81     ecut=    30.00 Ry     beta=0.70
     Davidson diagonalization with overlap
     ethr =  4.34E-03,  avg # of iterations =  7.0

     negative rho (up, down):  8.910E-03 0.000E+00

     total cpu time spent up to now is       13.5 secs

     total energy              =      89.62603689 Ry
     Harris-Foulkes estimate   =    -261.72686191 Ry
     estimated scf accuracy    <      34.92154308 Ry

     iteration # 82     ecut=    30.00 Ry     beta=0.70
     Davidson diagonalization with overlap
     ethr =  4.34E-03,  avg # of iterations = 13.0

     negative rho (up, down):  1.415E-01 0.000E+00

     total cpu time spent up to now is       13.7 secs

     total energy              =      24.41819764 Ry
     Harris-Foulkes estimate   =    -114.94155074 Ry
     estimated scf accuracy    <      20.73417066 Ry

     iteration # 83     ecut=    30.00 Ry     beta=0.70
     Davidson diagonalization with overlap
     ethr =  4.34E-03,  avg # of iterations =  8.0

     negative rho (up, down):  9.668E-02 0.000E+00

     total cpu time spent up to now is       13.7 secs

     total energy              =    -103.11390275 Ry
     Harris-Foulkes estimate   =    -230.25740947 Ry
     estimated scf accuracy    <      35.32419345 Ry

     iteration # 84     ecut=    30.00 Ry     beta=0.70
     Davidson diagonalization with overlap
     ethr =  4.34E-03,  avg # of iterations = 10.0

     negative rho (up, down):  1.016E-01 0.000E+00

     total cpu time spent up to now is       13.8 secs

     total energy              =      16.14594064 Ry
     Harris-Foulkes estimate   =   -4256.02279400 Ry
     estimated scf accuracy    <      24.61893901 Ry

     iteration # 85     ecut=    30.00 Ry     beta=0.70
     Davidson diagonalization with overlap
     ethr =  4.34E-03,  avg # of iterations =  5.0

     negative rho (up, down):  1.010E-01 0.000E+00

     total cpu time spent up to now is       13.9 secs

     total energy              =      46.97841070 Ry
     Harris-Foulkes estimate   =   -1146.59480151 Ry
     estimated scf accuracy    <      21.78249659 Ry

     iteration # 86     ecut=    30.00 Ry     beta=0.70
     Davidson diagonalization with overlap
     ethr =  4.34E-03,  avg # of iterations =  6.0

     negative rho (up, down):  9.338E-02 0.000E+00

     total cpu time spent up to now is       14.0 secs

     total energy              =    -982.37628426 Ry
     Harris-Foulkes estimate   =    -153.14710182 Ry
     estimated scf accuracy    <      19.86664352 Ry

     iteration # 87     ecut=    30.00 Ry     beta=0.70
     Davidson diagonalization with overlap
     ethr =  4.34E-03,  avg # of iterations =  4.0

     negative rho (up, down):  1.402E-01 0.000E+00

     total cpu time spent up to now is       14.1 secs

     total energy              =   -1098.58650223 Ry
     Harris-Foulkes estimate   =   -3065.62703105 Ry
     estimated scf accuracy    <      14.65778852 Ry

     iteration # 88     ecut=    30.00 Ry     beta=0.70
     Davidson diagonalization with overlap
     ethr =  4.34E-03,  avg # of iterations =  7.0

     negative rho (up, down):  7.597E-01 0.000E+00

     total cpu time spent up to now is       14.2 secs

     total energy              =    -333.25162699 Ry
     Harris-Foulkes estimate   =   -3715.73015317 Ry
     estimated scf accuracy    <      47.52960765 Ry

     iteration # 89     ecut=    30.00 Ry     beta=0.70
     Davidson diagonalization with overlap
     ethr =  4.34E-03,  avg # of iterations =  6.0

     negative rho (up, down):  2.032E-01 0.000E+00

     total cpu time spent up to now is       14.2 secs

     total energy              =      42.68910208 Ry
     Harris-Foulkes estimate   =   -4380.30052254 Ry
     estimated scf accuracy    <      33.80342975 Ry

     iteration # 90     ecut=    30.00 Ry     beta=0.70
     Davidson diagonalization with overlap
     ethr =  4.34E-03,  avg # of iterations =  6.0

     negative rho (up, down):  8.012E-01 0.000E+00

     total cpu time spent up to now is       14.3 secs

     total energy              =    -520.29499689 Ry
     Harris-Foulkes estimate   =    -293.10462524 Ry
     estimated scf accuracy    <      48.07956966 Ry

     iteration # 91     ecut=    30.00 Ry     beta=0.70
     Davidson diagonalization with overlap
     ethr =  4.34E-03,  avg # of iterations =  7.0

     negative rho (up, down):  1.237E+00 0.000E+00

     total cpu time spent up to now is       14.4 secs

     total energy              =      98.69864616 Ry
     Harris-Foulkes estimate   =   -8205.74190713 Ry
     estimated scf accuracy    <      25.19571666 Ry

     iteration # 92     ecut=    30.00 Ry     beta=0.70
     Davidson diagonalization with overlap
     ethr =  4.34E-03,  avg # of iterations = 10.0

     negative rho (up, down):  1.290E+00 0.000E+00

     total cpu time spent up to now is       14.5 secs

     total energy              =      65.88200499 Ry
     Harris-Foulkes estimate   =   -1450.02077335 Ry
     estimated scf accuracy    <      28.59297877 Ry

     iteration # 93     ecut=    30.00 Ry     beta=0.70
     Davidson diagonalization with overlap
     ethr =  4.34E-03,  avg # of iterations =  6.0

     negative rho (up, down):  1.333E+00 0.000E+00

     total cpu time spent up to now is       14.6 secs

     total energy              =      78.34667360 Ry
     Harris-Foulkes estimate   =   -1788.94928017 Ry
     estimated scf accuracy    <      27.05019088 Ry

     iteration # 94     ecut=    30.00 Ry     beta=0.70
     Davidson diagonalization with overlap
     ethr =  4.34E-03,  avg # of iterations = 13.0

     negative rho (up, down):  1.437E+00 0.000E+00

     total cpu time spent up to now is       14.7 secs

     total energy              =   -1067.61422549 Ry
     Harris-Foulkes estimate   =   -1661.23323146 Ry
     estimated scf accuracy    <      31.98369326 Ry

     iteration # 95     ecut=    30.00 Ry     beta=0.70
     Davidson diagonalization with overlap
     ethr =  4.34E-03,  avg # of iterations = 10.0

     negative rho (up, down):  1.334E+00 0.000E+00

     total cpu time spent up to now is       14.8 secs

     total energy              =      70.56272888 Ry
     Harris-Foulkes estimate   =  -23196.12161481 Ry
     estimated scf accuracy    <      34.21974456 Ry

     iteration # 96     ecut=    30.00 Ry     beta=0.70
     Davidson diagonalization with overlap
     ethr =  4.34E-03,  avg # of iterations =  8.0

     negative rho (up, down):  1.693E+00 0.000E+00

     total cpu time spent up to now is       14.9 secs

     total energy              =    -306.65808706 Ry
     Harris-Foulkes estimate   =    -786.72312414 Ry
     estimated scf accuracy    <      26.20733448 Ry

     iteration # 97     ecut=    30.00 Ry     beta=0.70
     Davidson diagonalization with overlap
     ethr =  4.34E-03,  avg # of iterations =  8.0

     negative rho (up, down):  2.031E-01 0.000E+00

     total cpu time spent up to now is       15.0 secs

     total energy              =     111.19988731 Ry
     Harris-Foulkes estimate   =   -2151.73418056 Ry
     estimated scf accuracy    <      37.76225079 Ry

     iteration # 98     ecut=    30.00 Ry     beta=0.70
     Davidson diagonalization with overlap
     ethr =  4.34E-03,  avg # of iterations =  9.0

     negative rho (up, down):  1.560E-01 0.000E+00

     total cpu time spent up to now is       15.1 secs

     total energy              =      65.50384118 Ry
     Harris-Foulkes estimate   =   -1036.12860110 Ry
     estimated scf accuracy    <      22.17801437 Ry

     iteration # 99     ecut=    30.00 Ry     beta=0.70
     Davidson diagonalization with overlap
     ethr =  4.34E-03,  avg # of iterations =  7.0

     negative rho (up, down):  1.952E-01 0.000E+00

     total cpu time spent up to now is       15.1 secs

     total energy              =      70.97694021 Ry
     Harris-Foulkes estimate   =    -292.03077246 Ry
     estimated scf accuracy    <      14.37482996 Ry

     iteration #100     ecut=    30.00 Ry     beta=0.70
     Davidson diagonalization with overlap
     ethr =  4.34E-03,  avg # of iterations =  7.0

     negative rho (up, down):  7.600E-02 0.000E+00

     total cpu time spent up to now is       15.2 secs

     total energy              =      87.41644172 Ry
     Harris-Foulkes estimate   =    -896.05181711 Ry
     estimated scf accuracy    <      30.64130196 Ry

     End of self-consistent calculation

     convergence NOT achieved after 100 iterations: stopping

     Writing output data file pwscf.save
 
     init_run     :      0.17s CPU      0.19s WALL (       1 calls)
     electrons    :     11.21s CPU     13.38s WALL (       5 calls)
     update_pot   :      0.82s CPU      1.03s WALL (       4 calls)
     forces       :      0.17s CPU      0.17s WALL (       4 calls)

     Called by init_run:
     wfcinit      :      0.01s CPU      0.02s WALL (       1 calls)
     potinit      :      0.05s CPU      0.05s WALL (       1 calls)

     Called by electrons:
     c_bands      :      6.08s CPU      6.27s WALL (     196 calls)
     sum_band     :      0.99s CPU      1.03s WALL (     196 calls)
     v_of_rho     :      2.49s CPU      2.59s WALL (     201 calls)
     mix_rho      :      1.30s CPU      2.72s WALL (     196 calls)

     Called by c_bands:
     init_us_2    :      0.03s CPU      0.04s WALL (     393 calls)
     cegterg      :      6.02s CPU      6.15s WALL (     196 calls)

     Called by sum_band:

     Called by *egterg:
     h_psi        :      5.05s CPU      5.14s WALL (    1063 calls)
     g_psi        :      0.06s CPU      0.06s WALL (     866 calls)
     cdiaghg      :      0.38s CPU      0.40s WALL (    1058 calls)

     Called by h_psi:
     h_psi:pot    :      5.02s CPU      5.11s WALL (    1063 calls)
     h_psi:calbec :      0.08s CPU      0.08s WALL (    1063 calls)
     vloc_psi     :      4.92s CPU      5.00s WALL (    1063 calls)
     add_vuspsi   :      0.01s CPU      0.01s WALL (    1063 calls)

     General routines
     calbec       :      0.09s CPU      0.10s WALL (    1082 calls)
     fft          :      1.71s CPU      1.82s WALL (    2219 calls)
     fftw         :      5.11s CPU      5.20s WALL (   13238 calls)
     davcio       :      0.22s CPU      1.24s WALL (    3488 calls)
 
     Parallel routines
     fft_scatter  :      2.24s CPU      2.37s WALL (   15457 calls)
 
     PWSCF        :    12.69s CPU        15.35s WALL

 
   This run was terminated on:  15:30:28  13Feb2018            

=------------------------------------------------------------------------------=
   JOB DONE.
=------------------------------------------------------------------------------=
