
     Program PWSCF v.6.0 (svn rev. 13079) starts on 13Feb2018 at 15:32:11 

     This program is part of the open-source Quantum ESPRESSO suite
     for quantum simulation of materials; please cite
         "P. Giannozzi et al., J. Phys.:Condens. Matter 21 395502 (2009);
          URL http://www.quantum-espresso.org", 
     in publications or presentations arising from this work. More details at
     http://www.quantum-espresso.org/quote

     Parallel version (MPI), running on    28 processors
     R & G space division:  proc/nbgrp/npool/nimage =      28
     Reading input from inputs/MD-H2O-round1/474.in

     Current dimensions of program PWSCF are:
     Max number of different atomic species (ntypx) = 10
     Max number of k-points (npk) =  40000
     Max angular momentum in pseudopotentials (lmaxx) =  3

     Subspace diagonalization in iterative solution of the eigenvalue problem:
     a serial algorithm will be used

 
     Parallelization info
     --------------------
     sticks:   dense  smooth     PW     G-vecs:    dense   smooth      PW
     Min         136     136     33                 6338     6338     787
     Max         137     137     34                 6341     6341     792
     Sum        3809    3809    949               177509   177509   22119
 


     bravais-lattice index     =            1
     lattice parameter (alat)  =      20.0000  a.u.
     unit-cell volume          =    8000.0000 (a.u.)^3
     number of atoms/cell      =            3
     number of atomic types    =            2
     number of electrons       =         8.00
     number of Kohn-Sham states=            8
     kinetic-energy cutoff     =      30.0000  Ry
     charge density cutoff     =     120.0000  Ry
     convergence threshold     =      1.0E-08
     mixing beta               =       0.7000
     number of iterations used =            8  plain     mixing
     Exchange-correlation      = BLYP ( 1  3  1  3 0 0)
     nstep                     =         5000


     celldm(1)=  20.000000  celldm(2)=   0.000000  celldm(3)=   0.000000
     celldm(4)=   0.000000  celldm(5)=   0.000000  celldm(6)=   0.000000

     crystal axes: (cart. coord. in units of alat)
               a(1) = (   1.000000   0.000000   0.000000 )  
               a(2) = (   0.000000   1.000000   0.000000 )  
               a(3) = (   0.000000   0.000000   1.000000 )  

     reciprocal axes: (cart. coord. in units 2 pi/alat)
               b(1) = (  1.000000  0.000000  0.000000 )  
               b(2) = (  0.000000  1.000000  0.000000 )  
               b(3) = (  0.000000  0.000000  1.000000 )  


     PseudoPot. # 1 for  H read from file:
     ./H.blyp-hgh.UPF
     MD5 check sum: c576e69559cde411e611be972c763230
     Pseudo is Norm-conserving, Zval =  1.0
     Generated in analytical, separable form
     Using radial grid of  929 points,  0 beta functions with: 

     PseudoPot. # 2 for  O read from file:
     ./O.blyp-hgh.UPF
     MD5 check sum: d0b7156309aa9befef28faac7bc56342
     Pseudo is Norm-conserving, Zval =  6.0
     Generated in analytical, separable form
     Using radial grid of 1095 points,  1 beta functions with: 
                l(1) =   0

     atomic species   valence    mass     pseudopotential
        H              1.00     1.01000      H( 1.00)
        O              6.00    16.00000      O( 1.00)

     No symmetry found



   Cartesian axes

     site n.     atom                  positions (alat units)
         1           O   tau(   1) = (   0.8590170  -0.0720570   0.6202323  )
         2           H   tau(   2) = (   0.8423622   0.9992235   0.5884099  )
         3           H   tau(   3) = (   0.7879442   0.3768237   0.5040331  )

     number of k points=     1  Marzari-Vanderbilt smearing, width (Ry)=  0.0250
                       cart. coord. in units 2pi/alat
        k(    1) = (   0.0000000   0.0000000   0.0000000), wk =   2.0000000

     Dense  grid:   177509 G-vectors     FFT dimensions: (  72,  72,  72)

     Estimated max dynamical RAM per process >       6.09Mb

     Estimated total allocated dynamical RAM >     170.64Mb

     Initial potential from superposition of free atoms
     Check: negative starting charge=   -0.348290

     starting charge    7.99998, renormalised to    8.00000

     negative rho (up, down):  3.483E-01 0.000E+00
     Starting wfc are    6 randomized atomic wfcs +    2 random wfc

     total cpu time spent up to now is        0.3 secs

     per-process dynamical memory:    18.8 Mb

     Self-consistent Calculation

     iteration #  1     ecut=    30.00 Ry     beta=0.70
     Davidson diagonalization with overlap
     ethr =  1.00E-02,  avg # of iterations =  8.0

     negative rho (up, down):  9.391E-02 0.000E+00

     total cpu time spent up to now is        0.4 secs

     total energy              =     -31.54500578 Ry
     Harris-Foulkes estimate   =     -32.06237173 Ry
     estimated scf accuracy    <       0.55905165 Ry

     iteration #  2     ecut=    30.00 Ry     beta=0.70
     Davidson diagonalization with overlap
     ethr =  6.99E-03,  avg # of iterations =  2.0

     negative rho (up, down):  7.231E-02 0.000E+00

     total cpu time spent up to now is        0.5 secs

     total energy              =     -31.71900790 Ry
     Harris-Foulkes estimate   =     -32.40968038 Ry
     estimated scf accuracy    <       2.31783958 Ry

     iteration #  3     ecut=    30.00 Ry     beta=0.70
     Davidson diagonalization with overlap
     ethr =  6.99E-03,  avg # of iterations =  2.0

     negative rho (up, down):  2.685E-02 0.000E+00

     total cpu time spent up to now is        0.5 secs

     total energy              =     -31.78865630 Ry
     Harris-Foulkes estimate   =     -31.78378328 Ry
     estimated scf accuracy    <       0.08636257 Ry

     iteration #  4     ecut=    30.00 Ry     beta=0.70
     Davidson diagonalization with overlap
     ethr =  1.08E-03,  avg # of iterations =  2.0

     negative rho (up, down):  1.015E-02 0.000E+00

     total cpu time spent up to now is        0.6 secs

     total energy              =     -31.54168817 Ry
     Harris-Foulkes estimate   =     -31.88334810 Ry
     estimated scf accuracy    <       1.29986985 Ry

     iteration #  5     ecut=    30.00 Ry     beta=0.70
     Davidson diagonalization with overlap
     ethr =  1.08E-03,  avg # of iterations =  2.0

     negative rho (up, down):  4.634E-04 0.000E+00

     total cpu time spent up to now is        0.6 secs

     total energy              =     -31.98541552 Ry
     Harris-Foulkes estimate   =     -32.08414658 Ry
     estimated scf accuracy    <       1.22599278 Ry

     iteration #  6     ecut=    30.00 Ry     beta=0.70
     Davidson diagonalization with overlap
     ethr =  1.08E-03,  avg # of iterations =  1.0

     negative rho (up, down):  5.451E-04 0.000E+00

     total cpu time spent up to now is        0.7 secs

     total energy              =     -31.91818992 Ry
     Harris-Foulkes estimate   =     -31.98653958 Ry
     estimated scf accuracy    <       1.06142103 Ry

     iteration #  7     ecut=    30.00 Ry     beta=0.70
     Davidson diagonalization with overlap
     ethr =  1.08E-03,  avg # of iterations =  1.0

     negative rho (up, down):  6.000E-04 0.000E+00

     total cpu time spent up to now is        0.7 secs

     total energy              =     -31.88362517 Ry
     Harris-Foulkes estimate   =     -31.91859342 Ry
     estimated scf accuracy    <       0.95531728 Ry

     iteration #  8     ecut=    30.00 Ry     beta=0.70
     Davidson diagonalization with overlap
     ethr =  1.08E-03,  avg # of iterations =  1.0

     negative rho (up, down):  6.986E-04 0.000E+00

     total cpu time spent up to now is        0.8 secs

     total energy              =     -31.80126643 Ry
     Harris-Foulkes estimate   =     -31.88371612 Ry
     estimated scf accuracy    <       0.90254941 Ry

     iteration #  9     ecut=    30.00 Ry     beta=0.70
     Davidson diagonalization with overlap
     ethr =  1.08E-03,  avg # of iterations =  1.0

     negative rho (up, down):  6.145E-05 0.000E+00

     total cpu time spent up to now is        0.8 secs

     total energy              =     -31.74991454 Ry
     Harris-Foulkes estimate   =     -31.84530614 Ry
     estimated scf accuracy    <       0.69670400 Ry

     iteration # 10     ecut=    30.00 Ry     beta=0.70
     Davidson diagonalization with overlap
     ethr =  1.08E-03,  avg # of iterations =  1.0

     total cpu time spent up to now is        0.9 secs

     total energy              =     -31.89546694 Ry
     Harris-Foulkes estimate   =     -31.91313394 Ry
     estimated scf accuracy    <       0.94322884 Ry

     iteration # 11     ecut=    30.00 Ry     beta=0.70
     Davidson diagonalization with overlap
     ethr =  1.08E-03,  avg # of iterations =  1.0

     negative rho (up, down):  1.274E-07 0.000E+00

     total cpu time spent up to now is        0.9 secs

     total energy              =     -31.86453576 Ry
     Harris-Foulkes estimate   =     -31.89550783 Ry
     estimated scf accuracy    <       0.92163697 Ry

     iteration # 12     ecut=    30.00 Ry     beta=0.70
     Davidson diagonalization with overlap
     ethr =  1.08E-03,  avg # of iterations =  1.0

     negative rho (up, down):  2.362E-08 0.000E+00

     total cpu time spent up to now is        1.0 secs

     total energy              =     -31.88042423 Ry
     Harris-Foulkes estimate   =     -31.86465977 Ry
     estimated scf accuracy    <       0.85013217 Ry

     iteration # 13     ecut=    30.00 Ry     beta=0.70
     Davidson diagonalization with overlap
     ethr =  1.08E-03,  avg # of iterations =  1.0

     negative rho (up, down):  6.924E-06 0.000E+00

     total cpu time spent up to now is        1.0 secs

     total energy              =     -31.90018871 Ry
     Harris-Foulkes estimate   =     -31.88060575 Ry
     estimated scf accuracy    <       0.89904192 Ry

     iteration # 14     ecut=    30.00 Ry     beta=0.70
     Davidson diagonalization with overlap
     ethr =  1.08E-03,  avg # of iterations =  1.0

     negative rho (up, down):  2.930E-06 0.000E+00

     total cpu time spent up to now is        1.0 secs

     total energy              =     -31.97694868 Ry
     Harris-Foulkes estimate   =     -31.90022407 Ry
     estimated scf accuracy    <       0.93015146 Ry

     iteration # 15     ecut=    30.00 Ry     beta=0.70
     Davidson diagonalization with overlap
     ethr =  1.08E-03,  avg # of iterations =  1.0

     negative rho (up, down):  1.460E-06 0.000E+00

     total cpu time spent up to now is        1.1 secs

     total energy              =     -32.17163373 Ry
     Harris-Foulkes estimate   =     -31.97723756 Ry
     estimated scf accuracy    <       1.04386322 Ry

     iteration # 16     ecut=    30.00 Ry     beta=0.70
     Davidson diagonalization with overlap
     ethr =  1.08E-03,  avg # of iterations =  1.0

     negative rho (up, down):  3.720E-08 0.000E+00

     total cpu time spent up to now is        1.1 secs

     total energy              =     -31.72685646 Ry
     Harris-Foulkes estimate   =     -32.18132901 Ry
     estimated scf accuracy    <       1.32940915 Ry

     iteration # 17     ecut=    30.00 Ry     beta=0.70
     Davidson diagonalization with overlap
     ethr =  1.08E-03,  avg # of iterations =  2.0

     negative rho (up, down):  9.006E-06 0.000E+00

     total cpu time spent up to now is        1.2 secs

     total energy              =     -31.66449189 Ry
     Harris-Foulkes estimate   =     -31.94488244 Ry
     estimated scf accuracy    <       1.33109254 Ry

     iteration # 18     ecut=    30.00 Ry     beta=0.70
     Davidson diagonalization with overlap
     ethr =  1.08E-03,  avg # of iterations =  2.0

     negative rho (up, down):  3.317E-06 0.000E+00

     total cpu time spent up to now is        1.2 secs

     total energy              =     -31.96131409 Ry
     Harris-Foulkes estimate   =     -31.96798214 Ry
     estimated scf accuracy    <       1.02127019 Ry

     iteration # 19     ecut=    30.00 Ry     beta=0.70
     Davidson diagonalization with overlap
     ethr =  1.08E-03,  avg # of iterations =  1.0

     negative rho (up, down):  3.874E-06 0.000E+00

     total cpu time spent up to now is        1.3 secs

     total energy              =     -31.81778638 Ry
     Harris-Foulkes estimate   =     -31.96142422 Ry
     estimated scf accuracy    <       1.01457941 Ry

     iteration # 20     ecut=    30.00 Ry     beta=0.70
     Davidson diagonalization with overlap
     ethr =  1.08E-03,  avg # of iterations =  1.0

     negative rho (up, down):  1.562E-06 0.000E+00

     total cpu time spent up to now is        1.3 secs

     total energy              =     -31.83482096 Ry
     Harris-Foulkes estimate   =     -31.83620709 Ry
     estimated scf accuracy    <       0.01215937 Ry

     iteration # 21     ecut=    30.00 Ry     beta=0.70
     Davidson diagonalization with overlap
     ethr =  1.52E-04,  avg # of iterations =  1.0

     negative rho (up, down):  3.307E-07 0.000E+00

     total cpu time spent up to now is        1.4 secs

     total energy              =     -31.81121560 Ry
     Harris-Foulkes estimate   =     -31.83794537 Ry
     estimated scf accuracy    <       0.12326654 Ry

     iteration # 22     ecut=    30.00 Ry     beta=0.70
     Davidson diagonalization with overlap
     ethr =  1.52E-04,  avg # of iterations =  4.0

     negative rho (up, down):  3.783E-07 0.000E+00

     total cpu time spent up to now is        1.4 secs

     total energy              =     -31.92979179 Ry
     Harris-Foulkes estimate   =     -31.90316062 Ry
     estimated scf accuracy    <       1.30637831 Ry

     iteration # 23     ecut=    30.00 Ry     beta=0.70
     Davidson diagonalization with overlap
     ethr =  1.52E-04,  avg # of iterations =  1.0

     negative rho (up, down):  2.418E-07 0.000E+00

     total cpu time spent up to now is        1.5 secs

     total energy              =     -31.89448198 Ry
     Harris-Foulkes estimate   =     -31.92955415 Ry
     estimated scf accuracy    <       1.31046336 Ry

     iteration # 24     ecut=    30.00 Ry     beta=0.70
     Davidson diagonalization with overlap
     ethr =  1.52E-04,  avg # of iterations =  1.0

     total cpu time spent up to now is        1.5 secs

     total energy              =     -31.63288689 Ry
     Harris-Foulkes estimate   =     -31.89423249 Ry
     estimated scf accuracy    <       1.36230826 Ry

     iteration # 25     ecut=    30.00 Ry     beta=0.70
     Davidson diagonalization with overlap
     ethr =  1.52E-04,  avg # of iterations =  4.0

     total cpu time spent up to now is        1.6 secs

     total energy              =     -31.89528396 Ry
     Harris-Foulkes estimate   =     -31.99112452 Ry
     estimated scf accuracy    <       1.06408547 Ry

     iteration # 26     ecut=    30.00 Ry     beta=0.70
     Davidson diagonalization with overlap
     ethr =  1.52E-04,  avg # of iterations =  1.0

     total cpu time spent up to now is        1.6 secs

     total energy              =     -31.88138878 Ry
     Harris-Foulkes estimate   =     -31.89575507 Ry
     estimated scf accuracy    <       0.92297210 Ry

     iteration # 27     ecut=    30.00 Ry     beta=0.70
     Davidson diagonalization with overlap
     ethr =  1.52E-04,  avg # of iterations =  1.0

     total cpu time spent up to now is        1.7 secs

     total energy              =     -31.91040313 Ry
     Harris-Foulkes estimate   =     -31.88142267 Ry
     estimated scf accuracy    <       0.89969544 Ry

     iteration # 28     ecut=    30.00 Ry     beta=0.70
     Davidson diagonalization with overlap
     ethr =  1.52E-04,  avg # of iterations =  1.0

     total cpu time spent up to now is        1.7 secs

     total energy              =     -31.92242115 Ry
     Harris-Foulkes estimate   =     -31.91045615 Ry
     estimated scf accuracy    <       0.94306741 Ry

     iteration # 29     ecut=    30.00 Ry     beta=0.70
     Davidson diagonalization with overlap
     ethr =  1.52E-04,  avg # of iterations =  1.0

     total cpu time spent up to now is        1.8 secs

     total energy              =     -31.94944234 Ry
     Harris-Foulkes estimate   =     -31.92243166 Ry
     estimated scf accuracy    <       0.96131895 Ry

     iteration # 30     ecut=    30.00 Ry     beta=0.70
     Davidson diagonalization with overlap
     ethr =  1.52E-04,  avg # of iterations =  1.0

     total cpu time spent up to now is        1.8 secs

     total energy              =     -31.93528126 Ry
     Harris-Foulkes estimate   =     -31.94948394 Ry
     estimated scf accuracy    <       1.00170451 Ry

     iteration # 31     ecut=    30.00 Ry     beta=0.70
     Davidson diagonalization with overlap
     ethr =  1.52E-04,  avg # of iterations =  1.0

     total cpu time spent up to now is        1.9 secs

     total energy              =     -31.89083226 Ry
     Harris-Foulkes estimate   =     -31.93529236 Ry
     estimated scf accuracy    <       0.98139695 Ry

     iteration # 32     ecut=    30.00 Ry     beta=0.70
     Davidson diagonalization with overlap
     ethr =  1.52E-04,  avg # of iterations =  1.0

     negative rho (up, down):  2.232E-08 0.000E+00

     total cpu time spent up to now is        1.9 secs

     total energy              =     -31.66388961 Ry
     Harris-Foulkes estimate   =     -31.89094884 Ry
     estimated scf accuracy    <       0.91439240 Ry

     iteration # 33     ecut=    30.00 Ry     beta=0.70
     Davidson diagonalization with overlap
     ethr =  1.52E-04,  avg # of iterations =  4.0

     negative rho (up, down):  4.814E-07 0.000E+00

     total cpu time spent up to now is        2.0 secs

     total energy              =     -32.49771338 Ry
     Harris-Foulkes estimate   =     -32.03644928 Ry
     estimated scf accuracy    <       1.49420779 Ry

     iteration # 34     ecut=    30.00 Ry     beta=0.70
     Davidson diagonalization with overlap
     ethr =  1.52E-04,  avg # of iterations =  4.0

     negative rho (up, down):  3.857E-07 0.000E+00

     total cpu time spent up to now is        2.1 secs

     total energy              =     -31.83270435 Ry
     Harris-Foulkes estimate   =     -32.51124227 Ry
     estimated scf accuracy    <       2.33691889 Ry

     iteration # 35     ecut=    30.00 Ry     beta=0.70
     Davidson diagonalization with overlap
     ethr =  1.52E-04,  avg # of iterations =  5.0

     negative rho (up, down):  1.472E-08 0.000E+00

     total cpu time spent up to now is        2.1 secs

     total energy              =     -31.79756155 Ry
     Harris-Foulkes estimate   =     -31.85685769 Ry
     estimated scf accuracy    <       1.32406732 Ry

     iteration # 36     ecut=    30.00 Ry     beta=0.70
     Davidson diagonalization with overlap
     ethr =  1.52E-04,  avg # of iterations =  1.0

     negative rho (up, down):  3.752E-08 0.000E+00

     total cpu time spent up to now is        2.2 secs

     total energy              =     -31.86745310 Ry
     Harris-Foulkes estimate   =     -31.84203694 Ry
     estimated scf accuracy    <       0.34484169 Ry

     iteration # 37     ecut=    30.00 Ry     beta=0.70
     Davidson diagonalization with overlap
     ethr =  1.52E-04,  avg # of iterations =  1.0

     negative rho (up, down):  1.226E-08 0.000E+00

     total cpu time spent up to now is        2.2 secs

     total energy              =     -31.87302026 Ry
     Harris-Foulkes estimate   =     -31.87783188 Ry
     estimated scf accuracy    <       0.89142746 Ry

     iteration # 38     ecut=    30.00 Ry     beta=0.70
     Davidson diagonalization with overlap
     ethr =  1.52E-04,  avg # of iterations =  1.0

     negative rho (up, down):  2.733E-08 0.000E+00

     total cpu time spent up to now is        2.3 secs

     total energy              =     -31.86362390 Ry
     Harris-Foulkes estimate   =     -31.87302881 Ry
     estimated scf accuracy    <       0.88110806 Ry

     iteration # 39     ecut=    30.00 Ry     beta=0.70
     Davidson diagonalization with overlap
     ethr =  1.52E-04,  avg # of iterations =  1.0

     negative rho (up, down):  5.369E-08 0.000E+00

     total cpu time spent up to now is        2.3 secs

     total energy              =     -31.85461619 Ry
     Harris-Foulkes estimate   =     -31.86368465 Ry
     estimated scf accuracy    <       0.84047235 Ry

     iteration # 40     ecut=    30.00 Ry     beta=0.70
     Davidson diagonalization with overlap
     ethr =  1.52E-04,  avg # of iterations =  1.0

     negative rho (up, down):  5.284E-08 0.000E+00

     total cpu time spent up to now is        2.4 secs

     total energy              =     -31.84860990 Ry
     Harris-Foulkes estimate   =     -31.85482625 Ry
     estimated scf accuracy    <       0.73838283 Ry

     iteration # 41     ecut=    30.00 Ry     beta=0.70
     Davidson diagonalization with overlap
     ethr =  1.52E-04,  avg # of iterations =  1.0

     negative rho (up, down):  5.434E-08 0.000E+00

     total cpu time spent up to now is        2.4 secs

     total energy              =     -31.84797727 Ry
     Harris-Foulkes estimate   =     -31.84886988 Ry
     estimated scf accuracy    <       0.60190164 Ry

     iteration # 42     ecut=    30.00 Ry     beta=0.70
     Davidson diagonalization with overlap
     ethr =  1.52E-04,  avg # of iterations =  1.0

     total cpu time spent up to now is        2.5 secs

     total energy              =     -31.85518916 Ry
     Harris-Foulkes estimate   =     -31.84798677 Ry
     estimated scf accuracy    <       0.57548651 Ry

     iteration # 43     ecut=    30.00 Ry     beta=0.70
     Davidson diagonalization with overlap
     ethr =  1.52E-04,  avg # of iterations =  1.0

     total cpu time spent up to now is        2.5 secs

     total energy              =     -31.84967121 Ry
     Harris-Foulkes estimate   =     -31.85573188 Ry
     estimated scf accuracy    <       0.75308938 Ry

     iteration # 44     ecut=    30.00 Ry     beta=0.70
     Davidson diagonalization with overlap
     ethr =  1.52E-04,  avg # of iterations =  1.0

     total cpu time spent up to now is        2.6 secs

     total energy              =     -31.82685631 Ry
     Harris-Foulkes estimate   =     -31.84989192 Ry
     estimated scf accuracy    <       0.63042013 Ry

     iteration # 45     ecut=    30.00 Ry     beta=0.70
     Davidson diagonalization with overlap
     ethr =  1.52E-04,  avg # of iterations =  1.0

     total cpu time spent up to now is        2.6 secs

     total energy              =     -31.83774336 Ry
     Harris-Foulkes estimate   =     -31.83606842 Ry
     estimated scf accuracy    <       0.00075421 Ry

     iteration # 46     ecut=    30.00 Ry     beta=0.70
     Davidson diagonalization with overlap
     ethr =  9.43E-06,  avg # of iterations =  3.0

     total cpu time spent up to now is        2.7 secs

     total energy              =     -31.86166481 Ry
     Harris-Foulkes estimate   =     -31.85993032 Ry
     estimated scf accuracy    <       0.80856109 Ry

     iteration # 47     ecut=    30.00 Ry     beta=0.70
     Davidson diagonalization with overlap
     ethr =  9.43E-06,  avg # of iterations =  1.0

     total cpu time spent up to now is        2.7 secs

     total energy              =     -31.86022781 Ry
     Harris-Foulkes estimate   =     -31.86167445 Ry
     estimated scf accuracy    <       0.82538871 Ry

     iteration # 48     ecut=    30.00 Ry     beta=0.70
     Davidson diagonalization with overlap
     ethr =  9.43E-06,  avg # of iterations =  1.0

     total cpu time spent up to now is        2.8 secs

     total energy              =     -31.79846100 Ry
     Harris-Foulkes estimate   =     -31.86023272 Ry
     estimated scf accuracy    <       0.81251060 Ry

     iteration # 49     ecut=    30.00 Ry     beta=0.70
     Davidson diagonalization with overlap
     ethr =  9.43E-06,  avg # of iterations =  4.0

     total cpu time spent up to now is        2.8 secs

     total energy              =     -31.82815939 Ry
     Harris-Foulkes estimate   =     -31.85111247 Ry
     estimated scf accuracy    <       1.05139067 Ry

     iteration # 50     ecut=    30.00 Ry     beta=0.70
     Davidson diagonalization with overlap
     ethr =  9.43E-06,  avg # of iterations =  2.0

     total cpu time spent up to now is        2.9 secs

     total energy              =     -31.83681255 Ry
     Harris-Foulkes estimate   =     -31.83664642 Ry
     estimated scf accuracy    <       0.04652962 Ry

     iteration # 51     ecut=    30.00 Ry     beta=0.70
     Davidson diagonalization with overlap
     ethr =  9.43E-06,  avg # of iterations =  1.0

     total cpu time spent up to now is        2.9 secs

     total energy              =     -31.83985462 Ry
     Harris-Foulkes estimate   =     -31.83682451 Ry
     estimated scf accuracy    <       0.06037262 Ry

     iteration # 52     ecut=    30.00 Ry     beta=0.70
     Davidson diagonalization with overlap
     ethr =  9.43E-06,  avg # of iterations =  1.0

     total cpu time spent up to now is        3.0 secs

     total energy              =     -31.83284230 Ry
     Harris-Foulkes estimate   =     -31.84269365 Ry
     estimated scf accuracy    <       0.50995371 Ry

     iteration # 53     ecut=    30.00 Ry     beta=0.70
     Davidson diagonalization with overlap
     ethr =  9.43E-06,  avg # of iterations =  1.0

     total cpu time spent up to now is        3.0 secs

     total energy              =     -31.83635057 Ry
     Harris-Foulkes estimate   =     -31.83645930 Ry
     estimated scf accuracy    <       0.03196634 Ry

     iteration # 54     ecut=    30.00 Ry     beta=0.70
     Davidson diagonalization with overlap
     ethr =  9.43E-06,  avg # of iterations =  1.0

     total cpu time spent up to now is        3.1 secs

     total energy              =     -31.83582690 Ry
     Harris-Foulkes estimate   =     -31.83636384 Ry
     estimated scf accuracy    <       0.02348508 Ry

     iteration # 55     ecut=    30.00 Ry     beta=0.70
     Davidson diagonalization with overlap
     ethr =  9.43E-06,  avg # of iterations =  1.0

     total cpu time spent up to now is        3.1 secs

     total energy              =     -31.83604838 Ry
     Harris-Foulkes estimate   =     -31.83605692 Ry
     estimated scf accuracy    <       0.00040413 Ry

     iteration # 56     ecut=    30.00 Ry     beta=0.70
     Davidson diagonalization with overlap
     ethr =  5.05E-06,  avg # of iterations =  1.0

     total cpu time spent up to now is        3.2 secs

     total energy              =     -31.83605617 Ry
     Harris-Foulkes estimate   =     -31.83605097 Ry
     estimated scf accuracy    <       0.00004060 Ry

     iteration # 57     ecut=    30.00 Ry     beta=0.70
     Davidson diagonalization with overlap
     ethr =  5.07E-07,  avg # of iterations =  1.0

     total cpu time spent up to now is        3.2 secs

     total energy              =     -31.83603487 Ry
     Harris-Foulkes estimate   =     -31.83606723 Ry
     estimated scf accuracy    <       0.00125727 Ry

     iteration # 58     ecut=    30.00 Ry     beta=0.70
     Davidson diagonalization with overlap
     ethr =  5.07E-07,  avg # of iterations =  1.0

     total cpu time spent up to now is        3.3 secs

     total energy              =     -31.83605017 Ry
     Harris-Foulkes estimate   =     -31.83605018 Ry
     estimated scf accuracy    <       0.00000176 Ry

     iteration # 59     ecut=    30.00 Ry     beta=0.70
     Davidson diagonalization with overlap
     ethr =  2.20E-08,  avg # of iterations =  1.0

     total cpu time spent up to now is        3.3 secs

     total energy              =     -31.83605025 Ry
     Harris-Foulkes estimate   =     -31.83605019 Ry
     estimated scf accuracy    <       0.00000012 Ry

     iteration # 60     ecut=    30.00 Ry     beta=0.70
     Davidson diagonalization with overlap
     ethr =  1.48E-09,  avg # of iterations =  1.0

     total cpu time spent up to now is        3.4 secs

     total energy              =     -31.83605026 Ry
     Harris-Foulkes estimate   =     -31.83605026 Ry
     estimated scf accuracy    <       0.00000021 Ry

     iteration # 61     ecut=    30.00 Ry     beta=0.70
     Davidson diagonalization with overlap
     ethr =  1.48E-09,  avg # of iterations =  1.0

     total cpu time spent up to now is        3.4 secs

     total energy              =     -31.83605028 Ry
     Harris-Foulkes estimate   =     -31.83605027 Ry
     estimated scf accuracy    <       0.00000005 Ry

     iteration # 62     ecut=    30.00 Ry     beta=0.70
     Davidson diagonalization with overlap
     ethr =  5.65E-10,  avg # of iterations =  1.0

     total cpu time spent up to now is        3.5 secs

     End of self-consistent calculation

          k = 0.0000 0.0000 0.0000 ( 22119 PWs)   bands (ev):

   -26.2625 -11.1401  -7.2179  -7.2171  -7.0737  -0.4534   0.4301   0.7804

     the Fermi energy is    -7.0456 ev

!    total energy              =     -31.83605027 Ry
     Harris-Foulkes estimate   =     -31.83605028 Ry
     estimated scf accuracy    <          4.4E-09 Ry

     convergence has been achieved in  62 iterations

     Forces acting on atoms (Ry/au):

     atom    1 type  2   force =     0.13175961   -0.56657966    0.25159026
     atom    2 type  1   force =    -0.13212496    0.56602092   -0.25207482
     atom    3 type  1   force =     0.00036535    0.00055874    0.00048457

     Total force =     0.896130     Total SCF correction =     0.000023

     Molecular Dynamics Calculation

     Starting temperature  =  1000.00 K

     temperature is controlled by Andersen thermostat
     Collision frequency = 1.0000/timestep
     mass H                =     1.01
     mass O                =    16.00
     Time step             =   100.00 a.u.,  4.8378 femto-seconds

     Entering Dynamics:    iteration =     1
                           time      =   0.0048 pico-seconds


     Andersen thermostat:    3 collisions

ATOMIC_POSITIONS (bohr)
O       17.213006203  -1.642830199  12.469175594
H       16.131142049  23.239256894  10.301723584
H       15.957501548   7.476762520  10.524886428


     kinetic energy (Ekin) =     0.01337019 Ry
     temperature           =   703.66124461 K 
     Ekin + Etot (const)   =   -31.82268008 Ry

     Linear momentum :   -0.0000000000    0.0000000000    0.0000000000

     Writing output data file pwscf.save
     Check: negative starting charge=   -0.348290
     NEW-OLD atomic charge density approx. for the potential
     Check: negative starting charge=   -0.347344

     negative rho (up, down):  4.380E-01 0.000E+00

     total cpu time spent up to now is        3.8 secs

     per-process dynamical memory:    20.4 Mb

     Self-consistent Calculation

     iteration #  1     ecut=    30.00 Ry     beta=0.70
     Davidson diagonalization with overlap
     c_bands:  1 eigenvalues not converged
     ethr =  1.00E-06,  avg # of iterations = 20.0

     negative rho (up, down):  1.039E-01 0.000E+00

     total cpu time spent up to now is        4.0 secs

     total energy              =     -24.48285037 Ry
     Harris-Foulkes estimate   =     -32.96665675 Ry
     estimated scf accuracy    <       5.92185190 Ry

     iteration #  2     ecut=    30.00 Ry     beta=0.70
     Davidson diagonalization with overlap
     ethr =  1.00E-02,  avg # of iterations =  5.0

     negative rho (up, down):  7.522E-02 0.000E+00

     total cpu time spent up to now is        4.1 secs

     total energy              =     -32.66864692 Ry
     Harris-Foulkes estimate   =     -38.79919392 Ry
     estimated scf accuracy    <      14.87219805 Ry

     iteration #  3     ecut=    30.00 Ry     beta=0.70
     Davidson diagonalization with overlap
     ethr =  1.00E-02,  avg # of iterations =  3.0

     negative rho (up, down):  6.106E-02 0.000E+00

     total cpu time spent up to now is        4.1 secs

     total energy              =     -31.86924649 Ry
     Harris-Foulkes estimate   =     -33.07154307 Ry
     estimated scf accuracy    <       5.50241613 Ry

     iteration #  4     ecut=    30.00 Ry     beta=0.70
     Davidson diagonalization with overlap
     ethr =  1.00E-02,  avg # of iterations =  4.0

     negative rho (up, down):  2.317E-02 0.000E+00

     total cpu time spent up to now is        4.2 secs

     total energy              =     -30.23320484 Ry
     Harris-Foulkes estimate   =     -31.90098291 Ry
     estimated scf accuracy    <       3.43925762 Ry

     iteration #  5     ecut=    30.00 Ry     beta=0.70
     Davidson diagonalization with overlap
     ethr =  1.00E-02,  avg # of iterations =  3.0

     negative rho (up, down):  8.895E-03 0.000E+00

     total cpu time spent up to now is        4.2 secs

     total energy              =     -31.07370578 Ry
     Harris-Foulkes estimate   =     -33.70076994 Ry
     estimated scf accuracy    <      14.32689876 Ry

     iteration #  6     ecut=    30.00 Ry     beta=0.70
     Davidson diagonalization with overlap
     ethr =  1.00E-02,  avg # of iterations =  2.0

     negative rho (up, down):  2.403E-02 0.000E+00

     total cpu time spent up to now is        4.3 secs

     total energy              =     -31.68915946 Ry
     Harris-Foulkes estimate   =     -31.87763930 Ry
     estimated scf accuracy    <       3.99078628 Ry

     iteration #  7     ecut=    30.00 Ry     beta=0.70
     Davidson diagonalization with overlap
     ethr =  1.00E-02,  avg # of iterations =  1.0

     negative rho (up, down):  3.521E-02 0.000E+00

     total cpu time spent up to now is        4.3 secs

     total energy              =     -31.70281415 Ry
     Harris-Foulkes estimate   =     -31.70089493 Ry
     estimated scf accuracy    <       2.54200808 Ry

     iteration #  8     ecut=    30.00 Ry     beta=0.70
     Davidson diagonalization with overlap
     ethr =  1.00E-02,  avg # of iterations =  1.0

     negative rho (up, down):  1.335E-01 0.000E+00

     total cpu time spent up to now is        4.4 secs

     total energy              =     -31.42401510 Ry
     Harris-Foulkes estimate   =     -31.70489925 Ry
     estimated scf accuracy    <       3.14905301 Ry

     iteration #  9     ecut=    30.00 Ry     beta=0.70
     Davidson diagonalization with overlap
     ethr =  1.00E-02,  avg # of iterations =  1.0

     negative rho (up, down):  1.825E-01 0.000E+00

     total cpu time spent up to now is        4.4 secs

     total energy              =     -31.56339832 Ry
     Harris-Foulkes estimate   =     -31.58031430 Ry
     estimated scf accuracy    <       0.20740025 Ry

     iteration # 10     ecut=    30.00 Ry     beta=0.70
     Davidson diagonalization with overlap
     ethr =  2.59E-03,  avg # of iterations =  1.0

     negative rho (up, down):  4.901E-01 0.000E+00

     total cpu time spent up to now is        4.5 secs

     total energy              =     -31.95086623 Ry
     Harris-Foulkes estimate   =     -31.59077037 Ry
     estimated scf accuracy    <       1.09714008 Ry

     iteration # 11     ecut=    30.00 Ry     beta=0.70
     Davidson diagonalization with overlap
     ethr =  2.59E-03,  avg # of iterations =  2.0

     negative rho (up, down):  4.373E-01 0.000E+00

     total cpu time spent up to now is        4.6 secs

     total energy              =     -32.04146667 Ry
     Harris-Foulkes estimate   =     -32.13476471 Ry
     estimated scf accuracy    <       3.51975874 Ry

     iteration # 12     ecut=    30.00 Ry     beta=0.70
     Davidson diagonalization with overlap
     ethr =  2.59E-03,  avg # of iterations =  1.0

     negative rho (up, down):  3.728E-01 0.000E+00

     total cpu time spent up to now is        4.6 secs

     total energy              =     -31.88655548 Ry
     Harris-Foulkes estimate   =     -32.04289873 Ry
     estimated scf accuracy    <       3.32467521 Ry

     iteration # 13     ecut=    30.00 Ry     beta=0.70
     Davidson diagonalization with overlap
     ethr =  2.59E-03,  avg # of iterations =  1.0

     negative rho (up, down):  2.561E-02 0.000E+00

     total cpu time spent up to now is        4.7 secs

     total energy              =     -31.30759314 Ry
     Harris-Foulkes estimate   =     -31.88846370 Ry
     estimated scf accuracy    <       2.96443825 Ry

     iteration # 14     ecut=    30.00 Ry     beta=0.70
     Davidson diagonalization with overlap
     ethr =  2.59E-03,  avg # of iterations =  2.0

     negative rho (up, down):  1.147E-03 0.000E+00

     total cpu time spent up to now is        4.7 secs

     total energy              =     -31.70681601 Ry
     Harris-Foulkes estimate   =     -31.68198203 Ry
     estimated scf accuracy    <       1.97601945 Ry

     iteration # 15     ecut=    30.00 Ry     beta=0.70
     Davidson diagonalization with overlap
     ethr =  2.59E-03,  avg # of iterations =  1.0

     negative rho (up, down):  4.299E-03 0.000E+00

     total cpu time spent up to now is        4.8 secs

     total energy              =     -31.58715133 Ry
     Harris-Foulkes estimate   =     -31.70968046 Ry
     estimated scf accuracy    <       2.75602346 Ry

     iteration # 16     ecut=    30.00 Ry     beta=0.70
     Davidson diagonalization with overlap
     ethr =  2.59E-03,  avg # of iterations =  1.0

     negative rho (up, down):  1.910E-04 0.000E+00

     total cpu time spent up to now is        4.8 secs

     total energy              =     -31.62496581 Ry
     Harris-Foulkes estimate   =     -31.62757205 Ry
     estimated scf accuracy    <       0.33353330 Ry

     iteration # 17     ecut=    30.00 Ry     beta=0.70
     Davidson diagonalization with overlap
     ethr =  2.59E-03,  avg # of iterations =  1.0

     negative rho (up, down):  7.072E-04 0.000E+00

     total cpu time spent up to now is        4.9 secs

     total energy              =     -31.63553944 Ry
     Harris-Foulkes estimate   =     -31.62540870 Ry
     estimated scf accuracy    <       0.29579710 Ry

     iteration # 18     ecut=    30.00 Ry     beta=0.70
     Davidson diagonalization with overlap
     ethr =  2.59E-03,  avg # of iterations =  1.0

     negative rho (up, down):  5.193E-04 0.000E+00

     total cpu time spent up to now is        4.9 secs

     total energy              =     -31.63527330 Ry
     Harris-Foulkes estimate   =     -31.63807138 Ry
     estimated scf accuracy    <       0.61790549 Ry

     iteration # 19     ecut=    30.00 Ry     beta=0.70
     Davidson diagonalization with overlap
     ethr =  2.59E-03,  avg # of iterations =  1.0

     negative rho (up, down):  3.345E-03 0.000E+00

     total cpu time spent up to now is        4.9 secs

     total energy              =     -31.62300414 Ry
     Harris-Foulkes estimate   =     -31.63535311 Ry
     estimated scf accuracy    <       0.55144283 Ry

     iteration # 20     ecut=    30.00 Ry     beta=0.70
     Davidson diagonalization with overlap
     ethr =  2.59E-03,  avg # of iterations =  1.0

     negative rho (up, down):  1.479E-04 0.000E+00

     total cpu time spent up to now is        5.0 secs

     total energy              =     -31.62193790 Ry
     Harris-Foulkes estimate   =     -31.62516664 Ry
     estimated scf accuracy    <       0.28256270 Ry

     iteration # 21     ecut=    30.00 Ry     beta=0.70
     Davidson diagonalization with overlap
     ethr =  2.59E-03,  avg # of iterations =  1.0

     negative rho (up, down):  8.181E-03 0.000E+00

     total cpu time spent up to now is        5.0 secs

     total energy              =     -31.58591143 Ry
     Harris-Foulkes estimate   =     -31.62273788 Ry
     estimated scf accuracy    <       0.27388933 Ry

     iteration # 22     ecut=    30.00 Ry     beta=0.70
     Davidson diagonalization with overlap
     ethr =  2.59E-03,  avg # of iterations =  1.0

     negative rho (up, down):  2.936E-08 0.000E+00

     total cpu time spent up to now is        5.1 secs

     total energy              =     -31.59544252 Ry
     Harris-Foulkes estimate   =     -31.60256651 Ry
     estimated scf accuracy    <       0.01968337 Ry

     iteration # 23     ecut=    30.00 Ry     beta=0.70
     Davidson diagonalization with overlap
     ethr =  2.46E-04,  avg # of iterations =  1.0

     negative rho (up, down):  1.862E-05 0.000E+00

     total cpu time spent up to now is        5.1 secs

     total energy              =     -31.59921849 Ry
     Harris-Foulkes estimate   =     -31.60265753 Ry
     estimated scf accuracy    <       0.02760133 Ry

     iteration # 24     ecut=    30.00 Ry     beta=0.70
     Davidson diagonalization with overlap
     ethr =  2.46E-04,  avg # of iterations =  1.0

     negative rho (up, down):  1.841E-06 0.000E+00

     total cpu time spent up to now is        5.2 secs

     total energy              =     -31.58776867 Ry
     Harris-Foulkes estimate   =     -31.60275957 Ry
     estimated scf accuracy    <       0.10062772 Ry

     iteration # 25     ecut=    30.00 Ry     beta=0.70
     Davidson diagonalization with overlap
     ethr =  2.46E-04,  avg # of iterations =  1.0

     negative rho (up, down):  7.328E-05 0.000E+00

     total cpu time spent up to now is        5.2 secs

     total energy              =     -31.59868681 Ry
     Harris-Foulkes estimate   =     -31.60345644 Ry
     estimated scf accuracy    <       0.03132170 Ry

     iteration # 26     ecut=    30.00 Ry     beta=0.70
     Davidson diagonalization with overlap
     ethr =  2.46E-04,  avg # of iterations =  1.0

     negative rho (up, down):  7.463E-06 0.000E+00

     total cpu time spent up to now is        5.3 secs

     total energy              =     -31.59990441 Ry
     Harris-Foulkes estimate   =     -31.60011982 Ry
     estimated scf accuracy    <       0.00194751 Ry

     iteration # 27     ecut=    30.00 Ry     beta=0.70
     Davidson diagonalization with overlap
     ethr =  2.43E-05,  avg # of iterations =  7.0

     negative rho (up, down):  6.262E-07 0.000E+00

     total cpu time spent up to now is        5.3 secs

     total energy              =     -31.59997913 Ry
     Harris-Foulkes estimate   =     -31.60000385 Ry
     estimated scf accuracy    <       0.00013563 Ry

     iteration # 28     ecut=    30.00 Ry     beta=0.70
     Davidson diagonalization with overlap
     ethr =  1.70E-06,  avg # of iterations = 10.0

     total cpu time spent up to now is        5.4 secs

     total energy              =     -31.59993355 Ry
     Harris-Foulkes estimate   =     -31.60001436 Ry
     estimated scf accuracy    <       0.00039294 Ry

     iteration # 29     ecut=    30.00 Ry     beta=0.70
     Davidson diagonalization with overlap
     ethr =  1.70E-06,  avg # of iterations =  1.0

     total cpu time spent up to now is        5.5 secs

     total energy              =     -31.59993515 Ry
     Harris-Foulkes estimate   =     -31.60003659 Ry
     estimated scf accuracy    <       0.00104164 Ry

     iteration # 30     ecut=    30.00 Ry     beta=0.70
     Davidson diagonalization with overlap
     ethr =  1.70E-06,  avg # of iterations =  1.0

     total cpu time spent up to now is        5.5 secs

     total energy              =     -31.59999090 Ry
     Harris-Foulkes estimate   =     -31.59999666 Ry
     estimated scf accuracy    <       0.00005169 Ry

     iteration # 31     ecut=    30.00 Ry     beta=0.70
     Davidson diagonalization with overlap
     ethr =  6.46E-07,  avg # of iterations =  1.0

     total cpu time spent up to now is        5.6 secs

     total energy              =     -31.59999427 Ry
     Harris-Foulkes estimate   =     -31.59999445 Ry
     estimated scf accuracy    <       0.00000515 Ry

     iteration # 32     ecut=    30.00 Ry     beta=0.70
     Davidson diagonalization with overlap
     ethr =  6.44E-08,  avg # of iterations =  1.0

     total cpu time spent up to now is        5.6 secs

     total energy              =     -31.59999375 Ry
     Harris-Foulkes estimate   =     -31.59999431 Ry
     estimated scf accuracy    <       0.00000547 Ry

     iteration # 33     ecut=    30.00 Ry     beta=0.70
     Davidson diagonalization with overlap
     ethr =  6.44E-08,  avg # of iterations =  1.0

     total cpu time spent up to now is        5.7 secs

     total energy              =     -31.59999364 Ry
     Harris-Foulkes estimate   =     -31.59999381 Ry
     estimated scf accuracy    <       0.00000142 Ry

     iteration # 34     ecut=    30.00 Ry     beta=0.70
     Davidson diagonalization with overlap
     ethr =  1.78E-08,  avg # of iterations =  1.0

     total cpu time spent up to now is        5.7 secs

     total energy              =     -31.59999365 Ry
     Harris-Foulkes estimate   =     -31.59999367 Ry
     estimated scf accuracy    <       0.00000011 Ry

     iteration # 35     ecut=    30.00 Ry     beta=0.70
     Davidson diagonalization with overlap
     ethr =  1.39E-09,  avg # of iterations =  1.0

     total cpu time spent up to now is        5.7 secs

     End of self-consistent calculation

          k = 0.0000 0.0000 0.0000 ( 22119 PWs)   bands (ev):

   -24.0447  -7.8874  -7.4180  -7.4176  -7.3553  -5.8245  -0.2100   0.5765

     the Fermi energy is    -7.2832 ev

!    total energy              =     -31.59999365 Ry
     Harris-Foulkes estimate   =     -31.59999365 Ry
     estimated scf accuracy    <          8.0E-10 Ry

     convergence has been achieved in  35 iterations

     Forces acting on atoms (Ry/au):

     atom    1 type  2   force =    -0.00488646    0.01996564   -0.01002247
     atom    2 type  1   force =     0.00200959    0.04639912    0.01282944
     atom    3 type  1   force =     0.00287687   -0.06636476   -0.00280697

     Total force =     0.085234     Total SCF correction =     0.000025

     Entering Dynamics:    iteration =     2
                           time      =   0.0097 pico-seconds


     Andersen thermostat:    3 collisions

ATOMIC_POSITIONS (bohr)
O       17.212165026  -1.644817778  12.458205633
H       16.196768311  23.617744199  10.585219603
H       15.905200855   7.129761621  10.415171957


     kinetic energy (Ekin) =     0.00575349 Ry
     temperature           =   302.80085267 K 
     Ekin + Etot (const)   =   -31.59424017 Ry
     Message from routine dynamics:
     Total linear momentum <> 0

     Linear momentum :    0.0316409203    0.3676783473    0.1781879288

     Writing output data file pwscf.save

     first order wave-functions extrapolation
     Check: negative starting charge=   -0.347344
     first order charge density extrapolation
     Check: negative starting charge=   -0.349595

     negative rho (up, down):  4.077E-01 0.000E+00

     total cpu time spent up to now is        6.2 secs

     per-process dynamical memory:    20.4 Mb

     Self-consistent Calculation

     iteration #  1     ecut=    30.00 Ry     beta=0.70
     Davidson diagonalization with overlap
     ethr =  1.00E-06,  avg # of iterations = 13.0

     negative rho (up, down):  8.252E-02 0.000E+00

     total cpu time spent up to now is        6.3 secs

     total energy              =      56.38977040 Ry
     Harris-Foulkes estimate   =    -308.77097695 Ry
     estimated scf accuracy    <      18.10760759 Ry

     iteration #  2     ecut=    30.00 Ry     beta=0.70
     Davidson diagonalization with overlap
     ethr =  1.00E-02,  avg # of iterations =  8.0

     negative rho (up, down):  5.262E-02 0.000E+00

     total cpu time spent up to now is        6.4 secs

     total energy              =     -16.39387350 Ry
     Harris-Foulkes estimate   =     -55.99864603 Ry
     estimated scf accuracy    <      20.54229513 Ry

     iteration #  3     ecut=    30.00 Ry     beta=0.70
     Davidson diagonalization with overlap
     ethr =  1.00E-02,  avg # of iterations =  6.0

     negative rho (up, down):  4.348E-02 0.000E+00

     total cpu time spent up to now is        6.5 secs

     total energy              =     -32.96126038 Ry
     Harris-Foulkes estimate   =     -36.06784154 Ry
     estimated scf accuracy    <      10.42933430 Ry

     iteration #  4     ecut=    30.00 Ry     beta=0.70
     Davidson diagonalization with overlap
     ethr =  1.00E-02,  avg # of iterations =  3.0

     negative rho (up, down):  2.924E-02 0.000E+00

     total cpu time spent up to now is        6.5 secs

     total energy              =     -32.37979725 Ry
     Harris-Foulkes estimate   =     -33.15207065 Ry
     estimated scf accuracy    <       3.14513714 Ry

     iteration #  5     ecut=    30.00 Ry     beta=0.70
     Davidson diagonalization with overlap
     ethr =  1.00E-02,  avg # of iterations =  3.0

     negative rho (up, down):  4.178E-02 0.000E+00

     total cpu time spent up to now is        6.6 secs

     total energy              =     -33.25373138 Ry
     Harris-Foulkes estimate   =     -32.69360094 Ry
     estimated scf accuracy    <       4.96647867 Ry

     iteration #  6     ecut=    30.00 Ry     beta=0.70
     Davidson diagonalization with overlap
     ethr =  1.00E-02,  avg # of iterations =  4.0

     negative rho (up, down):  2.478E-02 0.000E+00

     total cpu time spent up to now is        6.6 secs

     total energy              =      21.49003151 Ry
     Harris-Foulkes estimate   =    -127.18209837 Ry
     estimated scf accuracy    <      17.96303726 Ry

     iteration #  7     ecut=    30.00 Ry     beta=0.70
     Davidson diagonalization with overlap
     ethr =  1.00E-02,  avg # of iterations =  6.0

     negative rho (up, down):  2.110E-02 0.000E+00

     total cpu time spent up to now is        6.7 secs

     total energy              =     -30.68084559 Ry
     Harris-Foulkes estimate   =     -32.52316921 Ry
     estimated scf accuracy    <       1.05918027 Ry

     iteration #  8     ecut=    30.00 Ry     beta=0.70
     Davidson diagonalization with overlap
     ethr =  1.00E-02,  avg # of iterations =  3.0

     negative rho (up, down):  1.930E-02 0.000E+00

     total cpu time spent up to now is        6.8 secs

     total energy              =     -31.86266280 Ry
     Harris-Foulkes estimate   =     -31.95972144 Ry
     estimated scf accuracy    <       1.02103205 Ry

     iteration #  9     ecut=    30.00 Ry     beta=0.70
     Davidson diagonalization with overlap
     ethr =  1.00E-02,  avg # of iterations =  1.0

     negative rho (up, down):  1.853E-02 0.000E+00

     total cpu time spent up to now is        6.8 secs

     total energy              =     -31.43376062 Ry
     Harris-Foulkes estimate   =     -31.86471478 Ry
     estimated scf accuracy    <       0.85653734 Ry

     iteration # 10     ecut=    30.00 Ry     beta=0.70
     Davidson diagonalization with overlap
     ethr =  1.00E-02,  avg # of iterations =  2.0

     negative rho (up, down):  3.599E-01 0.000E+00

     total cpu time spent up to now is        6.9 secs

     total energy              =     -32.91792960 Ry
     Harris-Foulkes estimate   =     -31.78032709 Ry
     estimated scf accuracy    <       0.73922201 Ry

     iteration # 11     ecut=    30.00 Ry     beta=0.70
     Davidson diagonalization with overlap
     ethr =  9.24E-03,  avg # of iterations =  4.0

     negative rho (up, down):  4.006E-01 0.000E+00

     total cpu time spent up to now is        6.9 secs

     total energy              =       1.47587553 Ry
     Harris-Foulkes estimate   =    -135.54245588 Ry
     estimated scf accuracy    <      23.17030579 Ry

     iteration # 12     ecut=    30.00 Ry     beta=0.70
     Davidson diagonalization with overlap
     ethr =  9.24E-03,  avg # of iterations =  4.0

     negative rho (up, down):  2.139E-01 0.000E+00

     total cpu time spent up to now is        7.0 secs

     total energy              =    8011.17398457 Ry
     Harris-Foulkes estimate   =    -100.64513731 Ry
     estimated scf accuracy    <      26.54865716 Ry

     iteration # 13     ecut=    30.00 Ry     beta=0.70
     Davidson diagonalization with overlap
     ethr =  9.24E-03,  avg # of iterations =  5.0

     negative rho (up, down):  1.775E-01 0.000E+00

     total cpu time spent up to now is        7.1 secs

     total energy              =     -41.50621383 Ry
     Harris-Foulkes estimate   =    -412.29265832 Ry
     estimated scf accuracy    <      44.35460950 Ry

     iteration # 14     ecut=    30.00 Ry     beta=0.70
     Davidson diagonalization with overlap
     ethr =  9.24E-03,  avg # of iterations =  5.0

     negative rho (up, down):  9.189E-02 0.000E+00

     total cpu time spent up to now is        7.1 secs

     total energy              =     -22.30420057 Ry
     Harris-Foulkes estimate   =    -231.58839536 Ry
     estimated scf accuracy    <      47.88675418 Ry

     iteration # 15     ecut=    30.00 Ry     beta=0.70
     Davidson diagonalization with overlap
     ethr =  9.24E-03,  avg # of iterations =  4.0

     negative rho (up, down):  4.054E-02 0.000E+00

     total cpu time spent up to now is        7.2 secs

     total energy              =     -10.00559618 Ry
     Harris-Foulkes estimate   =    -283.62899079 Ry
     estimated scf accuracy    <      25.33530415 Ry

     iteration # 16     ecut=    30.00 Ry     beta=0.70
     Davidson diagonalization with overlap
     ethr =  9.24E-03,  avg # of iterations =  4.0

     negative rho (up, down):  4.757E-02 0.000E+00

     total cpu time spent up to now is        7.3 secs

     total energy              =      46.73746844 Ry
     Harris-Foulkes estimate   =    -409.55362950 Ry
     estimated scf accuracy    <      30.83400676 Ry

     iteration # 17     ecut=    30.00 Ry     beta=0.70
     Davidson diagonalization with overlap
     ethr =  9.24E-03,  avg # of iterations =  5.0

     negative rho (up, down):  9.543E-02 0.000E+00

     total cpu time spent up to now is        7.4 secs

     total energy              =     -44.70028692 Ry
     Harris-Foulkes estimate   =     -36.74066386 Ry
     estimated scf accuracy    <       4.75594863 Ry

     iteration # 18     ecut=    30.00 Ry     beta=0.70
     Davidson diagonalization with overlap
     ethr =  9.24E-03,  avg # of iterations =  5.0

     negative rho (up, down):  1.001E-01 0.000E+00

     total cpu time spent up to now is        7.4 secs

     total energy              =      59.49304990 Ry
     Harris-Foulkes estimate   =    -494.26252910 Ry
     estimated scf accuracy    <      45.46373201 Ry

     iteration # 19     ecut=    30.00 Ry     beta=0.70
     Davidson diagonalization with overlap
     ethr =  9.24E-03,  avg # of iterations =  8.0

     negative rho (up, down):  7.430E-01 0.000E+00

     total cpu time spent up to now is        7.5 secs

     total energy              =    -393.46443268 Ry
     Harris-Foulkes estimate   =    -746.98844814 Ry
     estimated scf accuracy    <      25.71841512 Ry

     iteration # 20     ecut=    30.00 Ry     beta=0.70
     Davidson diagonalization with overlap
     ethr =  9.24E-03,  avg # of iterations =  6.0

     negative rho (up, down):  7.140E-01 0.000E+00

     total cpu time spent up to now is        7.6 secs

     total energy              =      38.22798804 Ry
     Harris-Foulkes estimate   =   -5833.85736728 Ry
     estimated scf accuracy    <      31.28166965 Ry

     iteration # 21     ecut=    30.00 Ry     beta=0.70
     Davidson diagonalization with overlap
     ethr =  9.24E-03,  avg # of iterations =  6.0

     negative rho (up, down):  8.351E-01 0.000E+00

     total cpu time spent up to now is        7.7 secs

     total energy              =   -1048.26209637 Ry
     Harris-Foulkes estimate   =    -645.14284095 Ry
     estimated scf accuracy    <      47.06401297 Ry

     iteration # 22     ecut=    30.00 Ry     beta=0.70
     Davidson diagonalization with overlap
     ethr =  9.24E-03,  avg # of iterations =  7.0

     negative rho (up, down):  6.882E-01 0.000E+00

     total cpu time spent up to now is        7.8 secs

     total energy              =    -982.66711936 Ry
     Harris-Foulkes estimate   =   -3417.85254959 Ry
     estimated scf accuracy    <      37.00423805 Ry

     iteration # 23     ecut=    30.00 Ry     beta=0.70
     Davidson diagonalization with overlap
     ethr =  9.24E-03,  avg # of iterations =  7.0

     negative rho (up, down):  5.700E-01 0.000E+00

     total cpu time spent up to now is        7.9 secs

     total energy              =     211.00677556 Ry
     Harris-Foulkes estimate   =   -7774.17873077 Ry
     estimated scf accuracy    <      37.71586742 Ry

     iteration # 24     ecut=    30.00 Ry     beta=0.70
     Davidson diagonalization with overlap
     ethr =  9.24E-03,  avg # of iterations =  7.0

     negative rho (up, down):  7.420E-01 0.000E+00

     total cpu time spent up to now is        7.9 secs

     total energy              =    -121.65077698 Ry
     Harris-Foulkes estimate   =   -4853.27681314 Ry
     estimated scf accuracy    <      34.45614913 Ry

     iteration # 25     ecut=    30.00 Ry     beta=0.70
     Davidson diagonalization with overlap
     ethr =  9.24E-03,  avg # of iterations =  4.0

     negative rho (up, down):  9.390E-01 0.000E+00

     total cpu time spent up to now is        8.0 secs

     total energy              =   -1321.45913071 Ry
     Harris-Foulkes estimate   =   -1674.98883664 Ry
     estimated scf accuracy    <      38.04274239 Ry

     iteration # 26     ecut=    30.00 Ry     beta=0.70
     Davidson diagonalization with overlap
     ethr =  9.24E-03,  avg # of iterations =  8.0

     negative rho (up, down):  6.458E-01 0.000E+00

     total cpu time spent up to now is        8.1 secs

     total energy              =    -153.90781462 Ry
     Harris-Foulkes estimate   =  -10177.09785929 Ry
     estimated scf accuracy    <      38.03253703 Ry

     iteration # 27     ecut=    30.00 Ry     beta=0.70
     Davidson diagonalization with overlap
     ethr =  9.24E-03,  avg # of iterations = 11.0

     negative rho (up, down):  7.888E-01 0.000E+00

     total cpu time spent up to now is        8.2 secs

     total energy              =      25.58044484 Ry
     Harris-Foulkes estimate   =   -3561.83634784 Ry
     estimated scf accuracy    <      27.52430865 Ry

     iteration # 28     ecut=    30.00 Ry     beta=0.70
     Davidson diagonalization with overlap
     ethr =  9.24E-03,  avg # of iterations =  6.0

     negative rho (up, down):  5.658E-01 0.000E+00

     total cpu time spent up to now is        8.3 secs

     total energy              =      16.35148240 Ry
     Harris-Foulkes estimate   =   -1552.73227596 Ry
     estimated scf accuracy    <      20.05474643 Ry

     iteration # 29     ecut=    30.00 Ry     beta=0.70
     Davidson diagonalization with overlap
     ethr =  9.24E-03,  avg # of iterations =  8.0

     negative rho (up, down):  7.370E-01 0.000E+00

     total cpu time spent up to now is        8.4 secs

     total energy              =    -403.56519578 Ry
     Harris-Foulkes estimate   =  -10933.79901415 Ry
     estimated scf accuracy    <      33.15227333 Ry

     iteration # 30     ecut=    30.00 Ry     beta=0.70
     Davidson diagonalization with overlap
     ethr =  9.24E-03,  avg # of iterations = 11.0

     negative rho (up, down):  2.861E-01 0.000E+00

     total cpu time spent up to now is        8.5 secs

     total energy              =    -102.75413443 Ry
     Harris-Foulkes estimate   =   -2517.20322708 Ry
     estimated scf accuracy    <      24.05577309 Ry

     iteration # 31     ecut=    30.00 Ry     beta=0.70
     Davidson diagonalization with overlap
     ethr =  9.24E-03,  avg # of iterations =  7.0

     negative rho (up, down):  4.550E-01 0.000E+00

     total cpu time spent up to now is        8.6 secs

     total energy              =     119.68699745 Ry
     Harris-Foulkes estimate   =    -867.15566481 Ry
     estimated scf accuracy    <      18.91179191 Ry

     iteration # 32     ecut=    30.00 Ry     beta=0.70
     Davidson diagonalization with overlap
     ethr =  9.24E-03,  avg # of iterations =  6.0

     negative rho (up, down):  3.226E-01 0.000E+00

     total cpu time spent up to now is        8.6 secs

     total energy              =      80.80304026 Ry
     Harris-Foulkes estimate   =    -839.84361890 Ry
     estimated scf accuracy    <      21.28138644 Ry

     iteration # 33     ecut=    30.00 Ry     beta=0.70
     Davidson diagonalization with overlap
     ethr =  9.24E-03,  avg # of iterations =  7.0

     negative rho (up, down):  4.642E-02 0.000E+00

     total cpu time spent up to now is        8.7 secs

     total energy              =     104.44485602 Ry
     Harris-Foulkes estimate   =    -850.43909705 Ry
     estimated scf accuracy    <      19.13575679 Ry

     iteration # 34     ecut=    30.00 Ry     beta=0.70
     Davidson diagonalization with overlap
     ethr =  9.24E-03,  avg # of iterations =  7.0

     negative rho (up, down):  7.513E-03 0.000E+00

     total cpu time spent up to now is        8.8 secs

     total energy              =      44.13285352 Ry
     Harris-Foulkes estimate   =    -437.59135284 Ry
     estimated scf accuracy    <      13.54129579 Ry

     iteration # 35     ecut=    30.00 Ry     beta=0.70
     Davidson diagonalization with overlap
     ethr =  9.24E-03,  avg # of iterations =  9.0

     negative rho (up, down):  1.641E-04 0.000E+00

     total cpu time spent up to now is        8.9 secs

     total energy              =      -8.37727642 Ry
     Harris-Foulkes estimate   =    -162.74930100 Ry
     estimated scf accuracy    <      27.85234724 Ry

     iteration # 36     ecut=    30.00 Ry     beta=0.70
     Davidson diagonalization with overlap
     ethr =  9.24E-03,  avg # of iterations =  5.0

     negative rho (up, down):  1.271E-02 0.000E+00

     total cpu time spent up to now is        8.9 secs

     total energy              =     -51.58206310 Ry
     Harris-Foulkes estimate   =     -52.56230900 Ry
     estimated scf accuracy    <      35.45405532 Ry

     iteration # 37     ecut=    30.00 Ry     beta=0.70
     Davidson diagonalization with overlap
     ethr =  9.24E-03,  avg # of iterations =  1.0

     negative rho (up, down):  2.598E-01 0.000E+00

     total cpu time spent up to now is        9.0 secs

     total energy              =     -50.19872145 Ry
     Harris-Foulkes estimate   =     -51.59121747 Ry
     estimated scf accuracy    <      33.95085006 Ry

     iteration # 38     ecut=    30.00 Ry     beta=0.70
     Davidson diagonalization with overlap
     ethr =  9.24E-03,  avg # of iterations =  5.0

     negative rho (up, down):  1.548E-01 0.000E+00

     total cpu time spent up to now is        9.1 secs

     total energy              =     -14.26241384 Ry
     Harris-Foulkes estimate   =    -120.96407001 Ry
     estimated scf accuracy    <      22.66899060 Ry

     iteration # 39     ecut=    30.00 Ry     beta=0.70
     Davidson diagonalization with overlap
     ethr =  9.24E-03,  avg # of iterations =  4.0

     negative rho (up, down):  1.071E-01 0.000E+00

     total cpu time spent up to now is        9.1 secs

     total energy              =      30.09537256 Ry
     Harris-Foulkes estimate   =    -167.45384371 Ry
     estimated scf accuracy    <      19.62642232 Ry

     iteration # 40     ecut=    30.00 Ry     beta=0.70
     Davidson diagonalization with overlap
     ethr =  9.24E-03,  avg # of iterations =  5.0

     negative rho (up, down):  2.814E-01 0.000E+00

     total cpu time spent up to now is        9.2 secs

     total energy              =     -14.98767774 Ry
     Harris-Foulkes estimate   =    -102.78251978 Ry
     estimated scf accuracy    <      19.43543828 Ry

     iteration # 41     ecut=    30.00 Ry     beta=0.70
     Davidson diagonalization with overlap
     ethr =  9.24E-03,  avg # of iterations =  7.0

     negative rho (up, down):  1.346E-01 0.000E+00

     total cpu time spent up to now is        9.3 secs

     total energy              =      82.45249541 Ry
     Harris-Foulkes estimate   =    -263.81271388 Ry
     estimated scf accuracy    <      27.86053829 Ry

     iteration # 42     ecut=    30.00 Ry     beta=0.70
     Davidson diagonalization with overlap
     ethr =  9.24E-03,  avg # of iterations = 10.0

     negative rho (up, down):  2.273E-01 0.000E+00

     total cpu time spent up to now is        9.4 secs

     total energy              =     -49.62145113 Ry
     Harris-Foulkes estimate   =     -48.63951475 Ry
     estimated scf accuracy    <      29.05382701 Ry

     iteration # 43     ecut=    30.00 Ry     beta=0.70
     Davidson diagonalization with overlap
     ethr =  9.24E-03,  avg # of iterations =  6.0

     negative rho (up, down):  3.070E-01 0.000E+00

     total cpu time spent up to now is        9.4 secs

     total energy              =      18.76317954 Ry
     Harris-Foulkes estimate   =   -1162.07266858 Ry
     estimated scf accuracy    <      19.56086529 Ry

     iteration # 44     ecut=    30.00 Ry     beta=0.70
     Davidson diagonalization with overlap
     ethr =  9.24E-03,  avg # of iterations =  8.0

     negative rho (up, down):  8.349E-08 0.000E+00

     total cpu time spent up to now is        9.6 secs

     total energy              =     122.15043960 Ry
     Harris-Foulkes estimate   =   -1718.73588166 Ry
     estimated scf accuracy    <      25.28105901 Ry

     iteration # 45     ecut=    30.00 Ry     beta=0.70
     Davidson diagonalization with overlap
     ethr =  9.24E-03,  avg # of iterations = 10.0

     negative rho (up, down):  2.972E-02 0.000E+00

     total cpu time spent up to now is        9.7 secs

     total energy              =     -42.46351456 Ry
     Harris-Foulkes estimate   =     -45.22245023 Ry
     estimated scf accuracy    <      24.06207696 Ry

     iteration # 46     ecut=    30.00 Ry     beta=0.70
     Davidson diagonalization with overlap
     ethr =  9.24E-03,  avg # of iterations =  5.0

     negative rho (up, down):  6.251E-02 0.000E+00

     total cpu time spent up to now is        9.8 secs

     total energy              =       6.72297507 Ry
     Harris-Foulkes estimate   =    -150.34430789 Ry
     estimated scf accuracy    <      11.80205000 Ry

     iteration # 47     ecut=    30.00 Ry     beta=0.70
     Davidson diagonalization with overlap
     ethr =  9.24E-03,  avg # of iterations =  5.0

     negative rho (up, down):  4.165E-02 0.000E+00

     total cpu time spent up to now is        9.8 secs

     total energy              =      28.82254959 Ry
     Harris-Foulkes estimate   =     -96.43908926 Ry
     estimated scf accuracy    <      20.78875104 Ry

     iteration # 48     ecut=    30.00 Ry     beta=0.70
     Davidson diagonalization with overlap
     ethr =  9.24E-03,  avg # of iterations =  8.0

     negative rho (up, down):  1.304E-02 0.000E+00

     total cpu time spent up to now is        9.9 secs

     total energy              =     -24.28030601 Ry
     Harris-Foulkes estimate   =     -44.20436761 Ry
     estimated scf accuracy    <      13.41684939 Ry

     iteration # 49     ecut=    30.00 Ry     beta=0.70
     Davidson diagonalization with overlap
     ethr =  9.24E-03,  avg # of iterations =  3.0

     negative rho (up, down):  5.268E-03 0.000E+00

     total cpu time spent up to now is       10.0 secs

     total energy              =     -16.84531662 Ry
     Harris-Foulkes estimate   =     -64.10865513 Ry
     estimated scf accuracy    <      18.22958305 Ry

     iteration # 50     ecut=    30.00 Ry     beta=0.70
     Davidson diagonalization with overlap
     ethr =  9.24E-03,  avg # of iterations =  5.0

     negative rho (up, down):  4.265E-05 0.000E+00

     total cpu time spent up to now is       10.0 secs

     total energy              =     -18.65013778 Ry
     Harris-Foulkes estimate   =     -46.16929858 Ry
     estimated scf accuracy    <      13.77407922 Ry

     iteration # 51     ecut=    30.00 Ry     beta=0.70
     Davidson diagonalization with overlap
     ethr =  9.24E-03,  avg # of iterations =  5.0

     negative rho (up, down):  1.427E-02 0.000E+00

     total cpu time spent up to now is       10.1 secs

     total energy              =     -38.38628202 Ry
     Harris-Foulkes estimate   =     -41.15057919 Ry
     estimated scf accuracy    <      18.38527597 Ry

     iteration # 52     ecut=    30.00 Ry     beta=0.70
     Davidson diagonalization with overlap
     ethr =  9.24E-03,  avg # of iterations =  7.0

     negative rho (up, down):  1.065E-03 0.000E+00

     total cpu time spent up to now is       10.2 secs

     total energy              =      97.83168456 Ry
     Harris-Foulkes estimate   =    -291.92413253 Ry
     estimated scf accuracy    <      30.96824248 Ry

     iteration # 53     ecut=    30.00 Ry     beta=0.70
     Davidson diagonalization with overlap
     ethr =  9.24E-03,  avg # of iterations =  9.0

     negative rho (up, down):  9.539E-03 0.000E+00

     total cpu time spent up to now is       10.3 secs

     total energy              =     -36.18266571 Ry
     Harris-Foulkes estimate   =     -37.96862183 Ry
     estimated scf accuracy    <      10.54649095 Ry

     iteration # 54     ecut=    30.00 Ry     beta=0.70
     Davidson diagonalization with overlap
     ethr =  9.24E-03,  avg # of iterations =  5.0

     negative rho (up, down):  1.736E-04 0.000E+00

     total cpu time spent up to now is       10.3 secs

     total energy              =     -15.56465256 Ry
     Harris-Foulkes estimate   =     -43.65559856 Ry
     estimated scf accuracy    <       8.32788013 Ry

     iteration # 55     ecut=    30.00 Ry     beta=0.70
     Davidson diagonalization with overlap
     ethr =  9.24E-03,  avg # of iterations =  6.0

     negative rho (up, down):  2.111E-03 0.000E+00

     total cpu time spent up to now is       10.4 secs

     total energy              =     -35.77686610 Ry
     Harris-Foulkes estimate   =     -37.71804039 Ry
     estimated scf accuracy    <      13.10029325 Ry

     iteration # 56     ecut=    30.00 Ry     beta=0.70
     Davidson diagonalization with overlap
     ethr =  9.24E-03,  avg # of iterations =  4.0

     negative rho (up, down):  1.049E-02 0.000E+00

     total cpu time spent up to now is       10.5 secs

     total energy              =      -6.32461034 Ry
     Harris-Foulkes estimate   =    -113.68155978 Ry
     estimated scf accuracy    <       6.22507027 Ry

     iteration # 57     ecut=    30.00 Ry     beta=0.70
     Davidson diagonalization with overlap
     ethr =  9.24E-03,  avg # of iterations =  4.0

     negative rho (up, down):  3.080E-07 0.000E+00

     total cpu time spent up to now is       10.5 secs

     total energy              =      -2.44685321 Ry
     Harris-Foulkes estimate   =     -75.32710367 Ry
     estimated scf accuracy    <       7.49070649 Ry

     iteration # 58     ecut=    30.00 Ry     beta=0.70
     Davidson diagonalization with overlap
     ethr =  9.24E-03,  avg # of iterations =  5.0

     negative rho (up, down):  4.228E-02 0.000E+00

     total cpu time spent up to now is       10.6 secs

     total energy              =     -35.32325709 Ry
     Harris-Foulkes estimate   =     -35.77968977 Ry
     estimated scf accuracy    <       6.57848217 Ry

     iteration # 59     ecut=    30.00 Ry     beta=0.70
     Davidson diagonalization with overlap
     ethr =  9.24E-03,  avg # of iterations =  4.0

     negative rho (up, down):  1.799E-01 0.000E+00

     total cpu time spent up to now is       10.6 secs

     total energy              =     105.00162730 Ry
     Harris-Foulkes estimate   =    -322.44210154 Ry
     estimated scf accuracy    <      19.59661187 Ry

     iteration # 60     ecut=    30.00 Ry     beta=0.70
     Davidson diagonalization with overlap
     ethr =  9.24E-03,  avg # of iterations =  5.0

     negative rho (up, down):  2.303E-01 0.000E+00

     total cpu time spent up to now is       10.7 secs

     total energy              =     -78.76804094 Ry
     Harris-Foulkes estimate   =    -306.95516541 Ry
     estimated scf accuracy    <      30.03958337 Ry

     iteration # 61     ecut=    30.00 Ry     beta=0.70
     Davidson diagonalization with overlap
     ethr =  9.24E-03,  avg # of iterations =  7.0

     total cpu time spent up to now is       10.8 secs

     total energy              =      95.29993354 Ry
     Harris-Foulkes estimate   =   -1009.75810801 Ry
     estimated scf accuracy    <      29.52422711 Ry

     iteration # 62     ecut=    30.00 Ry     beta=0.70
     Davidson diagonalization with overlap
     ethr =  9.24E-03,  avg # of iterations =  9.0

     negative rho (up, down):  1.424E-02 0.000E+00

     total cpu time spent up to now is       10.9 secs

     total energy              =     -34.68014815 Ry
     Harris-Foulkes estimate   =     -35.03395362 Ry
     estimated scf accuracy    <       5.52310021 Ry

     iteration # 63     ecut=    30.00 Ry     beta=0.70
     Davidson diagonalization with overlap
     ethr =  9.24E-03,  avg # of iterations =  2.0

     negative rho (up, down):  1.784E-02 0.000E+00

     total cpu time spent up to now is       11.0 secs

     total energy              =     -34.49418936 Ry
     Harris-Foulkes estimate   =     -34.94050334 Ry
     estimated scf accuracy    <       9.34251761 Ry

     iteration # 64     ecut=    30.00 Ry     beta=0.70
     Davidson diagonalization with overlap
     ethr =  9.24E-03,  avg # of iterations =  3.0

     negative rho (up, down):  4.938E-02 0.000E+00

     total cpu time spent up to now is       11.0 secs

     total energy              =    -106.07562295 Ry
     Harris-Foulkes estimate   =     -45.29473708 Ry
     estimated scf accuracy    <      10.05591804 Ry

     iteration # 65     ecut=    30.00 Ry     beta=0.70
     Davidson diagonalization with overlap
     ethr =  9.24E-03,  avg # of iterations =  3.0

     negative rho (up, down):  4.242E-02 0.000E+00

     total cpu time spent up to now is       11.1 secs

     total energy              =      -0.83565259 Ry
     Harris-Foulkes estimate   =    -303.35426265 Ry
     estimated scf accuracy    <      11.40102479 Ry

     iteration # 66     ecut=    30.00 Ry     beta=0.70
     Davidson diagonalization with overlap
     ethr =  9.24E-03,  avg # of iterations =  4.0

     negative rho (up, down):  1.533E-01 0.000E+00

     total cpu time spent up to now is       11.1 secs

     total energy              =     -66.14566122 Ry
     Harris-Foulkes estimate   =     -34.88418428 Ry
     estimated scf accuracy    <       7.96780558 Ry

     iteration # 67     ecut=    30.00 Ry     beta=0.70
     Davidson diagonalization with overlap
     ethr =  9.24E-03,  avg # of iterations =  7.0

     negative rho (up, down):  1.114E-01 0.000E+00

     total cpu time spent up to now is       11.2 secs

     total energy              =      50.45462190 Ry
     Harris-Foulkes estimate   =   -1349.62489059 Ry
     estimated scf accuracy    <      32.99921891 Ry

     iteration # 68     ecut=    30.00 Ry     beta=0.70
     Davidson diagonalization with overlap
     ethr =  9.24E-03,  avg # of iterations =  5.0

     negative rho (up, down):  1.150E-01 0.000E+00

     total cpu time spent up to now is       11.3 secs

     total energy              =    1618.31614895 Ry
     Harris-Foulkes estimate   =    -600.04660885 Ry
     estimated scf accuracy    <      49.47835497 Ry

     iteration # 69     ecut=    30.00 Ry     beta=0.70
     Davidson diagonalization with overlap
     ethr =  9.24E-03,  avg # of iterations =  8.0

     negative rho (up, down):  1.031E-01 0.000E+00

     total cpu time spent up to now is       11.4 secs

     total energy              =     -75.78660131 Ry
     Harris-Foulkes estimate   =    -268.34169421 Ry
     estimated scf accuracy    <      23.17712417 Ry

     iteration # 70     ecut=    30.00 Ry     beta=0.70
     Davidson diagonalization with overlap
     ethr =  9.24E-03,  avg # of iterations =  5.0

     negative rho (up, down):  1.716E-01 0.000E+00

     total cpu time spent up to now is       11.5 secs

     total energy              =   -1939.97522731 Ry
     Harris-Foulkes estimate   =    -490.86255372 Ry
     estimated scf accuracy    <      51.78228582 Ry

     iteration # 71     ecut=    30.00 Ry     beta=0.70
     Davidson diagonalization with overlap
     ethr =  9.24E-03,  avg # of iterations =  4.0

     negative rho (up, down):  3.982E-01 0.000E+00

     total cpu time spent up to now is       11.5 secs

     total energy              =      26.30268328 Ry
     Harris-Foulkes estimate   =   -4364.51516920 Ry
     estimated scf accuracy    <      45.05110560 Ry

     iteration # 72     ecut=    30.00 Ry     beta=0.70
     Davidson diagonalization with overlap
     ethr =  9.24E-03,  avg # of iterations = 10.0

     negative rho (up, down):  5.478E-01 0.000E+00

     total cpu time spent up to now is       11.6 secs

     total energy              =    -978.43137998 Ry
     Harris-Foulkes estimate   =   -1206.15470228 Ry
     estimated scf accuracy    <      35.19663806 Ry

     iteration # 73     ecut=    30.00 Ry     beta=0.70
     Davidson diagonalization with overlap
     ethr =  9.24E-03,  avg # of iterations =  7.0

     negative rho (up, down):  7.313E-01 0.000E+00

     total cpu time spent up to now is       11.7 secs

     total energy              =    -130.04422921 Ry
     Harris-Foulkes estimate   =   -7449.19561021 Ry
     estimated scf accuracy    <      44.78575656 Ry

     iteration # 74     ecut=    30.00 Ry     beta=0.70
     Davidson diagonalization with overlap
     ethr =  9.24E-03,  avg # of iterations =  4.0

     negative rho (up, down):  8.317E-01 0.000E+00

     total cpu time spent up to now is       11.8 secs

     total energy              =      72.34428860 Ry
     Harris-Foulkes estimate   =   -1672.67228700 Ry
     estimated scf accuracy    <      33.10232956 Ry

     iteration # 75     ecut=    30.00 Ry     beta=0.70
     Davidson diagonalization with overlap
     ethr =  9.24E-03,  avg # of iterations = 12.0

     negative rho (up, down):  1.157E+00 0.000E+00

     total cpu time spent up to now is       11.9 secs

     total energy              =    -373.18119989 Ry
     Harris-Foulkes estimate   =    -158.49640579 Ry
     estimated scf accuracy    <      40.68263816 Ry

     iteration # 76     ecut=    30.00 Ry     beta=0.70
     Davidson diagonalization with overlap
     ethr =  9.24E-03,  avg # of iterations =  8.0

     negative rho (up, down):  1.588E+00 0.000E+00

     total cpu time spent up to now is       12.0 secs

     total energy              =      99.90991744 Ry
     Harris-Foulkes estimate   =   -4293.06440773 Ry
     estimated scf accuracy    <      31.51302616 Ry

     iteration # 77     ecut=    30.00 Ry     beta=0.70
     Davidson diagonalization with overlap
     ethr =  9.24E-03,  avg # of iterations = 11.0

     negative rho (up, down):  1.634E+00 0.000E+00

     total cpu time spent up to now is       12.1 secs

     total energy              =    -122.40296044 Ry
     Harris-Foulkes estimate   =    -837.27470772 Ry
     estimated scf accuracy    <      26.51761317 Ry

     iteration # 78     ecut=    30.00 Ry     beta=0.70
     Davidson diagonalization with overlap
     ethr =  9.24E-03,  avg # of iterations =  8.0

     negative rho (up, down):  1.165E+00 0.000E+00

     total cpu time spent up to now is       12.2 secs

     total energy              =      93.53147986 Ry
     Harris-Foulkes estimate   =  -10654.88677244 Ry
     estimated scf accuracy    <      29.05733889 Ry

     iteration # 79     ecut=    30.00 Ry     beta=0.70
     Davidson diagonalization with overlap
     ethr =  9.24E-03,  avg # of iterations =  7.0

     negative rho (up, down):  6.423E-01 0.000E+00

     total cpu time spent up to now is       12.3 secs

     total energy              =      66.42485999 Ry
     Harris-Foulkes estimate   =   -1220.77049189 Ry
     estimated scf accuracy    <      21.89722631 Ry

     iteration # 80     ecut=    30.00 Ry     beta=0.70
     Davidson diagonalization with overlap
     ethr =  9.24E-03,  avg # of iterations =  6.0

     negative rho (up, down):  5.338E-01 0.000E+00

     total cpu time spent up to now is       12.3 secs

     total energy              =    8440.29602495 Ry
     Harris-Foulkes estimate   =   -1163.42547967 Ry
     estimated scf accuracy    <      16.08967928 Ry

     iteration # 81     ecut=    30.00 Ry     beta=0.70
     Davidson diagonalization with overlap
     ethr =  9.24E-03,  avg # of iterations =  9.0

     negative rho (up, down):  4.734E-01 0.000E+00

     total cpu time spent up to now is       12.4 secs

     total energy              =      86.34273877 Ry
     Harris-Foulkes estimate   =   -2962.24207776 Ry
     estimated scf accuracy    <      24.42319597 Ry

     iteration # 82     ecut=    30.00 Ry     beta=0.70
     Davidson diagonalization with overlap
     ethr =  9.24E-03,  avg # of iterations =  8.0

     negative rho (up, down):  3.278E-01 0.000E+00

     total cpu time spent up to now is       12.5 secs

     total energy              =      52.33436768 Ry
     Harris-Foulkes estimate   =    -738.86916377 Ry
     estimated scf accuracy    <      19.03333381 Ry

     iteration # 83     ecut=    30.00 Ry     beta=0.70
     Davidson diagonalization with overlap
     ethr =  9.24E-03,  avg # of iterations =  7.0

     negative rho (up, down):  9.199E-02 0.000E+00

     total cpu time spent up to now is       12.6 secs

     total energy              =      37.18966051 Ry
     Harris-Foulkes estimate   =    -641.45937794 Ry
     estimated scf accuracy    <      14.56444793 Ry

     iteration # 84     ecut=    30.00 Ry     beta=0.70
     Davidson diagonalization with overlap
     ethr =  9.24E-03,  avg # of iterations =  4.0

     negative rho (up, down):  8.274E-04 0.000E+00

     total cpu time spent up to now is       12.7 secs

     total energy              =     132.75627117 Ry
     Harris-Foulkes estimate   =   -4407.10664080 Ry
     estimated scf accuracy    <      22.63259738 Ry

     iteration # 85     ecut=    30.00 Ry     beta=0.70
     Davidson diagonalization with overlap
     ethr =  9.24E-03,  avg # of iterations =  8.0

     negative rho (up, down):  2.019E-03 0.000E+00

     total cpu time spent up to now is       12.8 secs

     total energy              =     -48.37845688 Ry
     Harris-Foulkes estimate   =     -55.18779886 Ry
     estimated scf accuracy    <      39.90010118 Ry

     iteration # 86     ecut=    30.00 Ry     beta=0.70
     Davidson diagonalization with overlap
     ethr =  9.24E-03,  avg # of iterations =  4.0

     negative rho (up, down):  1.100E-03 0.000E+00

     total cpu time spent up to now is       12.8 secs

     total energy              =      37.48635485 Ry
     Harris-Foulkes estimate   =    -389.26007005 Ry
     estimated scf accuracy    <      15.64559958 Ry

     iteration # 87     ecut=    30.00 Ry     beta=0.70
     Davidson diagonalization with overlap
     ethr =  9.24E-03,  avg # of iterations =  7.0

     negative rho (up, down):  1.067E+00 0.000E+00

     total cpu time spent up to now is       12.9 secs

     total energy              =    -102.35616408 Ry
     Harris-Foulkes estimate   =     -49.76366834 Ry
     estimated scf accuracy    <      29.94652600 Ry

     iteration # 88     ecut=    30.00 Ry     beta=0.70
     Davidson diagonalization with overlap
     ethr =  9.24E-03,  avg # of iterations =  8.0

     negative rho (up, down):  1.086E+00 0.000E+00

     total cpu time spent up to now is       13.0 secs

     total energy              =  -19438.82254804 Ry
     Harris-Foulkes estimate   =  -10040.93506766 Ry
     estimated scf accuracy    <      36.79540340 Ry

     iteration # 89     ecut=    30.00 Ry     beta=0.70
     Davidson diagonalization with overlap
     ethr =  9.24E-03,  avg # of iterations =  5.0

     negative rho (up, down):  9.850E-01 0.000E+00

     total cpu time spent up to now is       13.1 secs

     total energy              =      14.17672440 Ry
     Harris-Foulkes estimate   =  -20741.02836333 Ry
     estimated scf accuracy    <      28.30065578 Ry

     iteration # 90     ecut=    30.00 Ry     beta=0.70
     Davidson diagonalization with overlap
     ethr =  9.24E-03,  avg # of iterations =  7.0

     negative rho (up, down):  6.499E-01 0.000E+00

     total cpu time spent up to now is       13.2 secs

     total energy              =     -66.92181247 Ry
     Harris-Foulkes estimate   =   -3998.49296356 Ry
     estimated scf accuracy    <      34.75144261 Ry

     iteration # 91     ecut=    30.00 Ry     beta=0.70
     Davidson diagonalization with overlap
     ethr =  9.24E-03,  avg # of iterations =  7.0

     negative rho (up, down):  1.845E-01 0.000E+00

     total cpu time spent up to now is       13.2 secs

     total energy              =     114.81410523 Ry
     Harris-Foulkes estimate   =   -2486.69859181 Ry
     estimated scf accuracy    <      26.86689728 Ry

     iteration # 92     ecut=    30.00 Ry     beta=0.70
     Davidson diagonalization with overlap
     ethr =  9.24E-03,  avg # of iterations = 12.0

     negative rho (up, down):  8.380E-03 0.000E+00

     total cpu time spent up to now is       13.3 secs

     total energy              =     108.89931586 Ry
     Harris-Foulkes estimate   =   -2503.56379642 Ry
     estimated scf accuracy    <      26.06720436 Ry

     iteration # 93     ecut=    30.00 Ry     beta=0.70
     Davidson diagonalization with overlap
     ethr =  9.24E-03,  avg # of iterations =  6.0

     negative rho (up, down):  1.222E-04 0.000E+00

     total cpu time spent up to now is       13.4 secs

     total energy              =      24.03456679 Ry
     Harris-Foulkes estimate   =    -436.96736224 Ry
     estimated scf accuracy    <      15.68032004 Ry

     iteration # 94     ecut=    30.00 Ry     beta=0.70
     Davidson diagonalization with overlap
     ethr =  9.24E-03,  avg # of iterations =  7.0

     negative rho (up, down):  2.853E-02 0.000E+00

     total cpu time spent up to now is       13.5 secs

     total energy              =     -38.39395245 Ry
     Harris-Foulkes estimate   =     -44.09997933 Ry
     estimated scf accuracy    <      22.77130515 Ry

     iteration # 95     ecut=    30.00 Ry     beta=0.70
     Davidson diagonalization with overlap
     ethr =  9.24E-03,  avg # of iterations =  6.0

     negative rho (up, down):  2.175E-01 0.000E+00

     total cpu time spent up to now is       13.6 secs

     total energy              =     -96.53279069 Ry
     Harris-Foulkes estimate   =    -362.87737180 Ry
     estimated scf accuracy    <      27.10896204 Ry

     iteration # 96     ecut=    30.00 Ry     beta=0.70
     Davidson diagonalization with overlap
     ethr =  9.24E-03,  avg # of iterations =  6.0

     negative rho (up, down):  2.236E-02 0.000E+00

     total cpu time spent up to now is       13.7 secs

     total energy              =     100.75694893 Ry
     Harris-Foulkes estimate   =    -927.95033317 Ry
     estimated scf accuracy    <      35.99512649 Ry

     iteration # 97     ecut=    30.00 Ry     beta=0.70
     Davidson diagonalization with overlap
     ethr =  9.24E-03,  avg # of iterations = 10.0

     negative rho (up, down):  3.977E-02 0.000E+00

     total cpu time spent up to now is       13.8 secs

     total energy              =     269.81406751 Ry
     Harris-Foulkes estimate   =    -465.21342531 Ry
     estimated scf accuracy    <      31.70379389 Ry

     iteration # 98     ecut=    30.00 Ry     beta=0.70
     Davidson diagonalization with overlap
     ethr =  9.24E-03,  avg # of iterations =  6.0

     negative rho (up, down):  1.155E-01 0.000E+00

     total cpu time spent up to now is       13.8 secs

     total energy              =      21.27880173 Ry
     Harris-Foulkes estimate   =     -72.43223529 Ry
     estimated scf accuracy    <      13.10708304 Ry

     iteration # 99     ecut=    30.00 Ry     beta=0.70
     Davidson diagonalization with overlap
     ethr =  9.24E-03,  avg # of iterations =  6.0

     negative rho (up, down):  1.706E-01 0.000E+00

     total cpu time spent up to now is       13.9 secs

     total energy              =     110.97986087 Ry
     Harris-Foulkes estimate   =   -1652.20791398 Ry
     estimated scf accuracy    <      33.90273499 Ry

     iteration #100     ecut=    30.00 Ry     beta=0.70
     Davidson diagonalization with overlap
     ethr =  9.24E-03,  avg # of iterations =  7.0

     negative rho (up, down):  5.092E-02 0.000E+00

     total cpu time spent up to now is       14.0 secs

     total energy              =      92.46052509 Ry
     Harris-Foulkes estimate   =    -174.95108417 Ry
     estimated scf accuracy    <      19.15912202 Ry

     End of self-consistent calculation

     convergence NOT achieved after 100 iterations: stopping

     Writing output data file pwscf.save
 
     init_run     :      0.17s CPU      0.19s WALL (       1 calls)
     electrons    :     11.31s CPU     13.06s WALL (       3 calls)
     update_pot   :      0.33s CPU      0.41s WALL (       2 calls)
     forces       :      0.09s CPU      0.09s WALL (       2 calls)

     Called by init_run:
     wfcinit      :      0.01s CPU      0.02s WALL (       1 calls)
     potinit      :      0.05s CPU      0.05s WALL (       1 calls)

     Called by electrons:
     c_bands      :      6.08s CPU      6.29s WALL (     197 calls)
     sum_band     :      0.99s CPU      1.06s WALL (     197 calls)
     v_of_rho     :      2.40s CPU      2.52s WALL (     200 calls)
     mix_rho      :      1.59s CPU      2.74s WALL (     197 calls)

     Called by c_bands:
     init_us_2    :      0.03s CPU      0.04s WALL (     395 calls)
     cegterg      :      6.03s CPU      6.19s WALL (     197 calls)

     Called by sum_band:

     Called by *egterg:
     h_psi        :      5.13s CPU      5.25s WALL (     999 calls)
     g_psi        :      0.06s CPU      0.06s WALL (     801 calls)
     cdiaghg      :      0.35s CPU      0.36s WALL (     996 calls)

     Called by h_psi:
     h_psi:pot    :      5.10s CPU      5.22s WALL (     999 calls)
     h_psi:calbec :      0.07s CPU      0.07s WALL (     999 calls)
     vloc_psi     :      5.01s CPU      5.13s WALL (     999 calls)
     add_vuspsi   :      0.01s CPU      0.01s WALL (     999 calls)

     General routines
     calbec       :      0.07s CPU      0.07s WALL (    1008 calls)
     fft          :      1.60s CPU      1.70s WALL (    2204 calls)
     fftw         :      5.20s CPU      5.36s WALL (   13196 calls)
     davcio       :      0.23s CPU      1.01s WALL (    3686 calls)
 
     Parallel routines
     fft_scatter  :      2.28s CPU      2.46s WALL (   15400 calls)
 
     PWSCF        :    12.12s CPU        14.14s WALL

 
   This run was terminated on:  15:32:25  13Feb2018            

=------------------------------------------------------------------------------=
   JOB DONE.
=------------------------------------------------------------------------------=
