
     Program PWSCF v.6.0 (svn rev. 13079) starts on 13Feb2018 at 15:41: 2 

     This program is part of the open-source Quantum ESPRESSO suite
     for quantum simulation of materials; please cite
         "P. Giannozzi et al., J. Phys.:Condens. Matter 21 395502 (2009);
          URL http://www.quantum-espresso.org", 
     in publications or presentations arising from this work. More details at
     http://www.quantum-espresso.org/quote

     Parallel version (MPI), running on    28 processors
     R & G space division:  proc/nbgrp/npool/nimage =      28
     Reading input from inputs/MD-H2O-round1/509.in

     Current dimensions of program PWSCF are:
     Max number of different atomic species (ntypx) = 10
     Max number of k-points (npk) =  40000
     Max angular momentum in pseudopotentials (lmaxx) =  3

     Subspace diagonalization in iterative solution of the eigenvalue problem:
     a serial algorithm will be used

 
     Parallelization info
     --------------------
     sticks:   dense  smooth     PW     G-vecs:    dense   smooth      PW
     Min         136     136     33                 6338     6338     787
     Max         137     137     34                 6341     6341     792
     Sum        3809    3809    949               177509   177509   22119
 


     bravais-lattice index     =            1
     lattice parameter (alat)  =      20.0000  a.u.
     unit-cell volume          =    8000.0000 (a.u.)^3
     number of atoms/cell      =            3
     number of atomic types    =            2
     number of electrons       =         8.00
     number of Kohn-Sham states=            8
     kinetic-energy cutoff     =      30.0000  Ry
     charge density cutoff     =     120.0000  Ry
     convergence threshold     =      1.0E-08
     mixing beta               =       0.7000
     number of iterations used =            8  plain     mixing
     Exchange-correlation      = BLYP ( 1  3  1  3 0 0)
     nstep                     =         5000


     celldm(1)=  20.000000  celldm(2)=   0.000000  celldm(3)=   0.000000
     celldm(4)=   0.000000  celldm(5)=   0.000000  celldm(6)=   0.000000

     crystal axes: (cart. coord. in units of alat)
               a(1) = (   1.000000   0.000000   0.000000 )  
               a(2) = (   0.000000   1.000000   0.000000 )  
               a(3) = (   0.000000   0.000000   1.000000 )  

     reciprocal axes: (cart. coord. in units 2 pi/alat)
               b(1) = (  1.000000  0.000000  0.000000 )  
               b(2) = (  0.000000  1.000000  0.000000 )  
               b(3) = (  0.000000  0.000000  1.000000 )  


     PseudoPot. # 1 for  H read from file:
     ./H.blyp-hgh.UPF
     MD5 check sum: c576e69559cde411e611be972c763230
     Pseudo is Norm-conserving, Zval =  1.0
     Generated in analytical, separable form
     Using radial grid of  929 points,  0 beta functions with: 

     PseudoPot. # 2 for  O read from file:
     ./O.blyp-hgh.UPF
     MD5 check sum: d0b7156309aa9befef28faac7bc56342
     Pseudo is Norm-conserving, Zval =  6.0
     Generated in analytical, separable form
     Using radial grid of 1095 points,  1 beta functions with: 
                l(1) =   0

     atomic species   valence    mass     pseudopotential
        H              1.00     1.01000      H( 1.00)
        O              6.00    16.00000      O( 1.00)

     No symmetry found



   Cartesian axes

     site n.     atom                  positions (alat units)
         1           O   tau(   1) = (   0.5566267   1.0756279   0.9107128  )
         2           H   tau(   2) = (   0.5161792   0.1333113   0.8735776  )
         3           H   tau(   3) = (   0.1203358   0.4469534   0.6212332  )

     number of k points=     1  Marzari-Vanderbilt smearing, width (Ry)=  0.0250
                       cart. coord. in units 2pi/alat
        k(    1) = (   0.0000000   0.0000000   0.0000000), wk =   2.0000000

     Dense  grid:   177509 G-vectors     FFT dimensions: (  72,  72,  72)

     Estimated max dynamical RAM per process >       6.09Mb

     Estimated total allocated dynamical RAM >     170.64Mb

     Initial potential from superposition of free atoms
     Check: negative starting charge=   -0.353194

     starting charge    7.99998, renormalised to    8.00000

     negative rho (up, down):  3.532E-01 0.000E+00
     Starting wfc are    6 randomized atomic wfcs +    2 random wfc

     total cpu time spent up to now is        0.4 secs

     per-process dynamical memory:    18.8 Mb

     Self-consistent Calculation

     iteration #  1     ecut=    30.00 Ry     beta=0.70
     Davidson diagonalization with overlap
     ethr =  1.00E-02,  avg # of iterations =  8.0

     negative rho (up, down):  9.569E-02 0.000E+00

     total cpu time spent up to now is        0.4 secs

     total energy              =     -31.51217286 Ry
     Harris-Foulkes estimate   =     -32.07046933 Ry
     estimated scf accuracy    <       0.59546651 Ry

     iteration #  2     ecut=    30.00 Ry     beta=0.70
     Davidson diagonalization with overlap
     ethr =  7.44E-03,  avg # of iterations =  3.0

     negative rho (up, down):  7.353E-02 0.000E+00

     total cpu time spent up to now is        0.5 secs

     total energy              =     -31.73982596 Ry
     Harris-Foulkes estimate   =     -32.48965459 Ry
     estimated scf accuracy    <       2.47065103 Ry

     iteration #  3     ecut=    30.00 Ry     beta=0.70
     Davidson diagonalization with overlap
     ethr =  7.44E-03,  avg # of iterations =  2.0

     negative rho (up, down):  3.398E-02 0.000E+00

     total cpu time spent up to now is        0.5 secs

     total energy              =     -31.67264392 Ry
     Harris-Foulkes estimate   =     -31.78590506 Ry
     estimated scf accuracy    <       0.42879705 Ry

     iteration #  4     ecut=    30.00 Ry     beta=0.70
     Davidson diagonalization with overlap
     ethr =  5.36E-03,  avg # of iterations =  1.0

     negative rho (up, down):  1.034E-02 0.000E+00

     total cpu time spent up to now is        0.6 secs

     total energy              =     -31.66071815 Ry
     Harris-Foulkes estimate   =     -31.99954257 Ry
     estimated scf accuracy    <       1.18686193 Ry

     iteration #  5     ecut=    30.00 Ry     beta=0.70
     Davidson diagonalization with overlap
     ethr =  5.36E-03,  avg # of iterations =  1.0

     negative rho (up, down):  1.734E-03 0.000E+00

     total cpu time spent up to now is        0.6 secs

     total energy              =     -31.80344504 Ry
     Harris-Foulkes estimate   =     -31.99619605 Ry
     estimated scf accuracy    <       1.47604723 Ry

     iteration #  6     ecut=    30.00 Ry     beta=0.70
     Davidson diagonalization with overlap
     ethr =  5.36E-03,  avg # of iterations =  1.0

     negative rho (up, down):  1.002E-03 0.000E+00

     total cpu time spent up to now is        0.7 secs

     total energy              =     -31.81761879 Ry
     Harris-Foulkes estimate   =     -31.83701514 Ry
     estimated scf accuracy    <       0.23711312 Ry

     iteration #  7     ecut=    30.00 Ry     beta=0.70
     Davidson diagonalization with overlap
     ethr =  2.96E-03,  avg # of iterations =  1.0

     negative rho (up, down):  7.733E-04 0.000E+00

     total cpu time spent up to now is        0.7 secs

     total energy              =     -31.77371241 Ry
     Harris-Foulkes estimate   =     -31.84743002 Ry
     estimated scf accuracy    <       1.03012853 Ry

     iteration #  8     ecut=    30.00 Ry     beta=0.70
     Davidson diagonalization with overlap
     ethr =  2.96E-03,  avg # of iterations =  1.0

     negative rho (up, down):  1.190E-04 0.000E+00

     total cpu time spent up to now is        0.8 secs

     total energy              =     -31.81228546 Ry
     Harris-Foulkes estimate   =     -31.86445797 Ry
     estimated scf accuracy    <       0.90001109 Ry

     iteration #  9     ecut=    30.00 Ry     beta=0.70
     Davidson diagonalization with overlap
     ethr =  2.96E-03,  avg # of iterations =  1.0

     negative rho (up, down):  7.190E-07 0.000E+00

     total cpu time spent up to now is        0.8 secs

     total energy              =     -31.82804088 Ry
     Harris-Foulkes estimate   =     -31.83490885 Ry
     estimated scf accuracy    <       0.09995157 Ry

     iteration # 10     ecut=    30.00 Ry     beta=0.70
     Davidson diagonalization with overlap
     ethr =  1.25E-03,  avg # of iterations =  1.0

     negative rho (up, down):  1.321E-06 0.000E+00

     total cpu time spent up to now is        0.9 secs

     total energy              =     -31.83389163 Ry
     Harris-Foulkes estimate   =     -31.83745973 Ry
     estimated scf accuracy    <       0.24641486 Ry

     iteration # 11     ecut=    30.00 Ry     beta=0.70
     Davidson diagonalization with overlap
     ethr =  1.25E-03,  avg # of iterations =  1.0

     total cpu time spent up to now is        0.9 secs

     total energy              =     -31.83406068 Ry
     Harris-Foulkes estimate   =     -31.83467589 Ry
     estimated scf accuracy    <       0.07154950 Ry

     iteration # 12     ecut=    30.00 Ry     beta=0.70
     Davidson diagonalization with overlap
     ethr =  8.94E-04,  avg # of iterations =  1.0

     total cpu time spent up to now is        1.0 secs

     total energy              =     -31.83285336 Ry
     Harris-Foulkes estimate   =     -31.83415539 Ry
     estimated scf accuracy    <       0.03407670 Ry

     iteration # 13     ecut=    30.00 Ry     beta=0.70
     Davidson diagonalization with overlap
     ethr =  4.26E-04,  avg # of iterations =  1.0

     total cpu time spent up to now is        1.0 secs

     total energy              =     -31.83338786 Ry
     Harris-Foulkes estimate   =     -31.83380507 Ry
     estimated scf accuracy    <       0.00825516 Ry

     iteration # 14     ecut=    30.00 Ry     beta=0.70
     Davidson diagonalization with overlap
     ethr =  1.03E-04,  avg # of iterations =  1.0

     total cpu time spent up to now is        1.1 secs

     total energy              =     -31.83358650 Ry
     Harris-Foulkes estimate   =     -31.83381046 Ry
     estimated scf accuracy    <       0.00841370 Ry

     iteration # 15     ecut=    30.00 Ry     beta=0.70
     Davidson diagonalization with overlap
     ethr =  1.03E-04,  avg # of iterations =  1.0

     total cpu time spent up to now is        1.1 secs

     total energy              =     -31.83369958 Ry
     Harris-Foulkes estimate   =     -31.83370144 Ry
     estimated scf accuracy    <       0.00001252 Ry

     iteration # 16     ecut=    30.00 Ry     beta=0.70
     Davidson diagonalization with overlap
     c_bands:  1 eigenvalues not converged
     ethr =  1.57E-07,  avg # of iterations = 20.0

     total cpu time spent up to now is        1.2 secs

     total energy              =     -31.83369953 Ry
     Harris-Foulkes estimate   =     -31.83370315 Ry
     estimated scf accuracy    <       0.00017483 Ry

     iteration # 17     ecut=    30.00 Ry     beta=0.70
     Davidson diagonalization with overlap
     c_bands:  1 eigenvalues not converged
     ethr =  1.57E-07,  avg # of iterations = 20.0

     total cpu time spent up to now is        1.3 secs

     total energy              =     -31.83370093 Ry
     Harris-Foulkes estimate   =     -31.83370099 Ry
     estimated scf accuracy    <       0.00000594 Ry

     iteration # 18     ecut=    30.00 Ry     beta=0.70
     Davidson diagonalization with overlap
     ethr =  7.42E-08,  avg # of iterations =  1.0

     total cpu time spent up to now is        1.3 secs

     total energy              =     -31.83370095 Ry
     Harris-Foulkes estimate   =     -31.83370096 Ry
     estimated scf accuracy    <       0.00000098 Ry

     iteration # 19     ecut=    30.00 Ry     beta=0.70
     Davidson diagonalization with overlap
     ethr =  1.23E-08,  avg # of iterations =  1.0

     total cpu time spent up to now is        1.4 secs

     total energy              =     -31.83370095 Ry
     Harris-Foulkes estimate   =     -31.83370095 Ry
     estimated scf accuracy    <       0.00000025 Ry

     iteration # 20     ecut=    30.00 Ry     beta=0.70
     Davidson diagonalization with overlap
     ethr =  3.10E-09,  avg # of iterations =  1.0

     total cpu time spent up to now is        1.4 secs

     End of self-consistent calculation

          k = 0.0000 0.0000 0.0000 ( 22119 PWs)   bands (ev):

   -26.2444 -11.1043  -7.1844  -7.1840  -7.0412  -0.4611   0.4826   0.8053

     the Fermi energy is    -7.0126 ev

!    total energy              =     -31.83370095 Ry
     Harris-Foulkes estimate   =     -31.83370096 Ry
     estimated scf accuracy    <          1.1E-11 Ry

     convergence has been achieved in  20 iterations

     Forces acting on atoms (Ry/au):

     atom    1 type  2   force =     0.32612653   -0.46613196    0.29890628
     atom    2 type  1   force =    -0.32599848    0.46608401   -0.29899679
     atom    3 type  1   force =    -0.00012804    0.00004795    0.00009051

     Total force =     0.908785     Total SCF correction =     0.000002

     Molecular Dynamics Calculation

     Starting temperature  =  1000.00 K

     temperature is controlled by Andersen thermostat
     Collision frequency = 1.0000/timestep
     mass H                =     1.01
     mass O                =    16.00
     Time step             =   100.00 a.u.,  4.8378 femto-seconds

     Entering Dynamics:    iteration =     1
                           time      =   0.0048 pico-seconds


     Andersen thermostat:    3 collisions

ATOMIC_POSITIONS (bohr)
O       11.225500546  21.333204006  18.313255751
H        8.576144743   5.269250682  15.714932727
H        2.681402058   9.177311542  12.612953551


     kinetic energy (Ekin) =     0.00933653 Ry
     temperature           =   491.37333795 K 
     Ekin + Etot (const)   =   -31.82436442 Ry

     Linear momentum :   -0.0000000000   -0.0000000000    0.0000000000

     Writing output data file pwscf.save
     Check: negative starting charge=   -0.353194
     NEW-OLD atomic charge density approx. for the potential
     Check: negative starting charge=   -0.345177

     negative rho (up, down):  4.574E-01 0.000E+00

     total cpu time spent up to now is        1.8 secs

     per-process dynamical memory:    20.4 Mb

     Self-consistent Calculation

     iteration #  1     ecut=    30.00 Ry     beta=0.70
     Davidson diagonalization with overlap
     ethr =  1.00E-06,  avg # of iterations = 12.0

     negative rho (up, down):  1.076E-01 0.000E+00

     total cpu time spent up to now is        1.9 secs

     total energy              =      -7.86730502 Ry
     Harris-Foulkes estimate   =     -39.35893619 Ry
     estimated scf accuracy    <      12.92773655 Ry

     iteration #  2     ecut=    30.00 Ry     beta=0.70
     Davidson diagonalization with overlap
     ethr =  1.00E-02,  avg # of iterations =  4.0

     negative rho (up, down):  7.389E-02 0.000E+00

     total cpu time spent up to now is        2.0 secs

     total energy              =     -33.70047011 Ry
     Harris-Foulkes estimate   =     -43.37530016 Ry
     estimated scf accuracy    <      21.20016105 Ry

     iteration #  3     ecut=    30.00 Ry     beta=0.70
     Davidson diagonalization with overlap
     ethr =  1.00E-02,  avg # of iterations =  4.0

     negative rho (up, down):  5.126E-02 0.000E+00

     total cpu time spent up to now is        2.0 secs

     total energy              =     -31.74806542 Ry
     Harris-Foulkes estimate   =     -34.28135209 Ry
     estimated scf accuracy    <       7.24640749 Ry

     iteration #  4     ecut=    30.00 Ry     beta=0.70
     Davidson diagonalization with overlap
     ethr =  1.00E-02,  avg # of iterations =  5.0

     negative rho (up, down):  4.717E-02 0.000E+00

     total cpu time spent up to now is        2.1 secs

     total energy              =     -31.72321247 Ry
     Harris-Foulkes estimate   =     -32.06121395 Ry
     estimated scf accuracy    <       2.16317989 Ry

     iteration #  5     ecut=    30.00 Ry     beta=0.70
     Davidson diagonalization with overlap
     ethr =  1.00E-02,  avg # of iterations =  1.0

     negative rho (up, down):  1.331E-02 0.000E+00

     total cpu time spent up to now is        2.1 secs

     total energy              =     -30.78404129 Ry
     Harris-Foulkes estimate   =     -32.21199724 Ry
     estimated scf accuracy    <       3.81669782 Ry

     iteration #  6     ecut=    30.00 Ry     beta=0.70
     Davidson diagonalization with overlap
     ethr =  1.00E-02,  avg # of iterations =  2.0

     negative rho (up, down):  2.379E-02 0.000E+00

     total cpu time spent up to now is        2.2 secs

     total energy              =     -31.56836020 Ry
     Harris-Foulkes estimate   =     -32.52146423 Ry
     estimated scf accuracy    <       5.27097190 Ry

     iteration #  7     ecut=    30.00 Ry     beta=0.70
     Davidson diagonalization with overlap
     ethr =  1.00E-02,  avg # of iterations =  1.0

     negative rho (up, down):  2.379E-02 0.000E+00

     total cpu time spent up to now is        2.2 secs

     total energy              =     -31.65530862 Ry
     Harris-Foulkes estimate   =     -31.65528028 Ry
     estimated scf accuracy    <       1.09111414 Ry

     iteration #  8     ecut=    30.00 Ry     beta=0.70
     Davidson diagonalization with overlap
     ethr =  1.00E-02,  avg # of iterations =  1.0

     negative rho (up, down):  2.414E-02 0.000E+00

     total cpu time spent up to now is        2.3 secs

     total energy              =     -31.69950297 Ry
     Harris-Foulkes estimate   =     -31.65666556 Ry
     estimated scf accuracy    <       1.08111105 Ry

     iteration #  9     ecut=    30.00 Ry     beta=0.70
     Davidson diagonalization with overlap
     ethr =  1.00E-02,  avg # of iterations =  1.0

     negative rho (up, down):  2.116E-02 0.000E+00

     total cpu time spent up to now is        2.3 secs

     total energy              =     -32.18735300 Ry
     Harris-Foulkes estimate   =     -31.86353850 Ry
     estimated scf accuracy    <       4.04558745 Ry

     iteration # 10     ecut=    30.00 Ry     beta=0.70
     Davidson diagonalization with overlap
     ethr =  1.00E-02,  avg # of iterations =  1.0

     negative rho (up, down):  2.340E-01 0.000E+00

     total cpu time spent up to now is        2.4 secs

     total energy              =     -33.36622872 Ry
     Harris-Foulkes estimate   =     -32.19293421 Ry
     estimated scf accuracy    <       4.60354490 Ry

     iteration # 11     ecut=    30.00 Ry     beta=0.70
     Davidson diagonalization with overlap
     ethr =  1.00E-02,  avg # of iterations =  4.0

     negative rho (up, down):  2.943E-01 0.000E+00

     total cpu time spent up to now is        2.5 secs

     total energy              =     -35.30593018 Ry
     Harris-Foulkes estimate   =     -36.71352284 Ry
     estimated scf accuracy    <      19.95684692 Ry

     iteration # 12     ecut=    30.00 Ry     beta=0.70
     Davidson diagonalization with overlap
     ethr =  1.00E-02,  avg # of iterations =  4.0

     negative rho (up, down):  1.433E-01 0.000E+00

     total cpu time spent up to now is        2.5 secs

     total energy              =     -31.54964578 Ry
     Harris-Foulkes estimate   =     -38.88085680 Ry
     estimated scf accuracy    <      22.00099317 Ry

     iteration # 13     ecut=    30.00 Ry     beta=0.70
     Davidson diagonalization with overlap
     ethr =  1.00E-02,  avg # of iterations =  4.0

     negative rho (up, down):  1.701E-01 0.000E+00

     total cpu time spent up to now is        2.6 secs

     total energy              =     -24.84096612 Ry
     Harris-Foulkes estimate   =     -35.98961070 Ry
     estimated scf accuracy    <      17.64824322 Ry

     iteration # 14     ecut=    30.00 Ry     beta=0.70
     Davidson diagonalization with overlap
     ethr =  1.00E-02,  avg # of iterations =  7.0

     negative rho (up, down):  4.373E-01 0.000E+00

     total cpu time spent up to now is        2.7 secs

     total energy              =     -31.66333613 Ry
     Harris-Foulkes estimate   =     -31.66198937 Ry
     estimated scf accuracy    <       1.37514407 Ry

     iteration # 15     ecut=    30.00 Ry     beta=0.70
     Davidson diagonalization with overlap
     ethr =  1.00E-02,  avg # of iterations =  6.0

     negative rho (up, down):  2.253E-01 0.000E+00

     total cpu time spent up to now is        2.7 secs

     total energy              =     -32.16517258 Ry
     Harris-Foulkes estimate   =     -33.41892710 Ry
     estimated scf accuracy    <       5.46187974 Ry

     iteration # 16     ecut=    30.00 Ry     beta=0.70
     Davidson diagonalization with overlap
     ethr =  1.00E-02,  avg # of iterations =  2.0

     negative rho (up, down):  5.524E-03 0.000E+00

     total cpu time spent up to now is        2.8 secs

     total energy              =     -30.86357960 Ry
     Harris-Foulkes estimate   =     -32.41739785 Ry
     estimated scf accuracy    <       3.61527200 Ry

     iteration # 17     ecut=    30.00 Ry     beta=0.70
     Davidson diagonalization with overlap
     ethr =  1.00E-02,  avg # of iterations =  2.0

     negative rho (up, down):  3.088E-03 0.000E+00

     total cpu time spent up to now is        2.8 secs

     total energy              =     -31.87682029 Ry
     Harris-Foulkes estimate   =     -32.24257984 Ry
     estimated scf accuracy    <       4.65189251 Ry

     iteration # 18     ecut=    30.00 Ry     beta=0.70
     Davidson diagonalization with overlap
     ethr =  1.00E-02,  avg # of iterations =  1.0

     negative rho (up, down):  7.660E-02 0.000E+00

     total cpu time spent up to now is        2.9 secs

     total energy              =     -32.37480430 Ry
     Harris-Foulkes estimate   =     -31.88472850 Ry
     estimated scf accuracy    <       4.02113841 Ry

     iteration # 19     ecut=    30.00 Ry     beta=0.70
     Davidson diagonalization with overlap
     ethr =  1.00E-02,  avg # of iterations =  2.0

     negative rho (up, down):  7.749E-02 0.000E+00

     total cpu time spent up to now is        2.9 secs

     total energy              =     -32.51718230 Ry
     Harris-Foulkes estimate   =     -32.41135623 Ry
     estimated scf accuracy    <       5.03857927 Ry

     iteration # 20     ecut=    30.00 Ry     beta=0.70
     Davidson diagonalization with overlap
     ethr =  1.00E-02,  avg # of iterations =  2.0

     negative rho (up, down):  5.730E-02 0.000E+00

     total cpu time spent up to now is        3.0 secs

     total energy              =     -32.26910040 Ry
     Harris-Foulkes estimate   =     -32.54689716 Ry
     estimated scf accuracy    <       5.15357109 Ry

     iteration # 21     ecut=    30.00 Ry     beta=0.70
     Davidson diagonalization with overlap
     ethr =  1.00E-02,  avg # of iterations =  2.0

     negative rho (up, down):  6.690E-02 0.000E+00

     total cpu time spent up to now is        3.0 secs

     total energy              =     -32.49618491 Ry
     Harris-Foulkes estimate   =     -32.32887128 Ry
     estimated scf accuracy    <       4.80288490 Ry

     iteration # 22     ecut=    30.00 Ry     beta=0.70
     Davidson diagonalization with overlap
     ethr =  1.00E-02,  avg # of iterations =  4.0

     negative rho (up, down):  4.587E-02 0.000E+00

     total cpu time spent up to now is        3.1 secs

     total energy              =     -27.60427726 Ry
     Harris-Foulkes estimate   =     -35.14951093 Ry
     estimated scf accuracy    <       6.96824566 Ry

     iteration # 23     ecut=    30.00 Ry     beta=0.70
     Davidson diagonalization with overlap
     ethr =  1.00E-02,  avg # of iterations =  3.0

     negative rho (up, down):  1.574E-02 0.000E+00

     total cpu time spent up to now is        3.1 secs

     total energy              =     -26.64454887 Ry
     Harris-Foulkes estimate   =     -32.50189312 Ry
     estimated scf accuracy    <       4.29651324 Ry

     iteration # 24     ecut=    30.00 Ry     beta=0.70
     Davidson diagonalization with overlap
     ethr =  1.00E-02,  avg # of iterations =  4.0

     negative rho (up, down):  1.248E-03 0.000E+00

     total cpu time spent up to now is        3.2 secs

     total energy              =     -31.39853011 Ry
     Harris-Foulkes estimate   =     -31.73135290 Ry
     estimated scf accuracy    <       2.57316739 Ry

     iteration # 25     ecut=    30.00 Ry     beta=0.70
     Davidson diagonalization with overlap
     ethr =  1.00E-02,  avg # of iterations =  2.0

     negative rho (up, down):  1.739E-04 0.000E+00

     total cpu time spent up to now is        3.2 secs

     total energy              =     -31.61416234 Ry
     Harris-Foulkes estimate   =     -31.62708954 Ry
     estimated scf accuracy    <       2.12557966 Ry

     iteration # 26     ecut=    30.00 Ry     beta=0.70
     Davidson diagonalization with overlap
     ethr =  1.00E-02,  avg # of iterations =  1.0

     negative rho (up, down):  1.717E-04 0.000E+00

     total cpu time spent up to now is        3.3 secs

     total energy              =     -31.44064392 Ry
     Harris-Foulkes estimate   =     -31.62971599 Ry
     estimated scf accuracy    <       3.12068680 Ry

     iteration # 27     ecut=    30.00 Ry     beta=0.70
     Davidson diagonalization with overlap
     ethr =  1.00E-02,  avg # of iterations =  1.0

     negative rho (up, down):  5.593E-05 0.000E+00

     total cpu time spent up to now is        3.3 secs

     total energy              =     -31.54288144 Ry
     Harris-Foulkes estimate   =     -31.56947535 Ry
     estimated scf accuracy    <       1.00120522 Ry

     iteration # 28     ecut=    30.00 Ry     beta=0.70
     Davidson diagonalization with overlap
     ethr =  1.00E-02,  avg # of iterations =  1.0

     negative rho (up, down):  9.163E-05 0.000E+00

     total cpu time spent up to now is        3.4 secs

     total energy              =     -31.52781457 Ry
     Harris-Foulkes estimate   =     -31.55517962 Ry
     estimated scf accuracy    <       0.86211406 Ry

     iteration # 29     ecut=    30.00 Ry     beta=0.70
     Davidson diagonalization with overlap
     ethr =  1.00E-02,  avg # of iterations =  1.0

     negative rho (up, down):  4.238E-05 0.000E+00

     total cpu time spent up to now is        3.4 secs

     total energy              =     -31.53056123 Ry
     Harris-Foulkes estimate   =     -31.54790700 Ry
     estimated scf accuracy    <       0.02243628 Ry

     iteration # 30     ecut=    30.00 Ry     beta=0.70
     Davidson diagonalization with overlap
     ethr =  2.80E-04,  avg # of iterations =  2.0

     negative rho (up, down):  3.808E-05 0.000E+00

     total cpu time spent up to now is        3.5 secs

     total energy              =     -31.53406664 Ry
     Harris-Foulkes estimate   =     -31.54431744 Ry
     estimated scf accuracy    <       0.44054344 Ry

     iteration # 31     ecut=    30.00 Ry     beta=0.70
     Davidson diagonalization with overlap
     ethr =  2.80E-04,  avg # of iterations =  1.0

     negative rho (up, down):  2.523E-05 0.000E+00

     total cpu time spent up to now is        3.5 secs

     total energy              =     -31.53515405 Ry
     Harris-Foulkes estimate   =     -31.53718802 Ry
     estimated scf accuracy    <       0.06009455 Ry

     iteration # 32     ecut=    30.00 Ry     beta=0.70
     Davidson diagonalization with overlap
     ethr =  2.80E-04,  avg # of iterations =  1.0

     negative rho (up, down):  1.106E-07 0.000E+00

     total cpu time spent up to now is        3.6 secs

     total energy              =     -31.53258254 Ry
     Harris-Foulkes estimate   =     -31.53583396 Ry
     estimated scf accuracy    <       0.00268746 Ry

     iteration # 33     ecut=    30.00 Ry     beta=0.70
     Davidson diagonalization with overlap
     ethr =  3.36E-05,  avg # of iterations =  8.0

     negative rho (up, down):  3.334E-06 0.000E+00

     total cpu time spent up to now is        3.6 secs

     total energy              =     -31.52970051 Ry
     Harris-Foulkes estimate   =     -31.53597455 Ry
     estimated scf accuracy    <       0.08605454 Ry

     iteration # 34     ecut=    30.00 Ry     beta=0.70
     Davidson diagonalization with overlap
     ethr =  3.36E-05,  avg # of iterations =  1.0

     total cpu time spent up to now is        3.7 secs

     total energy              =     -31.53242622 Ry
     Harris-Foulkes estimate   =     -31.53307938 Ry
     estimated scf accuracy    <       0.04616513 Ry

     iteration # 35     ecut=    30.00 Ry     beta=0.70
     Davidson diagonalization with overlap
     ethr =  3.36E-05,  avg # of iterations =  1.0

     total cpu time spent up to now is        3.7 secs

     total energy              =     -31.53268574 Ry
     Harris-Foulkes estimate   =     -31.53277272 Ry
     estimated scf accuracy    <       0.00238650 Ry

     iteration # 36     ecut=    30.00 Ry     beta=0.70
     Davidson diagonalization with overlap
     ethr =  2.98E-05,  avg # of iterations =  1.0

     total cpu time spent up to now is        3.8 secs

     total energy              =     -31.53274322 Ry
     Harris-Foulkes estimate   =     -31.53275656 Ry
     estimated scf accuracy    <       0.00081778 Ry

     iteration # 37     ecut=    30.00 Ry     beta=0.70
     Davidson diagonalization with overlap
     ethr =  1.02E-05,  avg # of iterations =  1.0

     total cpu time spent up to now is        3.8 secs

     total energy              =     -31.53274967 Ry
     Harris-Foulkes estimate   =     -31.53274907 Ry
     estimated scf accuracy    <       0.00005953 Ry

     iteration # 38     ecut=    30.00 Ry     beta=0.70
     Davidson diagonalization with overlap
     ethr =  7.44E-07,  avg # of iterations = 15.0

     total cpu time spent up to now is        3.9 secs

     total energy              =     -31.53275102 Ry
     Harris-Foulkes estimate   =     -31.53275060 Ry
     estimated scf accuracy    <       0.00000150 Ry

     iteration # 39     ecut=    30.00 Ry     beta=0.70
     Davidson diagonalization with overlap
     ethr =  1.87E-08,  avg # of iterations =  1.0

     total cpu time spent up to now is        3.9 secs

     total energy              =     -31.53275115 Ry
     Harris-Foulkes estimate   =     -31.53275113 Ry
     estimated scf accuracy    <       0.00000013 Ry

     iteration # 40     ecut=    30.00 Ry     beta=0.70
     Davidson diagonalization with overlap
     ethr =  1.59E-09,  avg # of iterations =  1.0

     total cpu time spent up to now is        4.0 secs

     total energy              =     -31.53275117 Ry
     Harris-Foulkes estimate   =     -31.53275116 Ry
     estimated scf accuracy    <       0.00000003 Ry

     iteration # 41     ecut=    30.00 Ry     beta=0.70
     Davidson diagonalization with overlap
     ethr =  4.03E-10,  avg # of iterations =  1.0

     total cpu time spent up to now is        4.0 secs

     End of self-consistent calculation

          k = 0.0000 0.0000 0.0000 ( 22119 PWs)   bands (ev):

   -23.7055  -7.4927  -7.0799  -7.0792  -6.9735  -6.6034  -0.1627   0.7005

     the Fermi energy is    -6.9371 ev

!    total energy              =     -31.53275118 Ry
     Harris-Foulkes estimate   =     -31.53275117 Ry
     estimated scf accuracy    <          5.2E-09 Ry

     convergence has been achieved in  41 iterations

     Forces acting on atoms (Ry/au):

     atom    1 type  2   force =    -0.02082860    0.03127186   -0.02155796
     atom    2 type  1   force =     0.02043933   -0.03111246    0.02097214
     atom    3 type  1   force =     0.00038926   -0.00015941    0.00058582

     Total force =     0.060849     Total SCF correction =     0.000017

     Entering Dynamics:    iteration =     2
                           time      =   0.0097 pico-seconds


     Andersen thermostat:    3 collisions

ATOMIC_POSITIONS (bohr)
O       11.221807012  21.372957440  18.296637368
H        8.592576226   4.737376452  15.992973957
H        2.723482006   9.079428412  12.598173832


     kinetic energy (Ekin) =     0.01149328 Ry
     temperature           =   604.88085076 K 
     Ekin + Etot (const)   =   -31.52125791 Ry
     Message from routine dynamics:
     Total linear momentum <> 0

     Linear momentum :    0.2915593250   -0.2236504673    0.2762257419

     Writing output data file pwscf.save

     first order wave-functions extrapolation
     Check: negative starting charge=   -0.345177
     first order charge density extrapolation
     Check: negative starting charge=   -0.344820

     negative rho (up, down):  4.889E-01 0.000E+00

     total cpu time spent up to now is        4.5 secs

     per-process dynamical memory:    20.4 Mb

     Self-consistent Calculation

     iteration #  1     ecut=    30.00 Ry     beta=0.70
     Davidson diagonalization with overlap
     ethr =  1.00E-06,  avg # of iterations = 16.0

     negative rho (up, down):  1.258E-01 0.000E+00

     total cpu time spent up to now is        4.7 secs

     total energy              =      29.97500051 Ry
     Harris-Foulkes estimate   =     -66.93395147 Ry
     estimated scf accuracy    <      19.24542801 Ry

     iteration #  2     ecut=    30.00 Ry     beta=0.70
     Davidson diagonalization with overlap
     ethr =  1.00E-02,  avg # of iterations =  6.0

     negative rho (up, down):  7.817E-02 0.000E+00

     total cpu time spent up to now is        4.8 secs

     total energy              =     -34.02190701 Ry
     Harris-Foulkes estimate   =     -42.40348397 Ry
     estimated scf accuracy    <      16.98778005 Ry

     iteration #  3     ecut=    30.00 Ry     beta=0.70
     Davidson diagonalization with overlap
     ethr =  1.00E-02,  avg # of iterations =  2.0

     negative rho (up, down):  7.006E-02 0.000E+00

     total cpu time spent up to now is        4.8 secs

     total energy              =     -33.23303631 Ry
     Harris-Foulkes estimate   =     -34.51099869 Ry
     estimated scf accuracy    <       7.82448610 Ry

     iteration #  4     ecut=    30.00 Ry     beta=0.70
     Davidson diagonalization with overlap
     ethr =  1.00E-02,  avg # of iterations =  1.0

     negative rho (up, down):  4.241E-02 0.000E+00

     total cpu time spent up to now is        4.9 secs

     total energy              =     -32.05221385 Ry
     Harris-Foulkes estimate   =     -33.97534483 Ry
     estimated scf accuracy    <       5.03424769 Ry

     iteration #  5     ecut=    30.00 Ry     beta=0.70
     Davidson diagonalization with overlap
     ethr =  1.00E-02,  avg # of iterations =  4.0

     negative rho (up, down):  1.345E-02 0.000E+00

     total cpu time spent up to now is        4.9 secs

     total energy              =     -31.06393351 Ry
     Harris-Foulkes estimate   =     -32.08804226 Ry
     estimated scf accuracy    <       2.04156560 Ry

     iteration #  6     ecut=    30.00 Ry     beta=0.70
     Davidson diagonalization with overlap
     ethr =  1.00E-02,  avg # of iterations =  2.0

     negative rho (up, down):  2.913E-02 0.000E+00

     total cpu time spent up to now is        5.0 secs

     total energy              =     -31.35409984 Ry
     Harris-Foulkes estimate   =     -31.97354424 Ry
     estimated scf accuracy    <       2.31747175 Ry

     iteration #  7     ecut=    30.00 Ry     beta=0.70
     Davidson diagonalization with overlap
     ethr =  1.00E-02,  avg # of iterations =  1.0

     negative rho (up, down):  1.741E-02 0.000E+00

     total cpu time spent up to now is        5.0 secs

     total energy              =     -31.59566980 Ry
     Harris-Foulkes estimate   =     -31.76754958 Ry
     estimated scf accuracy    <       0.99776526 Ry

     iteration #  8     ecut=    30.00 Ry     beta=0.70
     Davidson diagonalization with overlap
     ethr =  1.00E-02,  avg # of iterations =  1.0

     negative rho (up, down):  1.659E-02 0.000E+00

     total cpu time spent up to now is        5.1 secs

     total energy              =     -31.58481243 Ry
     Harris-Foulkes estimate   =     -31.60074908 Ry
     estimated scf accuracy    <       0.76905165 Ry

     iteration #  9     ecut=    30.00 Ry     beta=0.70
     Davidson diagonalization with overlap
     ethr =  9.61E-03,  avg # of iterations =  1.0

     negative rho (up, down):  1.479E-02 0.000E+00

     total cpu time spent up to now is        5.2 secs

     total energy              =     -31.53548420 Ry
     Harris-Foulkes estimate   =     -31.59216699 Ry
     estimated scf accuracy    <       0.54815615 Ry

     iteration # 10     ecut=    30.00 Ry     beta=0.70
     Davidson diagonalization with overlap
     ethr =  6.85E-03,  avg # of iterations =  1.0

     negative rho (up, down):  1.044E-04 0.000E+00

     total cpu time spent up to now is        5.2 secs

     total energy              =     -31.57649743 Ry
     Harris-Foulkes estimate   =     -31.56295595 Ry
     estimated scf accuracy    <       0.36050962 Ry

     iteration # 11     ecut=    30.00 Ry     beta=0.70
     Davidson diagonalization with overlap
     ethr =  4.51E-03,  avg # of iterations =  2.0

     negative rho (up, down):  1.042E-04 0.000E+00

     total cpu time spent up to now is        5.3 secs

     total energy              =     -32.12170838 Ry
     Harris-Foulkes estimate   =     -31.90958879 Ry
     estimated scf accuracy    <       4.87595897 Ry

     iteration # 12     ecut=    30.00 Ry     beta=0.70
     Davidson diagonalization with overlap
     ethr =  4.51E-03,  avg # of iterations =  1.0

     negative rho (up, down):  1.267E-05 0.000E+00

     total cpu time spent up to now is        5.3 secs

     total energy              =     -31.66623954 Ry
     Harris-Foulkes estimate   =     -32.12835059 Ry
     estimated scf accuracy    <       5.01179262 Ry

     iteration # 13     ecut=    30.00 Ry     beta=0.70
     Davidson diagonalization with overlap
     ethr =  4.51E-03,  avg # of iterations =  1.0

     negative rho (up, down):  6.264E-03 0.000E+00

     total cpu time spent up to now is        5.4 secs

     total energy              =     -31.21519056 Ry
     Harris-Foulkes estimate   =     -31.86627248 Ry
     estimated scf accuracy    <       1.85720634 Ry

     iteration # 14     ecut=    30.00 Ry     beta=0.70
     Davidson diagonalization with overlap
     ethr =  4.51E-03,  avg # of iterations =  2.0

     negative rho (up, down):  1.968E-02 0.000E+00

     total cpu time spent up to now is        5.4 secs

     total energy              =     -32.00170903 Ry
     Harris-Foulkes estimate   =     -31.90587603 Ry
     estimated scf accuracy    <       3.14436633 Ry

     iteration # 15     ecut=    30.00 Ry     beta=0.70
     Davidson diagonalization with overlap
     ethr =  4.51E-03,  avg # of iterations =  1.0

     negative rho (up, down):  2.556E-03 0.000E+00

     total cpu time spent up to now is        5.5 secs

     total energy              =     -31.73153187 Ry
     Harris-Foulkes estimate   =     -32.00307604 Ry
     estimated scf accuracy    <       3.29698605 Ry

     iteration # 16     ecut=    30.00 Ry     beta=0.70
     Davidson diagonalization with overlap
     ethr =  4.51E-03,  avg # of iterations =  1.0

     negative rho (up, down):  9.172E-03 0.000E+00

     total cpu time spent up to now is        5.5 secs

     total energy              =     -31.82742202 Ry
     Harris-Foulkes estimate   =     -31.77803074 Ry
     estimated scf accuracy    <       1.09861140 Ry

     iteration # 17     ecut=    30.00 Ry     beta=0.70
     Davidson diagonalization with overlap
     ethr =  4.51E-03,  avg # of iterations =  1.0

     negative rho (up, down):  9.290E-04 0.000E+00

     total cpu time spent up to now is        5.6 secs

     total energy              =     -31.42169340 Ry
     Harris-Foulkes estimate   =     -31.98873416 Ry
     estimated scf accuracy    <       3.21066790 Ry

     iteration # 18     ecut=    30.00 Ry     beta=0.70
     Davidson diagonalization with overlap
     ethr =  4.51E-03,  avg # of iterations =  2.0

     negative rho (up, down):  1.767E-05 0.000E+00

     total cpu time spent up to now is        5.6 secs

     total energy              =     -31.62559188 Ry
     Harris-Foulkes estimate   =     -31.75808336 Ry
     estimated scf accuracy    <       1.33890514 Ry

     iteration # 19     ecut=    30.00 Ry     beta=0.70
     Davidson diagonalization with overlap
     ethr =  4.51E-03,  avg # of iterations =  1.0

     negative rho (up, down):  1.319E-06 0.000E+00

     total cpu time spent up to now is        5.7 secs

     total energy              =     -31.57624468 Ry
     Harris-Foulkes estimate   =     -31.65912711 Ry
     estimated scf accuracy    <       1.75520010 Ry

     iteration # 20     ecut=    30.00 Ry     beta=0.70
     Davidson diagonalization with overlap
     ethr =  4.51E-03,  avg # of iterations =  1.0

     negative rho (up, down):  6.567E-07 0.000E+00

     total cpu time spent up to now is        5.7 secs

     total energy              =     -31.50638055 Ry
     Harris-Foulkes estimate   =     -31.59204436 Ry
     estimated scf accuracy    <       0.45059807 Ry

     iteration # 21     ecut=    30.00 Ry     beta=0.70
     Davidson diagonalization with overlap
     ethr =  4.51E-03,  avg # of iterations =  1.0

     negative rho (up, down):  1.055E-07 0.000E+00

     total cpu time spent up to now is        5.8 secs

     total energy              =     -31.56731321 Ry
     Harris-Foulkes estimate   =     -31.57316384 Ry
     estimated scf accuracy    <       0.16373544 Ry

     iteration # 22     ecut=    30.00 Ry     beta=0.70
     Davidson diagonalization with overlap
     ethr =  2.05E-03,  avg # of iterations =  1.0

     negative rho (up, down):  4.068E-08 0.000E+00

     total cpu time spent up to now is        5.8 secs

     total energy              =     -31.55927700 Ry
     Harris-Foulkes estimate   =     -31.56991925 Ry
     estimated scf accuracy    <       0.15919707 Ry

     iteration # 23     ecut=    30.00 Ry     beta=0.70
     Davidson diagonalization with overlap
     ethr =  1.99E-03,  avg # of iterations =  1.0

     negative rho (up, down):  6.100E-07 0.000E+00

     total cpu time spent up to now is        5.9 secs

     total energy              =     -31.55802682 Ry
     Harris-Foulkes estimate   =     -31.56330042 Ry
     estimated scf accuracy    <       0.04958462 Ry

     iteration # 24     ecut=    30.00 Ry     beta=0.70
     Davidson diagonalization with overlap
     ethr =  6.20E-04,  avg # of iterations =  1.0

     negative rho (up, down):  6.221E-07 0.000E+00

     total cpu time spent up to now is        5.9 secs

     total energy              =     -31.56386758 Ry
     Harris-Foulkes estimate   =     -31.56379868 Ry
     estimated scf accuracy    <       0.15246123 Ry

     iteration # 25     ecut=    30.00 Ry     beta=0.70
     Davidson diagonalization with overlap
     ethr =  6.20E-04,  avg # of iterations =  1.0

     negative rho (up, down):  9.328E-08 0.000E+00

     total cpu time spent up to now is        6.0 secs

     total energy              =     -31.56178817 Ry
     Harris-Foulkes estimate   =     -31.56387011 Ry
     estimated scf accuracy    <       0.15674275 Ry

     iteration # 26     ecut=    30.00 Ry     beta=0.70
     Davidson diagonalization with overlap
     ethr =  6.20E-04,  avg # of iterations =  1.0

     negative rho (up, down):  1.482E-08 0.000E+00

     total cpu time spent up to now is        6.0 secs

     total energy              =     -31.56062549 Ry
     Harris-Foulkes estimate   =     -31.56226035 Ry
     estimated scf accuracy    <       0.05700662 Ry

     iteration # 27     ecut=    30.00 Ry     beta=0.70
     Davidson diagonalization with overlap
     ethr =  6.20E-04,  avg # of iterations =  1.0

     total cpu time spent up to now is        6.1 secs

     total energy              =     -31.56123568 Ry
     Harris-Foulkes estimate   =     -31.56143445 Ry
     estimated scf accuracy    <       0.00156460 Ry

     iteration # 28     ecut=    30.00 Ry     beta=0.70
     Davidson diagonalization with overlap
     ethr =  1.96E-05,  avg # of iterations =  8.0

     total cpu time spent up to now is        6.1 secs

     total energy              =     -31.56130272 Ry
     Harris-Foulkes estimate   =     -31.56132002 Ry
     estimated scf accuracy    <       0.00039552 Ry

     iteration # 29     ecut=    30.00 Ry     beta=0.70
     Davidson diagonalization with overlap
     c_bands:  1 eigenvalues not converged
     ethr =  4.94E-06,  avg # of iterations = 20.0

     total cpu time spent up to now is        6.2 secs

     total energy              =     -31.56130924 Ry
     Harris-Foulkes estimate   =     -31.56131704 Ry
     estimated scf accuracy    <       0.00006515 Ry

     iteration # 30     ecut=    30.00 Ry     beta=0.70
     Davidson diagonalization with overlap
     ethr =  8.14E-07,  avg # of iterations = 16.0

     total cpu time spent up to now is        6.3 secs

     total energy              =     -31.56131236 Ry
     Harris-Foulkes estimate   =     -31.56131250 Ry
     estimated scf accuracy    <       0.00000366 Ry

     iteration # 31     ecut=    30.00 Ry     beta=0.70
     Davidson diagonalization with overlap
     ethr =  4.57E-08,  avg # of iterations =  1.0

     total cpu time spent up to now is        6.3 secs

     total energy              =     -31.56131260 Ry
     Harris-Foulkes estimate   =     -31.56131242 Ry
     estimated scf accuracy    <       0.00000113 Ry

     iteration # 32     ecut=    30.00 Ry     beta=0.70
     Davidson diagonalization with overlap
     ethr =  1.41E-08,  avg # of iterations =  1.0

     total cpu time spent up to now is        6.4 secs

     total energy              =     -31.56131278 Ry
     Harris-Foulkes estimate   =     -31.56131262 Ry
     estimated scf accuracy    <       0.00000008 Ry

     iteration # 33     ecut=    30.00 Ry     beta=0.70
     Davidson diagonalization with overlap
     ethr =  1.06E-09,  avg # of iterations =  2.0

     total cpu time spent up to now is        6.4 secs

     total energy              =     -31.56131284 Ry
     Harris-Foulkes estimate   =     -31.56131279 Ry
     estimated scf accuracy    <       0.00000010 Ry

     iteration # 34     ecut=    30.00 Ry     beta=0.70
     Davidson diagonalization with overlap
     ethr =  1.06E-09,  avg # of iterations =  1.0

     total cpu time spent up to now is        6.5 secs

     total energy              =     -31.56131287 Ry
     Harris-Foulkes estimate   =     -31.56131284 Ry
     estimated scf accuracy    <       0.00000001 Ry

     iteration # 35     ecut=    30.00 Ry     beta=0.70
     Davidson diagonalization with overlap
     ethr =  1.76E-10,  avg # of iterations =  1.0

     total cpu time spent up to now is        6.5 secs

     End of self-consistent calculation

          k = 0.0000 0.0000 0.0000 ( 22119 PWs)   bands (ev):

   -23.6815  -7.7693  -7.0087  -7.0081  -6.8836  -6.4482  -0.1508   0.7306

     the Fermi energy is    -6.8463 ev

!    total energy              =     -31.56131286 Ry
     Harris-Foulkes estimate   =     -31.56131287 Ry
     estimated scf accuracy    <          5.9E-10 Ry

     convergence has been achieved in  35 iterations

     Forces acting on atoms (Ry/au):

     atom    1 type  2   force =    -0.03507410    0.04575684   -0.03231226
     atom    2 type  1   force =     0.03521759   -0.04561556    0.03179872
     atom    3 type  1   force =    -0.00014350   -0.00014129    0.00051355

     Total force =     0.093276     Total SCF correction =     0.000040

     Entering Dynamics:    iteration =     3
                           time      =   0.0145 pico-seconds


     Andersen thermostat:    3 collisions

ATOMIC_POSITIONS (bohr)
O       11.168497767  21.428263546  18.276754928
H        9.503882374   4.288079509  15.979596303
H        2.656678742   8.652589024  12.926520827


     kinetic energy (Ekin) =     0.04680300 Ry
     temperature           =  2463.20024785 K 
     Ekin + Etot (const)   =   -31.51450985 Ry
     Message from routine dynamics:
     Total linear momentum <> 0

     Linear momentum :   -0.0628413011   -0.5111150974   -0.1741717019

     Writing output data file pwscf.save

     second order wave-functions extrapolation
     Check: negative starting charge=   -0.344820
     second order charge density extrapolation
     Check: negative starting charge=   -0.344834

     negative rho (up, down):  1.374E-01 0.000E+00

     total cpu time spent up to now is        7.0 secs

     per-process dynamical memory:    20.4 Mb

     Self-consistent Calculation

     iteration #  1     ecut=    30.00 Ry     beta=0.70
     Davidson diagonalization with overlap
     ethr =  1.00E-06,  avg # of iterations = 13.0

     negative rho (up, down):  2.412E-02 0.000E+00

     total cpu time spent up to now is        7.1 secs

     total energy              =      -0.53782957 Ry
     Harris-Foulkes estimate   =    -135.29075102 Ry
     estimated scf accuracy    <       5.79043079 Ry

     iteration #  2     ecut=    30.00 Ry     beta=0.70
     Davidson diagonalization with overlap
     ethr =  1.00E-02,  avg # of iterations =  4.0

     negative rho (up, down):  1.502E-02 0.000E+00

     total cpu time spent up to now is        7.2 secs

     total energy              =     -32.17195792 Ry
     Harris-Foulkes estimate   =     -34.79261906 Ry
     estimated scf accuracy    <       5.69463761 Ry

     iteration #  3     ecut=    30.00 Ry     beta=0.70
     Davidson diagonalization with overlap
     ethr =  1.00E-02,  avg # of iterations =  2.0

     negative rho (up, down):  1.363E-02 0.000E+00

     total cpu time spent up to now is        7.2 secs

     total energy              =     -32.12959096 Ry
     Harris-Foulkes estimate   =     -32.92493736 Ry
     estimated scf accuracy    <       4.22654193 Ry

     iteration #  4     ecut=    30.00 Ry     beta=0.70
     Davidson diagonalization with overlap
     ethr =  1.00E-02,  avg # of iterations =  1.0

     negative rho (up, down):  1.083E-02 0.000E+00

     total cpu time spent up to now is        7.3 secs

     total energy              =     -31.94760872 Ry
     Harris-Foulkes estimate   =     -32.30932440 Ry
     estimated scf accuracy    <       2.10904038 Ry

     iteration #  5     ecut=    30.00 Ry     beta=0.70
     Davidson diagonalization with overlap
     ethr =  1.00E-02,  avg # of iterations =  1.0

     negative rho (up, down):  7.764E-03 0.000E+00

     total cpu time spent up to now is        7.3 secs

     total energy              =     -31.67851626 Ry
     Harris-Foulkes estimate   =     -32.03469009 Ry
     estimated scf accuracy    <       2.16523124 Ry

     iteration #  6     ecut=    30.00 Ry     beta=0.70
     Davidson diagonalization with overlap
     ethr =  1.00E-02,  avg # of iterations =  1.0

     negative rho (up, down):  4.805E-03 0.000E+00

     total cpu time spent up to now is        7.4 secs

     total energy              =     -31.74987386 Ry
     Harris-Foulkes estimate   =     -31.92977271 Ry
     estimated scf accuracy    <       1.48481179 Ry

     iteration #  7     ecut=    30.00 Ry     beta=0.70
     Davidson diagonalization with overlap
     ethr =  1.00E-02,  avg # of iterations =  1.0

     negative rho (up, down):  5.214E-03 0.000E+00

     total cpu time spent up to now is        7.4 secs

     total energy              =     -31.70841911 Ry
     Harris-Foulkes estimate   =     -31.76719876 Ry
     estimated scf accuracy    <       1.36878860 Ry

     iteration #  8     ecut=    30.00 Ry     beta=0.70
     Davidson diagonalization with overlap
     ethr =  1.00E-02,  avg # of iterations =  1.0

     negative rho (up, down):  2.892E-03 0.000E+00

     total cpu time spent up to now is        7.5 secs

     total energy              =     -31.58645553 Ry
     Harris-Foulkes estimate   =     -31.71733617 Ry
     estimated scf accuracy    <       1.00910168 Ry

     iteration #  9     ecut=    30.00 Ry     beta=0.70
     Davidson diagonalization with overlap
     ethr =  1.00E-02,  avg # of iterations =  1.0

     negative rho (up, down):  1.588E-03 0.000E+00

     total cpu time spent up to now is        7.5 secs

     total energy              =     -31.62803843 Ry
     Harris-Foulkes estimate   =     -31.64795144 Ry
     estimated scf accuracy    <       0.74887050 Ry

     iteration # 10     ecut=    30.00 Ry     beta=0.70
     Davidson diagonalization with overlap
     ethr =  9.36E-03,  avg # of iterations =  1.0

     negative rho (up, down):  1.321E-05 0.000E+00

     total cpu time spent up to now is        7.6 secs

     total energy              =     -31.66082861 Ry
     Harris-Foulkes estimate   =     -31.63296674 Ry
     estimated scf accuracy    <       0.25192168 Ry

     iteration # 11     ecut=    30.00 Ry     beta=0.70
     Davidson diagonalization with overlap
     ethr =  3.15E-03,  avg # of iterations =  1.0

     negative rho (up, down):  7.122E-06 0.000E+00

     total cpu time spent up to now is        7.6 secs

     total energy              =     -31.61098926 Ry
     Harris-Foulkes estimate   =     -31.67992816 Ry
     estimated scf accuracy    <       0.77753698 Ry

     iteration # 12     ecut=    30.00 Ry     beta=0.70
     Davidson diagonalization with overlap
     ethr =  3.15E-03,  avg # of iterations =  1.0

     negative rho (up, down):  1.833E-06 0.000E+00

     total cpu time spent up to now is        7.7 secs

     total energy              =     -31.63366135 Ry
     Harris-Foulkes estimate   =     -31.63434413 Ry
     estimated scf accuracy    <       0.00965833 Ry

     iteration # 13     ecut=    30.00 Ry     beta=0.70
     Davidson diagonalization with overlap
     ethr =  1.21E-04,  avg # of iterations =  9.0

     negative rho (up, down):  3.522E-07 0.000E+00

     total cpu time spent up to now is        7.7 secs

     total energy              =     -31.63376667 Ry
     Harris-Foulkes estimate   =     -31.63391370 Ry
     estimated scf accuracy    <       0.00157034 Ry

     iteration # 14     ecut=    30.00 Ry     beta=0.70
     Davidson diagonalization with overlap
     ethr =  1.96E-05,  avg # of iterations =  6.0

     negative rho (up, down):  4.783E-08 0.000E+00

     total cpu time spent up to now is        7.8 secs

     total energy              =     -31.63286836 Ry
     Harris-Foulkes estimate   =     -31.63580068 Ry
     estimated scf accuracy    <       0.15611527 Ry

     iteration # 15     ecut=    30.00 Ry     beta=0.70
     Davidson diagonalization with overlap
     ethr =  1.96E-05,  avg # of iterations =  1.0

     negative rho (up, down):  5.147E-08 0.000E+00

     total cpu time spent up to now is        7.8 secs

     total energy              =     -31.63475671 Ry
     Harris-Foulkes estimate   =     -31.63415092 Ry
     estimated scf accuracy    <       0.00570816 Ry

     iteration # 16     ecut=    30.00 Ry     beta=0.70
     Davidson diagonalization with overlap
     ethr =  1.96E-05,  avg # of iterations =  1.0

     negative rho (up, down):  5.325E-08 0.000E+00

     total cpu time spent up to now is        7.9 secs

     total energy              =     -31.63479932 Ry
     Harris-Foulkes estimate   =     -31.63631619 Ry
     estimated scf accuracy    <       0.18750659 Ry

     iteration # 17     ecut=    30.00 Ry     beta=0.70
     Davidson diagonalization with overlap
     ethr =  1.96E-05,  avg # of iterations =  1.0

     negative rho (up, down):  1.338E-08 0.000E+00

     total cpu time spent up to now is        7.9 secs

     total energy              =     -31.63371900 Ry
     Harris-Foulkes estimate   =     -31.63509324 Ry
     estimated scf accuracy    <       0.07742073 Ry

     iteration # 18     ecut=    30.00 Ry     beta=0.70
     Davidson diagonalization with overlap
     ethr =  1.96E-05,  avg # of iterations =  1.0

     total cpu time spent up to now is        8.0 secs

     total energy              =     -31.63360341 Ry
     Harris-Foulkes estimate   =     -31.63414063 Ry
     estimated scf accuracy    <       0.02156118 Ry

     iteration # 19     ecut=    30.00 Ry     beta=0.70
     Davidson diagonalization with overlap
     ethr =  1.96E-05,  avg # of iterations =  1.0

     total cpu time spent up to now is        8.0 secs

     total energy              =     -31.63388232 Ry
     Harris-Foulkes estimate   =     -31.63388458 Ry
     estimated scf accuracy    <       0.00003241 Ry

     iteration # 20     ecut=    30.00 Ry     beta=0.70
     Davidson diagonalization with overlap
     ethr =  4.05E-07,  avg # of iterations =  9.0

     total cpu time spent up to now is        8.1 secs

     total energy              =     -31.63388412 Ry
     Harris-Foulkes estimate   =     -31.63388471 Ry
     estimated scf accuracy    <       0.00002246 Ry

     iteration # 21     ecut=    30.00 Ry     beta=0.70
     Davidson diagonalization with overlap
     ethr =  2.81E-07,  avg # of iterations =  1.0

     total cpu time spent up to now is        8.1 secs

     total energy              =     -31.63388459 Ry
     Harris-Foulkes estimate   =     -31.63388452 Ry
     estimated scf accuracy    <       0.00000010 Ry

     iteration # 22     ecut=    30.00 Ry     beta=0.70
     Davidson diagonalization with overlap
     ethr =  1.26E-09,  avg # of iterations =  1.0

     total cpu time spent up to now is        8.2 secs

     total energy              =     -31.63388466 Ry
     Harris-Foulkes estimate   =     -31.63388460 Ry
     estimated scf accuracy    <       0.00000004 Ry

     iteration # 23     ecut=    30.00 Ry     beta=0.70
     Davidson diagonalization with overlap
     ethr =  5.18E-10,  avg # of iterations =  1.0

     total cpu time spent up to now is        8.2 secs

     End of self-consistent calculation

          k = 0.0000 0.0000 0.0000 ( 22119 PWs)   bands (ev):

   -23.6441  -8.2100  -6.9627  -6.9625  -6.8305  -5.6836  -0.1290   0.7482

     the Fermi energy is    -6.7947 ev

!    total energy              =     -31.63388467 Ry
     Harris-Foulkes estimate   =     -31.63388466 Ry
     estimated scf accuracy    <          2.9E-09 Ry

     convergence has been achieved in  23 iterations

     Forces acting on atoms (Ry/au):

     atom    1 type  2   force =    -0.04259547    0.07599592   -0.06122927
     atom    2 type  1   force =     0.04327126   -0.07571575    0.06075289
     atom    3 type  1   force =    -0.00067579   -0.00028017    0.00047638

     Total force =     0.150452     Total SCF correction =     0.000052

     Entering Dynamics:    iteration =     4
                           time      =   0.0194 pico-seconds


     Andersen thermostat:    3 collisions

ATOMIC_POSITIONS (bohr)
O       11.117661991  21.483374257  18.250162117
H       10.191974808   3.483325540  16.630908431
H        2.773905531   8.584302030  12.696480954


     kinetic energy (Ekin) =     0.02895495 Ry
     temperature           =  1523.87345346 K 
     Ekin + Etot (const)   =   -31.60492971 Ry
     Message from routine dynamics:
     Total linear momentum <> 0

     Linear momentum :    0.2423632456    0.1752983912    0.3594347878

     Writing output data file pwscf.save

     second order wave-functions extrapolation
     Check: negative starting charge=   -0.344834
     second order charge density extrapolation
     Check: negative starting charge=   -0.348250

     negative rho (up, down):  2.459E-01 0.000E+00

     total cpu time spent up to now is        8.7 secs

     per-process dynamical memory:    20.4 Mb

     Self-consistent Calculation

     iteration #  1     ecut=    30.00 Ry     beta=0.70
     Davidson diagonalization with overlap
     c_bands:  1 eigenvalues not converged
     ethr =  1.00E-06,  avg # of iterations = 20.0

     negative rho (up, down):  4.434E-02 0.000E+00

     total cpu time spent up to now is        8.9 secs

     total energy              =     -30.48193138 Ry
     Harris-Foulkes estimate   =     -32.14190679 Ry
     estimated scf accuracy    <       0.80826958 Ry

     iteration #  2     ecut=    30.00 Ry     beta=0.70
     Davidson diagonalization with overlap
     ethr =  1.00E-02,  avg # of iterations =  3.0

     negative rho (up, down):  3.184E-02 0.000E+00

     total cpu time spent up to now is        8.9 secs

     total energy              =     -31.89255065 Ry
     Harris-Foulkes estimate   =     -32.72550058 Ry
     estimated scf accuracy    <       2.62006136 Ry

     iteration #  3     ecut=    30.00 Ry     beta=0.70
     Davidson diagonalization with overlap
     ethr =  1.00E-02,  avg # of iterations =  1.0

     negative rho (up, down):  2.421E-02 0.000E+00

     total cpu time spent up to now is        9.0 secs

     total energy              =     -31.84281039 Ry
     Harris-Foulkes estimate   =     -31.92573575 Ry
     estimated scf accuracy    <       0.39800923 Ry

     iteration #  4     ecut=    30.00 Ry     beta=0.70
     Davidson diagonalization with overlap
     ethr =  4.98E-03,  avg # of iterations =  1.0

     negative rho (up, down):  1.299E-02 0.000E+00

     total cpu time spent up to now is        9.0 secs

     total energy              =     -31.55861674 Ry
     Harris-Foulkes estimate   =     -31.90803409 Ry
     estimated scf accuracy    <       1.23881006 Ry

     iteration #  5     ecut=    30.00 Ry     beta=0.70
     Davidson diagonalization with overlap
     ethr =  4.98E-03,  avg # of iterations =  3.0

     negative rho (up, down):  8.317E-03 0.000E+00

     total cpu time spent up to now is        9.0 secs

     total energy              =     -31.93214048 Ry
     Harris-Foulkes estimate   =     -32.06515012 Ry
     estimated scf accuracy    <       1.49747742 Ry

     iteration #  6     ecut=    30.00 Ry     beta=0.70
     Davidson diagonalization with overlap
     ethr =  4.98E-03,  avg # of iterations =  3.0

     negative rho (up, down):  8.622E-03 0.000E+00

     total cpu time spent up to now is        9.1 secs

     total energy              =     -31.86833264 Ry
     Harris-Foulkes estimate   =     -31.94739758 Ry
     estimated scf accuracy    <       1.11156942 Ry

     iteration #  7     ecut=    30.00 Ry     beta=0.70
     Davidson diagonalization with overlap
     ethr =  4.98E-03,  avg # of iterations =  1.0

     negative rho (up, down):  8.426E-03 0.000E+00

     total cpu time spent up to now is        9.1 secs

     total energy              =     -31.83932457 Ry
     Harris-Foulkes estimate   =     -31.87038997 Ry
     estimated scf accuracy    <       1.03554324 Ry

     iteration #  8     ecut=    30.00 Ry     beta=0.70
     Davidson diagonalization with overlap
     ethr =  4.98E-03,  avg # of iterations =  1.0

     negative rho (up, down):  5.039E-03 0.000E+00

     total cpu time spent up to now is        9.2 secs

     total energy              =     -31.82210181 Ry
     Harris-Foulkes estimate   =     -31.84176741 Ry
     estimated scf accuracy    <       0.69001014 Ry

     iteration #  9     ecut=    30.00 Ry     beta=0.70
     Davidson diagonalization with overlap
     ethr =  4.98E-03,  avg # of iterations =  1.0

     negative rho (up, down):  4.122E-04 0.000E+00

     total cpu time spent up to now is        9.2 secs

     total energy              =     -31.83777892 Ry
     Harris-Foulkes estimate   =     -31.83121520 Ry
     estimated scf accuracy    <       0.01249941 Ry

     iteration # 10     ecut=    30.00 Ry     beta=0.70
     Davidson diagonalization with overlap
     ethr =  1.56E-04,  avg # of iterations =  5.0

     negative rho (up, down):  2.572E-06 0.000E+00

     total cpu time spent up to now is        9.3 secs

     total energy              =     -32.04027665 Ry
     Harris-Foulkes estimate   =     -32.00604074 Ry
     estimated scf accuracy    <       1.41082834 Ry

     iteration # 11     ecut=    30.00 Ry     beta=0.70
     Davidson diagonalization with overlap
     ethr =  1.56E-04,  avg # of iterations =  1.0

     negative rho (up, down):  3.095E-06 0.000E+00

     total cpu time spent up to now is        9.3 secs

     total energy              =     -32.03471360 Ry
     Harris-Foulkes estimate   =     -32.04108043 Ry
     estimated scf accuracy    <       1.49615187 Ry

     iteration # 12     ecut=    30.00 Ry     beta=0.70
     Davidson diagonalization with overlap
     ethr =  1.56E-04,  avg # of iterations =  1.0

     negative rho (up, down):  3.853E-03 0.000E+00

     total cpu time spent up to now is        9.4 secs

     total energy              =     -31.89014636 Ry
     Harris-Foulkes estimate   =     -32.03481658 Ry
     estimated scf accuracy    <       1.48014418 Ry

     iteration # 13     ecut=    30.00 Ry     beta=0.70
     Davidson diagonalization with overlap
     ethr =  1.56E-04,  avg # of iterations =  3.0

     negative rho (up, down):  4.936E-03 0.000E+00

     total cpu time spent up to now is        9.5 secs

     total energy              =     -31.76410787 Ry
     Harris-Foulkes estimate   =     -31.89589980 Ry
     estimated scf accuracy    <       1.56574190 Ry

     iteration # 14     ecut=    30.00 Ry     beta=0.70
     Davidson diagonalization with overlap
     ethr =  1.56E-04,  avg # of iterations =  3.0

     negative rho (up, down):  2.015E-03 0.000E+00

     total cpu time spent up to now is        9.5 secs

     total energy              =     -31.83632991 Ry
     Harris-Foulkes estimate   =     -31.90248734 Ry
     estimated scf accuracy    <       0.90836663 Ry

     iteration # 15     ecut=    30.00 Ry     beta=0.70
     Davidson diagonalization with overlap
     ethr =  1.56E-04,  avg # of iterations =  2.0

     negative rho (up, down):  1.827E-03 0.000E+00

     total cpu time spent up to now is        9.6 secs

     total energy              =     -31.83683497 Ry
     Harris-Foulkes estimate   =     -31.84457913 Ry
     estimated scf accuracy    <       0.24663314 Ry

     iteration # 16     ecut=    30.00 Ry     beta=0.70
     Davidson diagonalization with overlap
     ethr =  1.56E-04,  avg # of iterations =  2.0

     negative rho (up, down):  3.318E-08 0.000E+00

     total cpu time spent up to now is        9.6 secs

     total energy              =     -31.80896415 Ry
     Harris-Foulkes estimate   =     -31.83811509 Ry
     estimated scf accuracy    <       0.12507349 Ry

     iteration # 17     ecut=    30.00 Ry     beta=0.70
     Davidson diagonalization with overlap
     ethr =  1.56E-04,  avg # of iterations =  2.0

     negative rho (up, down):  4.139E-06 0.000E+00

     total cpu time spent up to now is        9.7 secs

     total energy              =     -31.87244105 Ry
     Harris-Foulkes estimate   =     -31.89626293 Ry
     estimated scf accuracy    <       1.30379641 Ry

     iteration # 18     ecut=    30.00 Ry     beta=0.70
     Davidson diagonalization with overlap
     ethr =  1.56E-04,  avg # of iterations =  1.0

     negative rho (up, down):  1.916E-07 0.000E+00

     total cpu time spent up to now is        9.7 secs

     total energy              =     -31.83313182 Ry
     Harris-Foulkes estimate   =     -31.87120109 Ry
     estimated scf accuracy    <       1.58273803 Ry

     iteration # 19     ecut=    30.00 Ry     beta=0.70
     Davidson diagonalization with overlap
     ethr =  1.56E-04,  avg # of iterations =  1.0

     negative rho (up, down):  1.699E-08 0.000E+00

     total cpu time spent up to now is        9.7 secs

     total energy              =     -31.83842887 Ry
     Harris-Foulkes estimate   =     -31.83889727 Ry
     estimated scf accuracy    <       0.39493419 Ry

     iteration # 20     ecut=    30.00 Ry     beta=0.70
     Davidson diagonalization with overlap
     ethr =  1.56E-04,  avg # of iterations =  1.0

     total cpu time spent up to now is        9.8 secs

     total energy              =     -31.83806012 Ry
     Harris-Foulkes estimate   =     -31.83844290 Ry
     estimated scf accuracy    <       0.35870519 Ry

     iteration # 21     ecut=    30.00 Ry     beta=0.70
     Davidson diagonalization with overlap
     ethr =  1.56E-04,  avg # of iterations =  1.0

     negative rho (up, down):  3.563E-08 0.000E+00

     total cpu time spent up to now is        9.8 secs

     total energy              =     -31.81828216 Ry
     Harris-Foulkes estimate   =     -31.83806919 Ry
     estimated scf accuracy    <       0.32867738 Ry

     iteration # 22     ecut=    30.00 Ry     beta=0.70
     Davidson diagonalization with overlap
     ethr =  1.56E-04,  avg # of iterations =  1.0

     total cpu time spent up to now is        9.9 secs

     total energy              =     -31.82397980 Ry
     Harris-Foulkes estimate   =     -31.84155801 Ry
     estimated scf accuracy    <       0.45654547 Ry

     iteration # 23     ecut=    30.00 Ry     beta=0.70
     Davidson diagonalization with overlap
     ethr =  1.56E-04,  avg # of iterations =  1.0

     total cpu time spent up to now is        9.9 secs

     total energy              =     -31.83659585 Ry
     Harris-Foulkes estimate   =     -31.83462231 Ry
     estimated scf accuracy    <       0.05169375 Ry

     iteration # 24     ecut=    30.00 Ry     beta=0.70
     Davidson diagonalization with overlap
     ethr =  1.56E-04,  avg # of iterations =  1.0

     negative rho (up, down):  6.037E-08 0.000E+00

     total cpu time spent up to now is       10.0 secs

     total energy              =     -31.86060639 Ry
     Harris-Foulkes estimate   =     -31.83806320 Ry
     estimated scf accuracy    <       0.33014019 Ry

     iteration # 25     ecut=    30.00 Ry     beta=0.70
     Davidson diagonalization with overlap
     ethr =  1.56E-04,  avg # of iterations =  1.0

     negative rho (up, down):  5.084E-08 0.000E+00

     total cpu time spent up to now is       10.1 secs

     total energy              =     -31.86388488 Ry
     Harris-Foulkes estimate   =     -31.87939443 Ry
     estimated scf accuracy    <       1.49422889 Ry

     iteration # 26     ecut=    30.00 Ry     beta=0.70
     Davidson diagonalization with overlap
     ethr =  1.56E-04,  avg # of iterations =  1.0

     negative rho (up, down):  1.572E-08 0.000E+00

     total cpu time spent up to now is       10.2 secs

     total energy              =     -31.84308907 Ry
     Harris-Foulkes estimate   =     -31.86344341 Ry
     estimated scf accuracy    <       1.57662268 Ry

     iteration # 27     ecut=    30.00 Ry     beta=0.70
     Davidson diagonalization with overlap
     ethr =  1.56E-04,  avg # of iterations =  1.0

     total cpu time spent up to now is       10.2 secs

     total energy              =     -31.83527237 Ry
     Harris-Foulkes estimate   =     -31.84513679 Ry
     estimated scf accuracy    <       0.84904766 Ry

     iteration # 28     ecut=    30.00 Ry     beta=0.70
     Davidson diagonalization with overlap
     ethr =  1.56E-04,  avg # of iterations =  1.0

     total cpu time spent up to now is       10.2 secs

     total energy              =     -31.83982007 Ry
     Harris-Foulkes estimate   =     -31.83731121 Ry
     estimated scf accuracy    <       0.27260721 Ry

     iteration # 29     ecut=    30.00 Ry     beta=0.70
     Davidson diagonalization with overlap
     ethr =  1.56E-04,  avg # of iterations =  1.0

     total cpu time spent up to now is       10.3 secs

     total energy              =     -31.83634358 Ry
     Harris-Foulkes estimate   =     -31.84026951 Ry
     estimated scf accuracy    <       0.50392239 Ry

     iteration # 30     ecut=    30.00 Ry     beta=0.70
     Davidson diagonalization with overlap
     ethr =  1.56E-04,  avg # of iterations =  1.0

     total cpu time spent up to now is       10.3 secs

     total energy              =     -31.82987782 Ry
     Harris-Foulkes estimate   =     -31.83693139 Ry
     estimated scf accuracy    <       0.24201685 Ry

     iteration # 31     ecut=    30.00 Ry     beta=0.70
     Davidson diagonalization with overlap
     ethr =  1.56E-04,  avg # of iterations =  1.0

     total cpu time spent up to now is       10.4 secs

     total energy              =     -31.83298549 Ry
     Harris-Foulkes estimate   =     -31.83409287 Ry
     estimated scf accuracy    <       0.00880164 Ry

     iteration # 32     ecut=    30.00 Ry     beta=0.70
     Davidson diagonalization with overlap
     ethr =  1.10E-04,  avg # of iterations =  1.0

     total cpu time spent up to now is       10.4 secs

     total energy              =     -31.83471494 Ry
     Harris-Foulkes estimate   =     -31.83591647 Ry
     estimated scf accuracy    <       0.15936856 Ry

     iteration # 33     ecut=    30.00 Ry     beta=0.70
     Davidson diagonalization with overlap
     ethr =  1.10E-04,  avg # of iterations =  1.0

     total cpu time spent up to now is       10.5 secs

     total energy              =     -31.83407768 Ry
     Harris-Foulkes estimate   =     -31.83489977 Ry
     estimated scf accuracy    <       0.07584087 Ry

     iteration # 34     ecut=    30.00 Ry     beta=0.70
     Davidson diagonalization with overlap
     ethr =  1.10E-04,  avg # of iterations =  1.0

     total cpu time spent up to now is       10.5 secs

     total energy              =     -31.83357224 Ry
     Harris-Foulkes estimate   =     -31.83426407 Ry
     estimated scf accuracy    <       0.02297959 Ry

     iteration # 35     ecut=    30.00 Ry     beta=0.70
     Davidson diagonalization with overlap
     ethr =  1.10E-04,  avg # of iterations =  1.0

     total cpu time spent up to now is       10.6 secs

     total energy              =     -31.83396259 Ry
     Harris-Foulkes estimate   =     -31.83399011 Ry
     estimated scf accuracy    <       0.00103266 Ry

     iteration # 36     ecut=    30.00 Ry     beta=0.70
     Davidson diagonalization with overlap
     ethr =  1.29E-05,  avg # of iterations =  1.0

     total cpu time spent up to now is       10.6 secs

     total energy              =     -31.83397316 Ry
     Harris-Foulkes estimate   =     -31.83397443 Ry
     estimated scf accuracy    <       0.00000292 Ry

     iteration # 37     ecut=    30.00 Ry     beta=0.70
     Davidson diagonalization with overlap
     ethr =  3.65E-08,  avg # of iterations =  7.0

     total cpu time spent up to now is       10.7 secs

     total energy              =     -31.83397233 Ry
     Harris-Foulkes estimate   =     -31.83397330 Ry
     estimated scf accuracy    <       0.00000136 Ry

     iteration # 38     ecut=    30.00 Ry     beta=0.70
     Davidson diagonalization with overlap
     ethr =  1.69E-08,  avg # of iterations =  1.0

     total cpu time spent up to now is       10.7 secs

     total energy              =     -31.83397223 Ry
     Harris-Foulkes estimate   =     -31.83397237 Ry
     estimated scf accuracy    <       0.00000113 Ry

     iteration # 39     ecut=    30.00 Ry     beta=0.70
     Davidson diagonalization with overlap
     ethr =  1.41E-08,  avg # of iterations =  1.0

     total cpu time spent up to now is       10.8 secs

     total energy              =     -31.83397217 Ry
     Harris-Foulkes estimate   =     -31.83397224 Ry
     estimated scf accuracy    <       0.00000007 Ry

     iteration # 40     ecut=    30.00 Ry     beta=0.70
     Davidson diagonalization with overlap
     ethr =  9.12E-10,  avg # of iterations =  1.0

     total cpu time spent up to now is       10.8 secs

     End of self-consistent calculation

          k = 0.0000 0.0000 0.0000 ( 22119 PWs)   bands (ev):

   -23.8177  -9.4923  -6.9666  -6.9662  -6.8327  -2.7089  -0.0299   0.7992

     the Fermi energy is    -6.7980 ev

!    total energy              =     -31.83397218 Ry
     Harris-Foulkes estimate   =     -31.83397217 Ry
     estimated scf accuracy    <          1.7E-09 Ry

     convergence has been achieved in  40 iterations

     Forces acting on atoms (Ry/au):

     atom    1 type  2   force =    -0.06138748    0.13401987   -0.10876101
     atom    2 type  1   force =     0.06150278   -0.13381639    0.10845534
     atom    3 type  1   force =    -0.00011530   -0.00020348    0.00030568

     Total force =     0.258865     Total SCF correction =     0.000041

     Entering Dynamics:    iteration =     5
                           time      =   0.0242 pico-seconds


     Andersen thermostat:    3 collisions

ATOMIC_POSITIONS (bohr)
O       11.067426977  21.591737609  18.176276825
H       10.926040989   1.722310131  17.926424291
H        2.835641546   8.628670272  12.571425157


     kinetic energy (Ekin) =     0.08768447 Ry
     temperature           =  4614.75550849 K 
     Ekin + Etot (const)   =   -31.74628771 Ry
     Message from routine dynamics:
     Total linear momentum <> 0

     Linear momentum :    0.4468574164   -0.1143076531   -0.0796788444

     Writing output data file pwscf.save

     second order wave-functions extrapolation
     Check: negative starting charge=   -0.348250
     second order charge density extrapolation
     Check: negative starting charge=   -0.356902

     negative rho (up, down):  4.793E-01 0.000E+00

     total cpu time spent up to now is       11.3 secs

     per-process dynamical memory:    20.4 Mb

     Self-consistent Calculation

     iteration #  1     ecut=    30.00 Ry     beta=0.70
     Davidson diagonalization with overlap
     ethr =  1.00E-06,  avg # of iterations = 12.0

     negative rho (up, down):  5.805E-02 0.000E+00

     total cpu time spent up to now is       11.5 secs

     total energy              =      35.26870968 Ry
     Harris-Foulkes estimate   =    -206.69517703 Ry
     estimated scf accuracy    <       9.00427698 Ry

     iteration #  2     ecut=    30.00 Ry     beta=0.70
     Davidson diagonalization with overlap
     ethr =  1.00E-02,  avg # of iterations =  6.0

     negative rho (up, down):  3.560E-02 0.000E+00

     total cpu time spent up to now is       11.5 secs

     total energy              =      -7.07581522 Ry
     Harris-Foulkes estimate   =     -10.95490695 Ry
     estimated scf accuracy    <       7.53407019 Ry

     iteration #  3     ecut=    30.00 Ry     beta=0.70
     Davidson diagonalization with overlap
     ethr =  1.00E-02,  avg # of iterations =  3.0

     negative rho (up, down):  2.861E-02 0.000E+00

     total cpu time spent up to now is       11.6 secs

     total energy              =      -7.29271605 Ry
     Harris-Foulkes estimate   =      -8.74042903 Ry
     estimated scf accuracy    <       5.03844451 Ry

     iteration #  4     ecut=    30.00 Ry     beta=0.70
     Davidson diagonalization with overlap
     ethr =  1.00E-02,  avg # of iterations =  2.0

     negative rho (up, down):  1.473E-02 0.000E+00

     total cpu time spent up to now is       11.6 secs

     total energy              =      -6.69935719 Ry
     Harris-Foulkes estimate   =      -7.54570252 Ry
     estimated scf accuracy    <       2.51686406 Ry

     iteration #  5     ecut=    30.00 Ry     beta=0.70
     Davidson diagonalization with overlap
     ethr =  1.00E-02,  avg # of iterations =  1.0

     negative rho (up, down):  1.259E-02 0.000E+00

     total cpu time spent up to now is       11.7 secs

     total energy              =      -6.75284911 Ry
     Harris-Foulkes estimate   =      -6.91941433 Ry
     estimated scf accuracy    <       2.12461946 Ry

     iteration #  6     ecut=    30.00 Ry     beta=0.70
     Davidson diagonalization with overlap
     ethr =  1.00E-02,  avg # of iterations =  1.0

     negative rho (up, down):  2.675E-03 0.000E+00

     total cpu time spent up to now is       11.7 secs

     total energy              =      -6.58223287 Ry
     Harris-Foulkes estimate   =      -6.76243610 Ry
     estimated scf accuracy    <       0.49021424 Ry

     iteration #  7     ecut=    30.00 Ry     beta=0.70
     Davidson diagonalization with overlap
     ethr =  6.13E-03,  avg # of iterations =  1.0

     negative rho (up, down):  1.086E-03 0.000E+00

     total cpu time spent up to now is       11.8 secs

     total energy              =      -6.55648306 Ry
[...]
     Harris-Foulkes estimate   =    -153.48324662 Ry
     estimated scf accuracy    <      15.12937790 Ry

     iteration # 59     ecut=    30.00 Ry     beta=0.70
     Davidson diagonalization with overlap
     ethr =  1.00E-02,  avg # of iterations =  5.0

     negative rho (up, down):  1.076E-01 0.000E+00

     total cpu time spent up to now is       18.1 secs

     total energy              =     -63.07494762 Ry
     Harris-Foulkes estimate   =     -65.37115085 Ry
     estimated scf accuracy    <      45.78174052 Ry

     iteration # 60     ecut=    30.00 Ry     beta=0.70
     Davidson diagonalization with overlap
     ethr =  1.00E-02,  avg # of iterations = 11.0

     negative rho (up, down):  6.055E-04 0.000E+00

     total cpu time spent up to now is       18.2 secs

     total energy              =      71.02519143 Ry
     Harris-Foulkes estimate   =    -620.10425315 Ry
     estimated scf accuracy    <      21.64138235 Ry

     iteration # 61     ecut=    30.00 Ry     beta=0.70
     Davidson diagonalization with overlap
     ethr =  1.00E-02,  avg # of iterations =  7.0

     negative rho (up, down):  5.466E-02 0.000E+00

     total cpu time spent up to now is       18.2 secs

     total energy              =     -60.87042733 Ry
     Harris-Foulkes estimate   =     -62.82800368 Ry
     estimated scf accuracy    <      42.65703804 Ry

     iteration # 62     ecut=    30.00 Ry     beta=0.70
     Davidson diagonalization with overlap
     ethr =  1.00E-02,  avg # of iterations =  9.0

     negative rho (up, down):  6.891E-02 0.000E+00

     total cpu time spent up to now is       18.3 secs

     total energy              =       3.93805117 Ry
     Harris-Foulkes estimate   =    -575.03602258 Ry
     estimated scf accuracy    <      14.12304189 Ry

     iteration # 63     ecut=    30.00 Ry     beta=0.70
     Davidson diagonalization with overlap
     ethr =  1.00E-02,  avg # of iterations =  4.0

     negative rho (up, down):  6.427E-02 0.000E+00

     total cpu time spent up to now is       18.4 secs

     total energy              =     -21.63125441 Ry
     Harris-Foulkes estimate   =     -70.31286329 Ry
     estimated scf accuracy    <      22.72327198 Ry

     iteration # 64     ecut=    30.00 Ry     beta=0.70
     Davidson diagonalization with overlap
     ethr =  1.00E-02,  avg # of iterations =  8.0

     negative rho (up, down):  2.144E-01 0.000E+00

     total cpu time spent up to now is       18.5 secs

     total energy              =     -20.40616626 Ry
     Harris-Foulkes estimate   =     -84.22933014 Ry
     estimated scf accuracy    <      23.85987251 Ry

     iteration # 65     ecut=    30.00 Ry     beta=0.70
     Davidson diagonalization with overlap
     ethr =  1.00E-02,  avg # of iterations =  5.0

     negative rho (up, down):  2.669E-01 0.000E+00

     total cpu time spent up to now is       18.5 secs

     total energy              =     -51.76523443 Ry
     Harris-Foulkes estimate   =     -55.56186359 Ry
     estimated scf accuracy    <      33.63873617 Ry

     iteration # 66     ecut=    30.00 Ry     beta=0.70
     Davidson diagonalization with overlap
     ethr =  1.00E-02,  avg # of iterations = 16.0

     negative rho (up, down):  1.887E-01 0.000E+00

     total cpu time spent up to now is       18.6 secs

     total energy              =     -10.31773397 Ry
     Harris-Foulkes estimate   =    -256.44212867 Ry
     estimated scf accuracy    <      16.51026701 Ry

     iteration # 67     ecut=    30.00 Ry     beta=0.70
     Davidson diagonalization with overlap
     ethr =  1.00E-02,  avg # of iterations =  5.0

     negative rho (up, down):  1.230E-01 0.000E+00

     total cpu time spent up to now is       18.7 secs

     total energy              =      85.37945771 Ry
     Harris-Foulkes estimate   =    -292.44566478 Ry
     estimated scf accuracy    <      18.65387917 Ry

     iteration # 68     ecut=    30.00 Ry     beta=0.70
     Davidson diagonalization with overlap
     ethr =  1.00E-02,  avg # of iterations = 10.0

     negative rho (up, down):  2.002E-01 0.000E+00

     total cpu time spent up to now is       18.8 secs

     total energy              =     -78.92312887 Ry
     Harris-Foulkes estimate   =    -252.25953123 Ry
     estimated scf accuracy    <      14.44385045 Ry

     iteration # 69     ecut=    30.00 Ry     beta=0.70
     Davidson diagonalization with overlap
     ethr =  1.00E-02,  avg # of iterations =  7.0

     negative rho (up, down):  2.389E-02 0.000E+00

     total cpu time spent up to now is       18.8 secs

     total energy              =     106.46680078 Ry
     Harris-Foulkes estimate   =    -339.96296082 Ry
     estimated scf accuracy    <      32.48811158 Ry

     iteration # 70     ecut=    30.00 Ry     beta=0.70
     Davidson diagonalization with overlap
     ethr =  1.00E-02,  avg # of iterations =  8.0

     negative rho (up, down):  3.519E-02 0.000E+00

     total cpu time spent up to now is       18.9 secs

     total energy              =     -11.82190745 Ry
     Harris-Foulkes estimate   =     -62.57120294 Ry
     estimated scf accuracy    <      13.07615513 Ry

     iteration # 71     ecut=    30.00 Ry     beta=0.70
     Davidson diagonalization with overlap
     ethr =  1.00E-02,  avg # of iterations =  7.0

     negative rho (up, down):  1.896E-02 0.000E+00

     total cpu time spent up to now is       19.0 secs

     total energy              =     105.85218465 Ry
     Harris-Foulkes estimate   =    -760.79780057 Ry
     estimated scf accuracy    <      33.80991005 Ry

     iteration # 72     ecut=    30.00 Ry     beta=0.70
     Davidson diagonalization with overlap
     ethr =  1.00E-02,  avg # of iterations =  4.0

     negative rho (up, down):  4.297E-02 0.000E+00

     total cpu time spent up to now is       19.1 secs

     total energy              =      -2.99526725 Ry
     Harris-Foulkes estimate   =    -191.90678464 Ry
     estimated scf accuracy    <      12.63416806 Ry

     iteration # 73     ecut=    30.00 Ry     beta=0.70
     Davidson diagonalization with overlap
     ethr =  1.00E-02,  avg # of iterations =  8.0

     negative rho (up, down):  7.430E-02 0.000E+00

     total cpu time spent up to now is       19.1 secs

     total energy              =     -47.54188723 Ry
     Harris-Foulkes estimate   =     -49.31106053 Ry
     estimated scf accuracy    <      25.81258274 Ry

     iteration # 74     ecut=    30.00 Ry     beta=0.70
     Davidson diagonalization with overlap
     ethr =  1.00E-02,  avg # of iterations = 10.0

     negative rho (up, down):  5.314E-02 0.000E+00

     total cpu time spent up to now is       19.2 secs

     total energy              =     112.83590765 Ry
     Harris-Foulkes estimate   =    -271.61497842 Ry
     estimated scf accuracy    <      34.48308320 Ry

     iteration # 75     ecut=    30.00 Ry     beta=0.70
     Davidson diagonalization with overlap
     ethr =  1.00E-02,  avg # of iterations = 12.0

     negative rho (up, down):  2.358E-02 0.000E+00

     total cpu time spent up to now is       19.3 secs

     total energy              =      19.80141056 Ry
     Harris-Foulkes estimate   =    -446.91826589 Ry
     estimated scf accuracy    <      14.30743400 Ry

     iteration # 76     ecut=    30.00 Ry     beta=0.70
     Davidson diagonalization with overlap
     ethr =  1.00E-02,  avg # of iterations =  4.0

     negative rho (up, down):  6.286E-03 0.000E+00

     total cpu time spent up to now is       19.4 secs

     total energy              =     -12.10642884 Ry
     Harris-Foulkes estimate   =     -70.66838510 Ry
     estimated scf accuracy    <      13.40903665 Ry

     iteration # 77     ecut=    30.00 Ry     beta=0.70
     Davidson diagonalization with overlap
     ethr =  1.00E-02,  avg # of iterations =  7.0

     negative rho (up, down):  3.632E-02 0.000E+00

     total cpu time spent up to now is       19.5 secs

     total energy              =     -46.05358153 Ry
     Harris-Foulkes estimate   =     -47.70573121 Ry
     estimated scf accuracy    <      23.95476037 Ry

     iteration # 78     ecut=    30.00 Ry     beta=0.70
     Davidson diagonalization with overlap
     ethr =  1.00E-02,  avg # of iterations =  7.0

     negative rho (up, down):  3.529E-02 0.000E+00

     total cpu time spent up to now is       19.5 secs

     total energy              =      87.05805245 Ry
     Harris-Foulkes estimate   =    -309.01347767 Ry
     estimated scf accuracy    <      41.69674788 Ry

     iteration # 79     ecut=    30.00 Ry     beta=0.70
     Davidson diagonalization with overlap
     ethr =  1.00E-02,  avg # of iterations =  6.0

     negative rho (up, down):  4.144E-03 0.000E+00

     total cpu time spent up to now is       19.6 secs

     total energy              =     -12.90321260 Ry
     Harris-Foulkes estimate   =     -58.25840328 Ry
     estimated scf accuracy    <      11.83268203 Ry

     iteration # 80     ecut=    30.00 Ry     beta=0.70
     Davidson diagonalization with overlap
     ethr =  1.00E-02,  avg # of iterations =  6.0

     negative rho (up, down):  9.611E-03 0.000E+00

     total cpu time spent up to now is       19.7 secs

     total energy              =     -44.24108952 Ry
     Harris-Foulkes estimate   =     -45.18503922 Ry
     estimated scf accuracy    <      20.86574962 Ry

     iteration # 81     ecut=    30.00 Ry     beta=0.70
     Davidson diagonalization with overlap
     ethr =  1.00E-02,  avg # of iterations =  2.0

     negative rho (up, down):  1.373E-02 0.000E+00

     total cpu time spent up to now is       19.7 secs

     total energy              =     -43.43353236 Ry
     Harris-Foulkes estimate   =     -44.24185712 Ry
     estimated scf accuracy    <      19.79084314 Ry

     iteration # 82     ecut=    30.00 Ry     beta=0.70
     Davidson diagonalization with overlap
     ethr =  1.00E-02,  avg # of iterations =  1.0

     negative rho (up, down):  1.217E-02 0.000E+00

     total cpu time spent up to now is       19.8 secs

     total energy              =     -43.07006390 Ry
     Harris-Foulkes estimate   =     -43.43509000 Ry
     estimated scf accuracy    <      18.78280996 Ry

     iteration # 83     ecut=    30.00 Ry     beta=0.70
     Davidson diagonalization with overlap
     ethr =  1.00E-02,  avg # of iterations =  1.0

     negative rho (up, down):  2.519E-01 0.000E+00

     total cpu time spent up to now is       19.8 secs

     total energy              =     -45.63575679 Ry
     Harris-Foulkes estimate   =     -43.07028588 Ry
     estimated scf accuracy    <      18.29987784 Ry

     iteration # 84     ecut=    30.00 Ry     beta=0.70
     Davidson diagonalization with overlap
     ethr =  1.00E-02,  avg # of iterations =  7.0

     negative rho (up, down):  1.058E-01 0.000E+00

     total cpu time spent up to now is       19.9 secs

     total energy              =      91.59933582 Ry
     Harris-Foulkes estimate   =  -25630.04702926 Ry
     estimated scf accuracy    <      42.73155424 Ry

     iteration # 85     ecut=    30.00 Ry     beta=0.70
     Davidson diagonalization with overlap
     ethr =  1.00E-02,  avg # of iterations = 11.0

     negative rho (up, down):  1.266E-03 0.000E+00

     total cpu time spent up to now is       20.0 secs

     total energy              =      34.72785170 Ry
     Harris-Foulkes estimate   =   -1469.85883988 Ry
     estimated scf accuracy    <      13.11347941 Ry

     iteration # 86     ecut=    30.00 Ry     beta=0.70
     Davidson diagonalization with overlap
     ethr =  1.00E-02,  avg # of iterations =  7.0

     negative rho (up, down):  5.010E-03 0.000E+00

     total cpu time spent up to now is       20.1 secs

     total energy              =     -42.14772633 Ry
     Harris-Foulkes estimate   =     -42.31698536 Ry
     estimated scf accuracy    <      17.14625213 Ry

     iteration # 87     ecut=    30.00 Ry     beta=0.70
     Davidson diagonalization with overlap
     ethr =  1.00E-02,  avg # of iterations =  6.0

     negative rho (up, down):  2.777E-02 0.000E+00

     total cpu time spent up to now is       20.2 secs

     total energy              =      31.11536013 Ry
     Harris-Foulkes estimate   =    -147.97521426 Ry
     estimated scf accuracy    <      14.91126923 Ry

     iteration # 88     ecut=    30.00 Ry     beta=0.70
     Davidson diagonalization with overlap
     ethr =  1.00E-02,  avg # of iterations =  9.0

     negative rho (up, down):  2.241E-03 0.000E+00

     total cpu time spent up to now is       20.2 secs

     total energy              =      61.51700593 Ry
     Harris-Foulkes estimate   =    -155.95422828 Ry
     estimated scf accuracy    <      30.65338970 Ry

     iteration # 89     ecut=    30.00 Ry     beta=0.70
     Davidson diagonalization with overlap
     ethr =  1.00E-02,  avg # of iterations =  4.0

     negative rho (up, down):  3.969E-03 0.000E+00

     total cpu time spent up to now is       20.3 secs

     total energy              =     -42.00375995 Ry
     Harris-Foulkes estimate   =     -42.77837026 Ry
     estimated scf accuracy    <      17.65890415 Ry

     iteration # 90     ecut=    30.00 Ry     beta=0.70
     Davidson diagonalization with overlap
     ethr =  1.00E-02,  avg # of iterations =  1.0

     negative rho (up, down):  5.664E-03 0.000E+00

     total cpu time spent up to now is       20.4 secs

     total energy              =     -41.47514779 Ry
     Harris-Foulkes estimate   =     -42.00514201 Ry
     estimated scf accuracy    <      16.75156371 Ry

     iteration # 91     ecut=    30.00 Ry     beta=0.70
     Davidson diagonalization with overlap
     ethr =  1.00E-02,  avg # of iterations =  1.0

     negative rho (up, down):  8.284E-03 0.000E+00

     total cpu time spent up to now is       20.4 secs

     total energy              =     -40.53940014 Ry
     Harris-Foulkes estimate   =     -41.47607496 Ry
     estimated scf accuracy    <      16.08341329 Ry

     iteration # 92     ecut=    30.00 Ry     beta=0.70
     Davidson diagonalization with overlap
     ethr =  1.00E-02,  avg # of iterations =  1.0

     negative rho (up, down):  8.005E-04 0.000E+00

     total cpu time spent up to now is       20.5 secs

     total energy              =     -43.41984728 Ry
     Harris-Foulkes estimate   =     -40.54158967 Ry
     estimated scf accuracy    <      14.88768618 Ry

     iteration # 93     ecut=    30.00 Ry     beta=0.70
     Davidson diagonalization with overlap
     ethr =  1.00E-02,  avg # of iterations =  1.0

     negative rho (up, down):  3.616E-01 0.000E+00

     total cpu time spent up to now is       20.5 secs

     total energy              =     -33.69288845 Ry
     Harris-Foulkes estimate   =     -43.43270402 Ry
     estimated scf accuracy    <      18.48946126 Ry

     iteration # 94     ecut=    30.00 Ry     beta=0.70
     Davidson diagonalization with overlap
     ethr =  1.00E-02,  avg # of iterations = 11.0

     negative rho (up, down):  5.563E-02 0.000E+00

     total cpu time spent up to now is       20.6 secs

     total energy              =      87.05557111 Ry
     Harris-Foulkes estimate   =    -400.81174073 Ry
     estimated scf accuracy    <      48.60878174 Ry

     iteration # 95     ecut=    30.00 Ry     beta=0.70
     Davidson diagonalization with overlap
     ethr =  1.00E-02,  avg # of iterations =  8.0

     negative rho (up, down):  1.844E-02 0.000E+00

     total cpu time spent up to now is       20.7 secs

     total energy              =      -3.87023578 Ry
     Harris-Foulkes estimate   =     -42.10000744 Ry
     estimated scf accuracy    <       8.54480186 Ry

     iteration # 96     ecut=    30.00 Ry     beta=0.70
     Davidson diagonalization with overlap
     ethr =  1.00E-02,  avg # of iterations =  8.0

     negative rho (up, down):  2.101E-04 0.000E+00

     total cpu time spent up to now is       20.8 secs

     total energy              =      66.66763310 Ry
     Harris-Foulkes estimate   =     -94.04190655 Ry
     estimated scf accuracy    <      47.29847524 Ry

     iteration # 97     ecut=    30.00 Ry     beta=0.70
     Davidson diagonalization with overlap
     ethr =  1.00E-02,  avg # of iterations =  8.0

     negative rho (up, down):  4.278E-02 0.000E+00

     total cpu time spent up to now is       20.9 secs

     total energy              =     -34.90106480 Ry
     Harris-Foulkes estimate   =     -40.31957866 Ry
     estimated scf accuracy    <      14.24683294 Ry

     iteration # 98     ecut=    30.00 Ry     beta=0.70
     Davidson diagonalization with overlap
     ethr =  1.00E-02,  avg # of iterations =  2.0

     negative rho (up, down):  2.285E-02 0.000E+00

     total cpu time spent up to now is       20.9 secs

     total energy              =     -33.90555152 Ry
     Harris-Foulkes estimate   =     -34.96633049 Ry
     estimated scf accuracy    <       7.29707098 Ry

     iteration # 99     ecut=    30.00 Ry     beta=0.70
     Davidson diagonalization with overlap
     ethr =  1.00E-02,  avg # of iterations =  7.0

     negative rho (up, down):  9.265E-02 0.000E+00

     total cpu time spent up to now is       21.0 secs

     total energy              =     -32.94757069 Ry
     Harris-Foulkes estimate   =     -44.22132941 Ry
     estimated scf accuracy    <       6.64394628 Ry

     iteration #100     ecut=    30.00 Ry     beta=0.70
     Davidson diagonalization with overlap
     ethr =  1.00E-02,  avg # of iterations =  7.0

     negative rho (up, down):  1.157E-01 0.000E+00

     total cpu time spent up to now is       21.1 secs

     total energy              =     -28.64402977 Ry
     Harris-Foulkes estimate   =    -106.19538134 Ry
     estimated scf accuracy    <      36.23291660 Ry

     End of self-consistent calculation

     convergence NOT achieved after 100 iterations: stopping

     Writing output data file pwscf.save
 
     init_run     :      0.17s CPU      0.19s WALL (       1 calls)
     electrons    :     15.63s CPU     18.48s WALL (       7 calls)
     update_pot   :      1.24s CPU      1.58s WALL (       6 calls)
     forces       :      0.26s CPU      0.26s WALL (       6 calls)

     Called by init_run:
     wfcinit      :      0.01s CPU      0.02s WALL (       1 calls)
     potinit      :      0.05s CPU      0.05s WALL (       1 calls)

     Called by electrons:
     c_bands      :      8.43s CPU      8.80s WALL (     277 calls)
     sum_band     :      1.41s CPU      1.48s WALL (     277 calls)
     v_of_rho     :      3.35s CPU      3.47s WALL (     284 calls)
     mix_rho      :      1.97s CPU      3.78s WALL (     277 calls)

     Called by c_bands:
     init_us_2    :      0.04s CPU      0.05s WALL (     555 calls)
     cegterg      :      8.35s CPU      8.65s WALL (     278 calls)

     Called by sum_band:

     Called by *egterg:
     h_psi        :      6.99s CPU      7.22s WALL (    1524 calls)
     g_psi        :      0.08s CPU      0.08s WALL (    1245 calls)
     cdiaghg      :      0.56s CPU      0.58s WALL (    1516 calls)

     Called by h_psi:
     h_psi:pot    :      6.95s CPU      7.18s WALL (    1524 calls)
     h_psi:calbec :      0.07s CPU      0.13s WALL (    1524 calls)
     vloc_psi     :      6.85s CPU      7.01s WALL (    1524 calls)
     add_vuspsi   :      0.02s CPU      0.02s WALL (    1524 calls)

     General routines
     calbec       :      0.09s CPU      0.16s WALL (    1553 calls)
     fft          :      2.01s CPU      2.10s WALL (    3136 calls)
     fftw         :      7.15s CPU      7.35s WALL (   17934 calls)
     davcio       :      0.34s CPU      1.59s WALL (    4930 calls)
 
     Parallel routines
     fft_scatter  :      2.70s CPU      2.86s WALL (   21070 calls)
 
     PWSCF        :    17.67s CPU        21.20s WALL

 
   This run was terminated on:  15:41:23  13Feb2018            

=------------------------------------------------------------------------------=
   JOB DONE.
=------------------------------------------------------------------------------=
