
     Program PWSCF v.6.0 (svn rev. 13079) starts on 13Feb2018 at 15:42:12 

     This program is part of the open-source Quantum ESPRESSO suite
     for quantum simulation of materials; please cite
         "P. Giannozzi et al., J. Phys.:Condens. Matter 21 395502 (2009);
          URL http://www.quantum-espresso.org", 
     in publications or presentations arising from this work. More details at
     http://www.quantum-espresso.org/quote

     Parallel version (MPI), running on    28 processors
     R & G space division:  proc/nbgrp/npool/nimage =      28
     Reading input from inputs/MD-H2O-round1/513.in

     Current dimensions of program PWSCF are:
     Max number of different atomic species (ntypx) = 10
     Max number of k-points (npk) =  40000
     Max angular momentum in pseudopotentials (lmaxx) =  3

     Subspace diagonalization in iterative solution of the eigenvalue problem:
     a serial algorithm will be used

 
     Parallelization info
     --------------------
     sticks:   dense  smooth     PW     G-vecs:    dense   smooth      PW
     Min         136     136     33                 6338     6338     787
     Max         137     137     34                 6341     6341     792
     Sum        3809    3809    949               177509   177509   22119
 


     bravais-lattice index     =            1
     lattice parameter (alat)  =      20.0000  a.u.
     unit-cell volume          =    8000.0000 (a.u.)^3
     number of atoms/cell      =            3
     number of atomic types    =            2
     number of electrons       =         8.00
     number of Kohn-Sham states=            8
     kinetic-energy cutoff     =      30.0000  Ry
     charge density cutoff     =     120.0000  Ry
     convergence threshold     =      1.0E-08
     mixing beta               =       0.7000
     number of iterations used =            8  plain     mixing
     Exchange-correlation      = BLYP ( 1  3  1  3 0 0)
     nstep                     =         5000


     celldm(1)=  20.000000  celldm(2)=   0.000000  celldm(3)=   0.000000
     celldm(4)=   0.000000  celldm(5)=   0.000000  celldm(6)=   0.000000

     crystal axes: (cart. coord. in units of alat)
               a(1) = (   1.000000   0.000000   0.000000 )  
               a(2) = (   0.000000   1.000000   0.000000 )  
               a(3) = (   0.000000   0.000000   1.000000 )  

     reciprocal axes: (cart. coord. in units 2 pi/alat)
               b(1) = (  1.000000  0.000000  0.000000 )  
               b(2) = (  0.000000  1.000000  0.000000 )  
               b(3) = (  0.000000  0.000000  1.000000 )  


     PseudoPot. # 1 for  H read from file:
     ./H.blyp-hgh.UPF
     MD5 check sum: c576e69559cde411e611be972c763230
     Pseudo is Norm-conserving, Zval =  1.0
     Generated in analytical, separable form
     Using radial grid of  929 points,  0 beta functions with: 

     PseudoPot. # 2 for  O read from file:
     ./O.blyp-hgh.UPF
     MD5 check sum: d0b7156309aa9befef28faac7bc56342
     Pseudo is Norm-conserving, Zval =  6.0
     Generated in analytical, separable form
     Using radial grid of 1095 points,  1 beta functions with: 
                l(1) =   0

     atomic species   valence    mass     pseudopotential
        H              1.00     1.01000      H( 1.00)
        O              6.00    16.00000      O( 1.00)

     No symmetry found



   Cartesian axes

     site n.     atom                  positions (alat units)
         1           O   tau(   1) = (   0.2571951   0.8342664   0.3981103  )
         2           H   tau(   2) = (   0.3348429   0.8455011   0.4557023  )
         3           H   tau(   3) = (   0.3069327   0.8413461   0.4349212  )

     number of k points=     1  Marzari-Vanderbilt smearing, width (Ry)=  0.0250
                       cart. coord. in units 2pi/alat
        k(    1) = (   0.0000000   0.0000000   0.0000000), wk =   2.0000000

     Dense  grid:   177509 G-vectors     FFT dimensions: (  72,  72,  72)

     Estimated max dynamical RAM per process >       6.09Mb

     Estimated total allocated dynamical RAM >     170.64Mb

     Initial potential from superposition of free atoms
     Check: negative starting charge=   -0.359738

     starting charge    7.99998, renormalised to    8.00000

     negative rho (up, down):  3.597E-01 0.000E+00
     Starting wfc are    6 randomized atomic wfcs +    2 random wfc

     total cpu time spent up to now is        0.5 secs

     per-process dynamical memory:    18.9 Mb

     Self-consistent Calculation

     iteration #  1     ecut=    30.00 Ry     beta=0.70
     Davidson diagonalization with overlap
     ethr =  1.00E-02,  avg # of iterations =  9.0

     negative rho (up, down):  1.023E-01 0.000E+00

     total cpu time spent up to now is        0.7 secs

     total energy              =     -30.66739224 Ry
     Harris-Foulkes estimate   =     -30.96873254 Ry
     estimated scf accuracy    <       0.34213838 Ry

     iteration #  2     ecut=    30.00 Ry     beta=0.70
     Davidson diagonalization with overlap
     ethr =  4.28E-03,  avg # of iterations =  1.0

     negative rho (up, down):  1.524E-02 0.000E+00

     total cpu time spent up to now is        0.8 secs

     total energy              =     -30.74984246 Ry
     Harris-Foulkes estimate   =     -30.69071458 Ry
     estimated scf accuracy    <       0.01870364 Ry

     iteration #  3     ecut=    30.00 Ry     beta=0.70
     Davidson diagonalization with overlap
     ethr =  2.34E-04,  avg # of iterations =  4.0

     negative rho (up, down):  3.726E-03 0.000E+00

     total cpu time spent up to now is        0.9 secs

     total energy              =     -30.76313126 Ry
     Harris-Foulkes estimate   =     -30.75267135 Ry
     estimated scf accuracy    <       0.00129096 Ry

     iteration #  4     ecut=    30.00 Ry     beta=0.70
     Davidson diagonalization with overlap
     ethr =  1.61E-05,  avg # of iterations = 14.0

     negative rho (up, down):  3.766E-04 0.000E+00

     total cpu time spent up to now is        1.1 secs

     total energy              =     -30.76539016 Ry
     Harris-Foulkes estimate   =     -30.76352616 Ry
     estimated scf accuracy    <       0.00016549 Ry

     iteration #  5     ecut=    30.00 Ry     beta=0.70
     Davidson diagonalization with overlap
     c_bands:  1 eigenvalues not converged
     ethr =  2.07E-06,  avg # of iterations = 20.0

     negative rho (up, down):  2.038E-06 0.000E+00

     total cpu time spent up to now is        1.3 secs

     total energy              =     -30.76546349 Ry
     Harris-Foulkes estimate   =     -30.76543964 Ry
     estimated scf accuracy    <       0.00001078 Ry

     iteration #  6     ecut=    30.00 Ry     beta=0.70
     Davidson diagonalization with overlap
     ethr =  1.35E-07,  avg # of iterations = 10.0

     negative rho (up, down):  2.158E-08 0.000E+00

     total cpu time spent up to now is        1.4 secs

     total energy              =     -30.76546700 Ry
     Harris-Foulkes estimate   =     -30.76546603 Ry
     estimated scf accuracy    <       0.00000008 Ry

     iteration #  7     ecut=    30.00 Ry     beta=0.70
     Davidson diagonalization with overlap
     ethr =  1.06E-09,  avg # of iterations =  3.0

     total cpu time spent up to now is        1.5 secs

     total energy              =     -30.76546765 Ry
     Harris-Foulkes estimate   =     -30.76546706 Ry
     estimated scf accuracy    <       0.00000004 Ry

     iteration #  8     ecut=    30.00 Ry     beta=0.70
     Davidson diagonalization with overlap
     ethr =  4.70E-10,  avg # of iterations =  2.0

     total cpu time spent up to now is        1.6 secs

     End of self-consistent calculation

          k = 0.0000 0.0000 0.0000 ( 22119 PWs)   bands (ev):

   -34.1212 -14.8263  -7.6866  -7.6856  -2.2004   0.0692   1.0123   1.0267

     the Fermi energy is    -5.1383 ev

!    total energy              =     -30.76546763 Ry
     Harris-Foulkes estimate   =     -30.76546767 Ry
     estimated scf accuracy    <          3.5E-09 Ry

     convergence has been achieved in   8 iterations

     Forces acting on atoms (Ry/au):

     atom    1 type  2   force =    -1.95752866   -0.27763151   -1.44856959
     atom    2 type  1   force =     2.09119964    0.31171109    1.55813087
     atom    3 type  1   force =    -0.13367098   -0.03407958   -0.10956129

     Total force =     3.596726     Total SCF correction =     0.000216

     Molecular Dynamics Calculation

     Starting temperature  =  1000.00 K

     temperature is controlled by Andersen thermostat
     Collision frequency = 1.0000/timestep
     mass H                =     1.01
     mass O                =    16.00
     Time step             =   100.00 a.u.,  4.8378 femto-seconds

     Entering Dynamics:    iteration =     1
                           time      =   0.0048 pico-seconds


     Andersen thermostat:    3 collisions

ATOMIC_POSITIONS (bohr)
O        4.460229723  16.582707270   7.443814636
H       18.056708632  18.783530032  17.479674317
H        5.609255278  16.579074061   8.544936098


     kinetic energy (Ekin) =     0.01337019 Ry
     temperature           =   703.66124461 K 
     Ekin + Etot (const)   =   -30.75209744 Ry

     Linear momentum :    0.0000000000   -0.0000000000    0.0000000000

     Writing output data file pwscf.save
     Check: negative starting charge=   -0.359738
     NEW-OLD atomic charge density approx. for the potential
     Check: negative starting charge=   -0.350965

     negative rho (up, down):  8.211E-01 0.000E+00

     total cpu time spent up to now is        2.9 secs

     per-process dynamical memory:    20.8 Mb

     Self-consistent Calculation

     iteration #  1     ecut=    30.00 Ry     beta=0.70
     Davidson diagonalization with overlap
     ethr =  1.00E-06,  avg # of iterations = 20.0

     negative rho (up, down):  1.190E-01 0.000E+00

     total cpu time spent up to now is        3.2 secs

     total energy              =      98.20319441 Ry
     Harris-Foulkes estimate   =    -512.57587176 Ry
     estimated scf accuracy    <      38.12604274 Ry

     iteration #  2     ecut=    30.00 Ry     beta=0.70
     Davidson diagonalization with overlap
     ethr =  1.00E-02,  avg # of iterations =  7.0

     negative rho (up, down):  6.497E-02 0.000E+00

     total cpu time spent up to now is        3.4 secs

     total energy              =     -12.16836475 Ry
     Harris-Foulkes estimate   =     -59.21713679 Ry
     estimated scf accuracy    <      24.89012321 Ry

     iteration #  3     ecut=    30.00 Ry     beta=0.70
     Davidson diagonalization with overlap
     ethr =  1.00E-02,  avg # of iterations =  6.0

     negative rho (up, down):  5.481E-02 0.000E+00

     total cpu time spent up to now is        3.5 secs

     total energy              =     -35.19658993 Ry
     Harris-Foulkes estimate   =     -39.86448570 Ry
     estimated scf accuracy    <      13.79680473 Ry

     iteration #  4     ecut=    30.00 Ry     beta=0.70
     Davidson diagonalization with overlap
     ethr =  1.00E-02,  avg # of iterations =  2.0

     negative rho (up, down):  4.979E-02 0.000E+00

     total cpu time spent up to now is        3.6 secs

     total energy              =     -34.87400672 Ry
     Harris-Foulkes estimate   =     -36.31380574 Ry
     estimated scf accuracy    <       8.78068219 Ry

     iteration #  5     ecut=    30.00 Ry     beta=0.70
     Davidson diagonalization with overlap
     ethr =  1.00E-02,  avg # of iterations =  1.0

     negative rho (up, down):  3.998E-02 0.000E+00

     total cpu time spent up to now is        3.7 secs

     total energy              =     -32.32347544 Ry
     Harris-Foulkes estimate   =     -34.91538885 Ry
     estimated scf accuracy    <       5.39644780 Ry

     iteration #  6     ecut=    30.00 Ry     beta=0.70
     Davidson diagonalization with overlap
     ethr =  1.00E-02,  avg # of iterations =  5.0

     negative rho (up, down):  4.183E-02 0.000E+00

     total cpu time spent up to now is        3.8 secs

     total energy              =    -178.70674436 Ry
     Harris-Foulkes estimate   =     -58.23960197 Ry
     estimated scf accuracy    <       5.45221539 Ry

     iteration #  7     ecut=    30.00 Ry     beta=0.70
     Davidson diagonalization with overlap
     ethr =  1.00E-02,  avg # of iterations =  4.0

     negative rho (up, down):  4.479E-02 0.000E+00

     total cpu time spent up to now is        4.0 secs

     total energy              =      15.26733092 Ry
     Harris-Foulkes estimate   =    -227.83803008 Ry
     estimated scf accuracy    <      18.12813899 Ry

     iteration #  8     ecut=    30.00 Ry     beta=0.70
     Davidson diagonalization with overlap
     ethr =  1.00E-02,  avg # of iterations =  4.0

     negative rho (up, down):  4.778E-02 0.000E+00

     total cpu time spent up to now is        4.0 secs

     total energy              =     -32.26424907 Ry
     Harris-Foulkes estimate   =     -32.74112086 Ry
     estimated scf accuracy    <       2.84881133 Ry

     iteration #  9     ecut=    30.00 Ry     beta=0.70
     Davidson diagonalization with overlap
     ethr =  1.00E-02,  avg # of iterations =  4.0

     negative rho (up, down):  3.778E-02 0.000E+00

     total cpu time spent up to now is        4.1 secs

     total energy              =     -22.91652936 Ry
     Harris-Foulkes estimate   =     -34.26041195 Ry
     estimated scf accuracy    <       5.29725401 Ry

     iteration # 10     ecut=    30.00 Ry     beta=0.70
     Davidson diagonalization with overlap
     ethr =  1.00E-02,  avg # of iterations =  4.0

     negative rho (up, down):  1.655E-01 0.000E+00

     total cpu time spent up to now is        4.2 secs

     total energy              =     -31.63249276 Ry
     Harris-Foulkes estimate   =     -32.43016071 Ry
     estimated scf accuracy    <       2.28580360 Ry

     iteration # 11     ecut=    30.00 Ry     beta=0.70
     Davidson diagonalization with overlap
     ethr =  1.00E-02,  avg # of iterations =  5.0

     negative rho (up, down):  1.741E-01 0.000E+00

     total cpu time spent up to now is        4.2 secs

     total energy              =       4.78151475 Ry
     Harris-Foulkes estimate   =    -177.52484902 Ry
     estimated scf accuracy    <      24.54091251 Ry

     iteration # 12     ecut=    30.00 Ry     beta=0.70
     Davidson diagonalization with overlap
     ethr =  1.00E-02,  avg # of iterations =  4.0

     negative rho (up, down):  1.963E-01 0.000E+00

     total cpu time spent up to now is        4.3 secs

     total energy              =     -54.83605583 Ry
     Harris-Foulkes estimate   =     -38.58823448 Ry
     estimated scf accuracy    <       8.58704386 Ry

     iteration # 13     ecut=    30.00 Ry     beta=0.70
     Davidson diagonalization with overlap
     ethr =  1.00E-02,  avg # of iterations =  4.0

     negative rho (up, down):  1.952E-01 0.000E+00

     total cpu time spent up to now is        4.4 secs

     total energy              =     264.07712577 Ry
     Harris-Foulkes estimate   =    -116.36842604 Ry
     estimated scf accuracy    <      21.91666986 Ry

     iteration # 14     ecut=    30.00 Ry     beta=0.70
     Davidson diagonalization with overlap
     ethr =  1.00E-02,  avg # of iterations =  4.0

     negative rho (up, down):  1.805E-01 0.000E+00

     total cpu time spent up to now is        4.4 secs

     total energy              =     -14.59207806 Ry
     Harris-Foulkes estimate   =     -60.32695189 Ry
     estimated scf accuracy    <      17.45060802 Ry

     iteration # 15     ecut=    30.00 Ry     beta=0.70
     Davidson diagonalization with overlap
     ethr =  1.00E-02,  avg # of iterations =  4.0

     negative rho (up, down):  1.949E-01 0.000E+00

     total cpu time spent up to now is        4.5 secs

     total energy              =       4.71989300 Ry
     Harris-Foulkes estimate   =    -117.92842080 Ry
     estimated scf accuracy    <      18.58197963 Ry

     iteration # 16     ecut=    30.00 Ry     beta=0.70
     Davidson diagonalization with overlap
     ethr =  1.00E-02,  avg # of iterations =  4.0

     negative rho (up, down):  2.033E-01 0.000E+00

     total cpu time spent up to now is        4.6 secs

     total energy              =       2.51944373 Ry
     Harris-Foulkes estimate   =    -150.44173774 Ry
     estimated scf accuracy    <      39.21027074 Ry

     iteration # 17     ecut=    30.00 Ry     beta=0.70
     Davidson diagonalization with overlap
     ethr =  1.00E-02,  avg # of iterations =  4.0

     negative rho (up, down):  3.152E-01 0.000E+00

     total cpu time spent up to now is        4.6 secs

     total energy              =    -102.37533219 Ry
     Harris-Foulkes estimate   =    -123.38688790 Ry
     estimated scf accuracy    <      39.19576905 Ry

     iteration # 18     ecut=    30.00 Ry     beta=0.70
     Davidson diagonalization with overlap
     ethr =  1.00E-02,  avg # of iterations =  7.0

     negative rho (up, down):  1.897E-01 0.000E+00

     total cpu time spent up to now is        4.7 secs

     total energy              =     -42.16394098 Ry
     Harris-Foulkes estimate   =    -643.80752598 Ry
     estimated scf accuracy    <      30.96499893 Ry

     iteration # 19     ecut=    30.00 Ry     beta=0.70
     Davidson diagonalization with overlap
     ethr =  1.00E-02,  avg # of iterations =  6.0

     negative rho (up, down):  1.067E+00 0.000E+00

     total cpu time spent up to now is        4.8 secs

     total energy              =    -148.31522537 Ry
     Harris-Foulkes estimate   =   -1036.64329737 Ry
     estimated scf accuracy    <      59.77844695 Ry

     iteration # 20     ecut=    30.00 Ry     beta=0.70
     Davidson diagonalization with overlap
     ethr =  1.00E-02,  avg # of iterations =  8.0

     negative rho (up, down):  1.172E+00 0.000E+00

     total cpu time spent up to now is        4.9 secs

     total energy              =      68.73213859 Ry
     Harris-Foulkes estimate   =   -2395.00589091 Ry
     estimated scf accuracy    <      54.92735034 Ry

     iteration # 21     ecut=    30.00 Ry     beta=0.70
     Davidson diagonalization with overlap
     ethr =  1.00E-02,  avg # of iterations =  6.0

     negative rho (up, down):  1.288E+00 0.000E+00

     total cpu time spent up to now is        5.0 secs

     total energy              =      54.53787440 Ry
     Harris-Foulkes estimate   =    -991.85078507 Ry
     estimated scf accuracy    <      47.84547917 Ry

     iteration # 22     ecut=    30.00 Ry     beta=0.70
     Davidson diagonalization with overlap
     ethr =  1.00E-02,  avg # of iterations =  6.0

     negative rho (up, down):  1.666E+00 0.000E+00

     total cpu time spent up to now is        5.1 secs

     total energy              =    -421.97375517 Ry
     Harris-Foulkes estimate   =    -544.44978923 Ry
     estimated scf accuracy    <      50.03568107 Ry

     iteration # 23     ecut=    30.00 Ry     beta=0.70
     Davidson diagonalization with overlap
     ethr =  1.00E-02,  avg # of iterations =  8.0

     negative rho (up, down):  2.214E+00 0.000E+00

     total cpu time spent up to now is        5.2 secs

     total energy              =      78.80847746 Ry
     Harris-Foulkes estimate   =   -6242.96683158 Ry
     estimated scf accuracy    <      57.76925618 Ry

     iteration # 24     ecut=    30.00 Ry     beta=0.70
     Davidson diagonalization with overlap
     ethr =  1.00E-02,  avg # of iterations =  8.0

     negative rho (up, down):  2.270E+00 0.000E+00

     total cpu time spent up to now is        5.3 secs

     total energy              =      38.83931711 Ry
     Harris-Foulkes estimate   =   -2483.14748764 Ry
     estimated scf accuracy    <      37.40352166 Ry

     iteration # 25     ecut=    30.00 Ry     beta=0.70
     Davidson diagonalization with overlap
     ethr =  1.00E-02,  avg # of iterations =  6.0

     negative rho (up, down):  2.814E+00 0.000E+00

     total cpu time spent up to now is        5.3 secs

     total energy              =     107.53037606 Ry
     Harris-Foulkes estimate   =   -8985.54987618 Ry
     estimated scf accuracy    <      39.06589718 Ry

     iteration # 26     ecut=    30.00 Ry     beta=0.70
     Davidson diagonalization with overlap
     ethr =  1.00E-02,  avg # of iterations =  8.0

     negative rho (up, down):  2.672E+00 0.000E+00

     total cpu time spent up to now is        5.4 secs

     total energy              =      93.33101979 Ry
     Harris-Foulkes estimate   =    -949.19895090 Ry
     estimated scf accuracy    <      31.56385707 Ry

     iteration # 27     ecut=    30.00 Ry     beta=0.70
     Davidson diagonalization with overlap
     ethr =  1.00E-02,  avg # of iterations =  7.0

     negative rho (up, down):  1.768E+00 0.000E+00

     total cpu time spent up to now is        5.5 secs

     total energy              =     121.06746133 Ry
     Harris-Foulkes estimate   =   -2677.12427798 Ry
     estimated scf accuracy    <      22.61006831 Ry

     iteration # 28     ecut=    30.00 Ry     beta=0.70
     Davidson diagonalization with overlap
     ethr =  1.00E-02,  avg # of iterations =  9.0

     negative rho (up, down):  9.790E-01 0.000E+00

     total cpu time spent up to now is        5.6 secs

     total energy              =    -604.14024050 Ry
     Harris-Foulkes estimate   =    -672.54014917 Ry
     estimated scf accuracy    <      27.57924012 Ry

     iteration # 29     ecut=    30.00 Ry     beta=0.70
     Davidson diagonalization with overlap
     ethr =  1.00E-02,  avg # of iterations =  6.0

     negative rho (up, down):  5.002E-01 0.000E+00

     total cpu time spent up to now is        5.7 secs

     total energy              =    -492.57651557 Ry
     Harris-Foulkes estimate   =   -5104.15876249 Ry
     estimated scf accuracy    <      18.46424481 Ry

     iteration # 30     ecut=    30.00 Ry     beta=0.70
     Davidson diagonalization with overlap
     ethr =  1.00E-02,  avg # of iterations =  7.0

     negative rho (up, down):  2.134E-01 0.000E+00

     total cpu time spent up to now is        5.8 secs

     total energy              =      78.27103593 Ry
     Harris-Foulkes estimate   =   -5865.26796061 Ry
     estimated scf accuracy    <      16.27579135 Ry

     iteration # 31     ecut=    30.00 Ry     beta=0.70
     Davidson diagonalization with overlap
     ethr =  1.00E-02,  avg # of iterations =  7.0

     negative rho (up, down):  3.205E-01 0.000E+00

     total cpu time spent up to now is        5.9 secs

     total energy              =     173.23052911 Ry
     Harris-Foulkes estimate   =   -3027.79866055 Ry
     estimated scf accuracy    <      29.16160196 Ry

     iteration # 32     ecut=    30.00 Ry     beta=0.70
     Davidson diagonalization with overlap
     ethr =  1.00E-02,  avg # of iterations = 13.0

     negative rho (up, down):  4.596E-02 0.000E+00

     total cpu time spent up to now is        6.0 secs

     total energy              =      32.73367875 Ry
     Harris-Foulkes estimate   =    -991.27459145 Ry
     estimated scf accuracy    <      32.39102115 Ry

     iteration # 33     ecut=    30.00 Ry     beta=0.70
     Davidson diagonalization with overlap
     ethr =  1.00E-02,  avg # of iterations =  6.0

     negative rho (up, down):  6.706E-02 0.000E+00

     total cpu time spent up to now is        6.1 secs

     total energy              =      59.91036635 Ry
     Harris-Foulkes estimate   =    -480.51426557 Ry
     estimated scf accuracy    <      15.21483779 Ry

     iteration # 34     ecut=    30.00 Ry     beta=0.70
     Davidson diagonalization with overlap
     ethr =  1.00E-02,  avg # of iterations =  4.0

     negative rho (up, down):  1.137E-01 0.000E+00

     total cpu time spent up to now is        6.1 secs

     total energy              =      44.96275133 Ry
     Harris-Foulkes estimate   =    -692.19838485 Ry
     estimated scf accuracy    <      20.18360180 Ry

     iteration # 35     ecut=    30.00 Ry     beta=0.70
     Davidson diagonalization with overlap
     ethr =  1.00E-02,  avg # of iterations =  4.0

     negative rho (up, down):  9.862E-02 0.000E+00

     total cpu time spent up to now is        6.2 secs

     total energy              =      87.00083438 Ry
     Harris-Foulkes estimate   =    -401.23888922 Ry
     estimated scf accuracy    <      35.88783208 Ry

     iteration # 36     ecut=    30.00 Ry     beta=0.70
     Davidson diagonalization with overlap
     ethr =  1.00E-02,  avg # of iterations =  7.0

     negative rho (up, down):  6.518E-02 0.000E+00

     total cpu time spent up to now is        6.3 secs

     total energy              =      20.22295761 Ry
     Harris-Foulkes estimate   =    -122.99749680 Ry
     estimated scf accuracy    <      23.20784380 Ry

     iteration # 37     ecut=    30.00 Ry     beta=0.70
     Davidson diagonalization with overlap
     ethr =  1.00E-02,  avg # of iterations =  5.0

     negative rho (up, down):  2.090E-02 0.000E+00

     total cpu time spent up to now is        6.3 secs

     total energy              =     -10.88750912 Ry
     Harris-Foulkes estimate   =   -1494.09636051 Ry
     estimated scf accuracy    <      26.02892800 Ry

     iteration # 38     ecut=    30.00 Ry     beta=0.70
     Davidson diagonalization with overlap
     ethr =  1.00E-02,  avg # of iterations =  8.0

     negative rho (up, down):  1.516E-02 0.000E+00

     total cpu time spent up to now is        6.4 secs

     total energy              =     -66.69891794 Ry
     Harris-Foulkes estimate   =     -66.10349772 Ry
     estimated scf accuracy    <      48.32462173 Ry

     iteration # 39     ecut=    30.00 Ry     beta=0.70
     Davidson diagonalization with overlap
     ethr =  1.00E-02,  avg # of iterations =  1.0

     negative rho (up, down):  1.390E-02 0.000E+00

     total cpu time spent up to now is        6.5 secs

     total energy              =    -109.23105152 Ry
     Harris-Foulkes estimate   =     -66.69961082 Ry
     estimated scf accuracy    <      49.12236991 Ry

     iteration # 40     ecut=    30.00 Ry     beta=0.70
     Davidson diagonalization with overlap
     ethr =  1.00E-02,  avg # of iterations =  6.0

     negative rho (up, down):  3.385E-02 0.000E+00

     total cpu time spent up to now is        6.5 secs

     total energy              =      18.61448311 Ry
     Harris-Foulkes estimate   =    -229.00586199 Ry
     estimated scf accuracy    <      38.46746550 Ry

     iteration # 41     ecut=    30.00 Ry     beta=0.70
     Davidson diagonalization with overlap
     ethr =  1.00E-02,  avg # of iterations = 10.0

     negative rho (up, down):  3.372E-02 0.000E+00

     total cpu time spent up to now is        6.6 secs

     total energy              =      25.16257214 Ry
     Harris-Foulkes estimate   =    -172.66457460 Ry
     estimated scf accuracy    <      28.69015322 Ry

     iteration # 42     ecut=    30.00 Ry     beta=0.70
     Davidson diagonalization with overlap
     ethr =  1.00E-02,  avg # of iterations =  5.0

     negative rho (up, down):  1.681E-01 0.000E+00

     total cpu time spent up to now is        6.7 secs

     total energy              =    -260.01683111 Ry
     Harris-Foulkes estimate   =    -339.62331656 Ry
     estimated scf accuracy    <      44.34634773 Ry

     iteration # 43     ecut=    30.00 Ry     beta=0.70
     Davidson diagonalization with overlap
     ethr =  1.00E-02,  avg # of iterations =  7.0

     negative rho (up, down):  3.871E-01 0.000E+00

     total cpu time spent up to now is        6.8 secs

     total energy              =    -124.67809214 Ry
     Harris-Foulkes estimate   =   -1174.50337925 Ry
     estimated scf accuracy    <      48.35480029 Ry

     iteration # 44     ecut=    30.00 Ry     beta=0.70
     Davidson diagonalization with overlap
     ethr =  1.00E-02,  avg # of iterations = 10.0

     negative rho (up, down):  4.296E-01 0.000E+00

     total cpu time spent up to now is        6.9 secs

     total energy              =      53.77472195 Ry
     Harris-Foulkes estimate   =   -2926.62250676 Ry
     estimated scf accuracy    <      30.96951144 Ry

     iteration # 45     ecut=    30.00 Ry     beta=0.70
     Davidson diagonalization with overlap
     ethr =  1.00E-02,  avg # of iterations =  8.0

     negative rho (up, down):  5.865E-01 0.000E+00

     total cpu time spent up to now is        7.0 secs

     total energy              =    -116.77121403 Ry
     Harris-Foulkes estimate   =   -1937.25335699 Ry
     estimated scf accuracy    <      38.94282331 Ry

     iteration # 46     ecut=    30.00 Ry     beta=0.70
     Davidson diagonalization with overlap
     ethr =  1.00E-02,  avg # of iterations =  8.0

     negative rho (up, down):  1.292E+00 0.000E+00

     total cpu time spent up to now is        7.1 secs

     total energy              =    -298.72133208 Ry
     Harris-Foulkes estimate   =   -3124.36377218 Ry
     estimated scf accuracy    <      39.85961644 Ry

     iteration # 47     ecut=    30.00 Ry     beta=0.70
     Davidson diagonalization with overlap
     ethr =  1.00E-02,  avg # of iterations =  8.0

     negative rho (up, down):  5.406E-01 0.000E+00

     total cpu time spent up to now is        7.2 secs

     total energy              =     206.33242908 Ry
     Harris-Foulkes estimate   =   -2659.77745466 Ry
     estimated scf accuracy    <      28.15612977 Ry

     iteration # 48     ecut=    30.00 Ry     beta=0.70
     Davidson diagonalization with overlap
     ethr =  1.00E-02,  avg # of iterations =  9.0

     negative rho (up, down):  5.407E-01 0.000E+00

     total cpu time spent up to now is        7.3 secs

     total energy              =   -2207.69318762 Ry
     Harris-Foulkes estimate   =    -557.88334328 Ry
     estimated scf accuracy    <      21.77209986 Ry

     iteration # 49     ecut=    30.00 Ry     beta=0.70
     Davidson diagonalization with overlap
     ethr =  1.00E-02,  avg # of iterations =  7.0

     negative rho (up, down):  4.980E-01 0.000E+00

     total cpu time spent up to now is        7.4 secs

     total energy              =     -85.42359183 Ry
     Harris-Foulkes estimate   =  -25306.56193751 Ry
     estimated scf accuracy    <      39.02494932 Ry

     iteration # 50     ecut=    30.00 Ry     beta=0.70
     Davidson diagonalization with overlap
     ethr =  1.00E-02,  avg # of iterations =  6.0

     negative rho (up, down):  5.908E-01 0.000E+00

     total cpu time spent up to now is        7.4 secs

     total energy              =     -93.13605117 Ry
     Harris-Foulkes estimate   =   -2563.69653981 Ry
     estimated scf accuracy    <      34.76603217 Ry

     iteration # 51     ecut=    30.00 Ry     beta=0.70
     Davidson diagonalization with overlap
     ethr =  1.00E-02,  avg # of iterations =  9.0

     negative rho (up, down):  5.466E-01 0.000E+00

     total cpu time spent up to now is        7.5 secs

     total energy              =      88.45762167 Ry
     Harris-Foulkes estimate   =   -1288.50757233 Ry
     estimated scf accuracy    <      30.62130377 Ry

     iteration # 52     ecut=    30.00 Ry     beta=0.70
     Davidson diagonalization with overlap
     ethr =  1.00E-02,  avg # of iterations =  8.0

     negative rho (up, down):  4.033E-01 0.000E+00

     total cpu time spent up to now is        7.6 secs

     total energy              =      45.28573003 Ry
     Harris-Foulkes estimate   =    -420.80507586 Ry
     estimated scf accuracy    <      20.71171761 Ry

     iteration # 53     ecut=    30.00 Ry     beta=0.70
     Davidson diagonalization with overlap
     ethr =  1.00E-02,  avg # of iterations =  9.0

     negative rho (up, down):  4.147E-01 0.000E+00

     total cpu time spent up to now is        7.7 secs

     total energy              =       4.61215371 Ry
     Harris-Foulkes estimate   =   -1852.74187112 Ry
     estimated scf accuracy    <      26.99079288 Ry

     iteration # 54     ecut=    30.00 Ry     beta=0.70
     Davidson diagonalization with overlap
     ethr =  1.00E-02,  avg # of iterations = 10.0

     negative rho (up, down):  4.672E-01 0.000E+00

     total cpu time spent up to now is        7.8 secs

     total energy              =     -17.47499548 Ry
     Harris-Foulkes estimate   =    -853.54516627 Ry
     estimated scf accuracy    <      20.58567763 Ry

     iteration # 55     ecut=    30.00 Ry     beta=0.70
     Davidson diagonalization with overlap
     ethr =  1.00E-02,  avg # of iterations =  8.0

     negative rho (up, down):  4.508E-02 0.000E+00

     total cpu time spent up to now is        7.9 secs

     total energy              =     103.32397632 Ry
     Harris-Foulkes estimate   =   -2649.88312320 Ry
     estimated scf accuracy    <      21.41828997 Ry

     iteration # 56     ecut=    30.00 Ry     beta=0.70
     Davidson diagonalization with overlap
     ethr =  1.00E-02,  avg # of iterations =  7.0

     negative rho (up, down):  7.551E-02 0.000E+00

     total cpu time spent up to now is        8.0 secs

     total energy              =      75.52792106 Ry
     Harris-Foulkes estimate   =    -498.06288563 Ry
     estimated scf accuracy    <      31.58401811 Ry

     iteration # 57     ecut=    30.00 Ry     beta=0.70
     Davidson diagonalization with overlap
     ethr =  1.00E-02,  avg # of iterations =  5.0

     negative rho (up, down):  1.068E-01 0.000E+00

     total cpu time spent up to now is        8.1 secs

     total energy              =      -1.03574889 Ry
     Harris-Foulkes estimate   =    -114.52563904 Ry
     estimated scf accuracy    <      21.51572427 Ry

     iteration # 58     ecut=    30.00 Ry     beta=0.70
     Davidson diagonalization with overlap
     ethr =  1.00E-02,  avg # of iterations =  8.0

     negative rho (up, down):  5.161E-02 0.000E+00

     total cpu time spent up to now is        8.2 secs

     total energy              =       9.27155408 Ry
     Harris-Foulkes estimate   =    -111.51073339 Ry
     estimated scf accuracy    <      20.98019312 Ry

     iteration # 59     ecut=    30.00 Ry     beta=0.70
     Davidson diagonalization with overlap
     ethr =  1.00E-02,  avg # of iterations =  6.0

     negative rho (up, down):  3.007E-01 0.000E+00

     total cpu time spent up to now is        8.3 secs

     total energy              =     -27.10509142 Ry
     Harris-Foulkes estimate   =    -153.07568267 Ry
     estimated scf accuracy    <      17.19860608 Ry

     iteration # 60     ecut=    30.00 Ry     beta=0.70
     Davidson diagonalization with overlap
     ethr =  1.00E-02,  avg # of iterations =  4.0

     negative rho (up, down):  3.515E-01 0.000E+00

     total cpu time spent up to now is        8.3 secs

     total energy              =      40.43102205 Ry
     Harris-Foulkes estimate   =    -990.54707682 Ry
     estimated scf accuracy    <      22.12145897 Ry

     iteration # 61     ecut=    30.00 Ry     beta=0.70
     Davidson diagonalization with overlap
     ethr =  1.00E-02,  avg # of iterations =  6.0

     negative rho (up, down):  3.098E-01 0.000E+00

     total cpu time spent up to now is        8.4 secs

     total energy              =      29.74156595 Ry
     Harris-Foulkes estimate   =    -722.52079740 Ry
     estimated scf accuracy    <      35.06790918 Ry

     iteration # 62     ecut=    30.00 Ry     beta=0.70
     Davidson diagonalization with overlap
     ethr =  1.00E-02,  avg # of iterations =  6.0

     negative rho (up, down):  5.116E-03 0.000E+00

     total cpu time spent up to now is        8.5 secs

     total energy              =      65.37669985 Ry
     Harris-Foulkes estimate   =   -2884.12097713 Ry
     estimated scf accuracy    <      17.76366854 Ry

     iteration # 63     ecut=    30.00 Ry     beta=0.70
     Davidson diagonalization with overlap
     ethr =  1.00E-02,  avg # of iterations =  6.0

     negative rho (up, down):  4.726E-03 0.000E+00

     total cpu time spent up to now is        8.6 secs

     total energy              =     -34.81311171 Ry
     Harris-Foulkes estimate   =     -36.47098026 Ry
     estimated scf accuracy    <       6.37254665 Ry

     iteration # 64     ecut=    30.00 Ry     beta=0.70
     Davidson diagonalization with overlap
     ethr =  1.00E-02,  avg # of iterations =  3.0

     negative rho (up, down):  3.934E-02 0.000E+00

     total cpu time spent up to now is        8.6 secs

     total energy              =     -33.32845977 Ry
     Harris-Foulkes estimate   =     -40.68918421 Ry
     estimated scf accuracy    <       5.59883226 Ry

     iteration # 65     ecut=    30.00 Ry     beta=0.70
     Davidson diagonalization with overlap
     ethr =  1.00E-02,  avg # of iterations =  4.0

     negative rho (up, down):  2.510E-02 0.000E+00

     total cpu time spent up to now is        8.7 secs

     total energy              =      23.68665137 Ry
     Harris-Foulkes estimate   =    -395.50266051 Ry
     estimated scf accuracy    <      13.79326064 Ry

     iteration # 66     ecut=    30.00 Ry     beta=0.70
     Davidson diagonalization with overlap
     ethr =  1.00E-02,  avg # of iterations =  5.0

     negative rho (up, down):  5.184E-02 0.000E+00

     total cpu time spent up to now is        8.8 secs

     total energy              =     -15.49021128 Ry
     Harris-Foulkes estimate   =    -373.19065344 Ry
     estimated scf accuracy    <       9.63803900 Ry

     iteration # 67     ecut=    30.00 Ry     beta=0.70
     Davidson diagonalization with overlap
     ethr =  1.00E-02,  avg # of iterations =  4.0

     negative rho (up, down):  3.498E-02 0.000E+00

     total cpu time spent up to now is        8.9 secs

     total energy              =      33.99033671 Ry
     Harris-Foulkes estimate   =   -2097.57346105 Ry
     estimated scf accuracy    <      32.39596188 Ry

     iteration # 68     ecut=    30.00 Ry     beta=0.70
     Davidson diagonalization with overlap
     ethr =  1.00E-02,  avg # of iterations =  4.0

     negative rho (up, down):  4.939E-06 0.000E+00

     total cpu time spent up to now is        8.9 secs

     total energy              =       4.13581350 Ry
     Harris-Foulkes estimate   =    -132.07192172 Ry
     estimated scf accuracy    <      12.60346886 Ry

     iteration # 69     ecut=    30.00 Ry     beta=0.70
     Davidson diagonalization with overlap
     ethr =  1.00E-02,  avg # of iterations =  4.0

     negative rho (up, down):  3.626E-03 0.000E+00

     total cpu time spent up to now is        9.0 secs

     total energy              =     -32.42370336 Ry
     Harris-Foulkes estimate   =     -33.41930830 Ry
     estimated scf accuracy    <       4.50541206 Ry

     iteration # 70     ecut=    30.00 Ry     beta=0.70
     Davidson diagonalization with overlap
     ethr =  1.00E-02,  avg # of iterations =  1.0

     negative rho (up, down):  1.089E-02 0.000E+00

     total cpu time spent up to now is        9.0 secs

     total energy              =     -31.63590554 Ry
     Harris-Foulkes estimate   =     -32.44745645 Ry
     estimated scf accuracy    <       2.82339417 Ry

     iteration # 71     ecut=    30.00 Ry     beta=0.70
     Davidson diagonalization with overlap
     ethr =  1.00E-02,  avg # of iterations =  1.0

     negative rho (up, down):  1.697E-02 0.000E+00

     total cpu time spent up to now is        9.1 secs

     total energy              =     -33.24802182 Ry
     Harris-Foulkes estimate   =     -32.48727159 Ry
     estimated scf accuracy    <       2.54232072 Ry

     iteration # 72     ecut=    30.00 Ry     beta=0.70
     Davidson diagonalization with overlap
     ethr =  1.00E-02,  avg # of iterations =  3.0

     negative rho (up, down):  5.738E-05 0.000E+00

     total cpu time spent up to now is        9.2 secs

     total energy              =     -19.05054142 Ry
     Harris-Foulkes estimate   =     -39.46779982 Ry
     estimated scf accuracy    <       5.26211971 Ry

     iteration # 73     ecut=    30.00 Ry     beta=0.70
     Davidson diagonalization with overlap
     ethr =  1.00E-02,  avg # of iterations =  4.0

     negative rho (up, down):  1.525E-02 0.000E+00

     total cpu time spent up to now is        9.2 secs

     total energy              =     -33.54069875 Ry
     Harris-Foulkes estimate   =     -32.39261123 Ry
     estimated scf accuracy    <       2.30738915 Ry

     iteration # 74     ecut=    30.00 Ry     beta=0.70
     Davidson diagonalization with overlap
     ethr =  1.00E-02,  avg # of iterations =  4.0

     negative rho (up, down):  1.565E-02 0.000E+00

     total cpu time spent up to now is        9.3 secs

     total energy              =      -0.83864031 Ry
     Harris-Foulkes estimate   =     -58.06804967 Ry
     estimated scf accuracy    <      13.19889545 Ry

     iteration # 75     ecut=    30.00 Ry     beta=0.70
     Davidson diagonalization with overlap
     ethr =  1.00E-02,  avg # of iterations =  5.0

     negative rho (up, down):  1.432E-02 0.000E+00

     total cpu time spent up to now is        9.3 secs

     total energy              =     -31.32368369 Ry
     Harris-Foulkes estimate   =     -32.94795199 Ry
     estimated scf accuracy    <       2.02775231 Ry

     iteration # 76     ecut=    30.00 Ry     beta=0.70
     Davidson diagonalization with overlap
     ethr =  1.00E-02,  avg # of iterations =  4.0

     negative rho (up, down):  2.402E-02 0.000E+00

     total cpu time spent up to now is        9.4 secs

     total energy              =     -30.32004486 Ry
     Harris-Foulkes estimate   =     -40.07719142 Ry
     estimated scf accuracy    <       6.01018402 Ry

     iteration # 77     ecut=    30.00 Ry     beta=0.70
     Davidson diagonalization with overlap
     ethr =  1.00E-02,  avg # of iterations =  4.0

     negative rho (up, down):  2.711E-02 0.000E+00

     total cpu time spent up to now is        9.5 secs

     total energy              =    -132.74781957 Ry
     Harris-Foulkes estimate   =    -183.52680388 Ry
     estimated scf accuracy    <      13.39851784 Ry

     iteration # 78     ecut=    30.00 Ry     beta=0.70
     Davidson diagonalization with overlap
     ethr =  1.00E-02,  avg # of iterations =  3.0

     negative rho (up, down):  1.916E-02 0.000E+00

     total cpu time spent up to now is        9.5 secs

     total energy              =    -236.91449471 Ry
     Harris-Foulkes estimate   =    -243.42314509 Ry
     estimated scf accuracy    <      11.95979447 Ry

     iteration # 79     ecut=    30.00 Ry     beta=0.70
     Davidson diagonalization with overlap
     ethr =  1.00E-02,  avg # of iterations =  4.0

     negative rho (up, down):  4.565E-02 0.000E+00

     total cpu time spent up to now is        9.6 secs

     total energy              =      50.05991273 Ry
     Harris-Foulkes estimate   =    -620.04747853 Ry
     estimated scf accuracy    <      23.69151861 Ry

     iteration # 80     ecut=    30.00 Ry     beta=0.70
     Davidson diagonalization with overlap
     ethr =  1.00E-02,  avg # of iterations =  4.0

     negative rho (up, down):  1.679E-01 0.000E+00

     total cpu time spent up to now is        9.7 secs

     total energy              =    -234.30196248 Ry
     Harris-Foulkes estimate   =    -107.96031029 Ry
     estimated scf accuracy    <      17.97165229 Ry

     iteration # 81     ecut=    30.00 Ry     beta=0.70
     Davidson diagonalization with overlap
     ethr =  1.00E-02,  avg # of iterations =  5.0

     negative rho (up, down):  1.682E-01 0.000E+00

     total cpu time spent up to now is        9.7 secs

     total energy              =      85.13634238 Ry
     Harris-Foulkes estimate   =   -1482.76478572 Ry
     estimated scf accuracy    <      35.59261647 Ry

     iteration # 82     ecut=    30.00 Ry     beta=0.70
     Davidson diagonalization with overlap
     ethr =  1.00E-02,  avg # of iterations =  6.0

     negative rho (up, down):  1.831E-01 0.000E+00

     total cpu time spent up to now is        9.8 secs

     total energy              =     -70.33434708 Ry
     Harris-Foulkes estimate   =    -132.04755137 Ry
     estimated scf accuracy    <      13.17352023 Ry

     iteration # 83     ecut=    30.00 Ry     beta=0.70
     Davidson diagonalization with overlap
     ethr =  1.00E-02,  avg # of iterations =  4.0

     negative rho (up, down):  1.963E-01 0.000E+00

     total cpu time spent up to now is        9.9 secs

     total energy              =    -276.75313213 Ry
     Harris-Foulkes estimate   =   -1571.25904965 Ry
     estimated scf accuracy    <      12.22672635 Ry

     iteration # 84     ecut=    30.00 Ry     beta=0.70
     Davidson diagonalization with overlap
     ethr =  1.00E-02,  avg # of iterations =  9.0

     negative rho (up, down):  5.434E-01 0.000E+00

     total cpu time spent up to now is       10.0 secs

     total energy              =   -1707.25436920 Ry
     Harris-Foulkes estimate   =   -1743.26117505 Ry
     estimated scf accuracy    <      37.11067851 Ry

     iteration # 85     ecut=    30.00 Ry     beta=0.70
     Davidson diagonalization with overlap
     ethr =  1.00E-02,  avg # of iterations =  6.0

     negative rho (up, down):  1.039E+00 0.000E+00

     total cpu time spent up to now is       10.0 secs

     total energy              =   -3334.26605360 Ry
     Harris-Foulkes estimate   =   -4388.94345129 Ry
     estimated scf accuracy    <      42.41773927 Ry

     iteration # 86     ecut=    30.00 Ry     beta=0.70
     Davidson diagonalization with overlap
     ethr =  1.00E-02,  avg # of iterations = 10.0

     negative rho (up, down):  1.213E+00 0.000E+00

     total cpu time spent up to now is       10.1 secs

     total energy              =   -7308.52350892 Ry
     Harris-Foulkes estimate   =   -6496.34344314 Ry
     estimated scf accuracy    <      33.85090713 Ry

     iteration # 87     ecut=    30.00 Ry     beta=0.70
     Davidson diagonalization with overlap
     ethr =  1.00E-02,  avg # of iterations =  7.0

     negative rho (up, down):  1.301E+00 0.000E+00

     total cpu time spent up to now is       10.2 secs

     total energy              =      66.61161890 Ry
     Harris-Foulkes estimate   =  -18625.35052060 Ry
     estimated scf accuracy    <      29.09467027 Ry

     iteration # 88     ecut=    30.00 Ry     beta=0.70
     Davidson diagonalization with overlap
     ethr =  1.00E-02,  avg # of iterations =  8.0

     negative rho (up, down):  1.236E+00 0.000E+00

     total cpu time spent up to now is       10.3 secs

     total energy              =     121.79918265 Ry
     Harris-Foulkes estimate   =   -1222.66959316 Ry
     estimated scf accuracy    <      25.65179978 Ry

     iteration # 89     ecut=    30.00 Ry     beta=0.70
     Davidson diagonalization with overlap
     ethr =  1.00E-02,  avg # of iterations = 11.0

     negative rho (up, down):  1.241E+00 0.000E+00

     total cpu time spent up to now is       10.4 secs

     total energy              =       8.24454059 Ry
     Harris-Foulkes estimate   =    -260.46394964 Ry
     estimated scf accuracy    <      32.79286020 Ry

     iteration # 90     ecut=    30.00 Ry     beta=0.70
     Davidson diagonalization with overlap
     ethr =  1.00E-02,  avg # of iterations =  7.0

     negative rho (up, down):  1.224E+00 0.000E+00

     total cpu time spent up to now is       10.5 secs

     total energy              =    -121.99889181 Ry
     Harris-Foulkes estimate   =    -190.56219501 Ry
     estimated scf accuracy    <      31.78024732 Ry

     iteration # 91     ecut=    30.00 Ry     beta=0.70
     Davidson diagonalization with overlap
     ethr =  1.00E-02,  avg # of iterations =  6.0

     negative rho (up, down):  1.156E+00 0.000E+00

     total cpu time spent up to now is       10.6 secs

     total energy              =    -271.21647824 Ry
     Harris-Foulkes estimate   =   -6368.38760708 Ry
     estimated scf accuracy    <      22.67049908 Ry

     iteration # 92     ecut=    30.00 Ry     beta=0.70
     Davidson diagonalization with overlap
     ethr =  1.00E-02,  avg # of iterations =  9.0

     negative rho (up, down):  4.978E-01 0.000E+00

     total cpu time spent up to now is       10.7 secs

     total energy              =      91.89339113 Ry
     Harris-Foulkes estimate   =   -4060.18269220 Ry
     estimated scf accuracy    <      23.33541577 Ry

     iteration # 93     ecut=    30.00 Ry     beta=0.70
     Davidson diagonalization with overlap
     ethr =  1.00E-02,  avg # of iterations =  7.0

     negative rho (up, down):  9.418E-02 0.000E+00

     total cpu time spent up to now is       10.8 secs

     total energy              =      96.04794418 Ry
     Harris-Foulkes estimate   =    -272.92168292 Ry
     estimated scf accuracy    <      27.69078767 Ry

     iteration # 94     ecut=    30.00 Ry     beta=0.70
     Davidson diagonalization with overlap
     ethr =  1.00E-02,  avg # of iterations =  7.0

     negative rho (up, down):  2.897E-01 0.000E+00

     total cpu time spent up to now is       10.8 secs

     total energy              =      87.18614607 Ry
     Harris-Foulkes estimate   =    -570.39639910 Ry
     estimated scf accuracy    <      21.36002823 Ry

     iteration # 95     ecut=    30.00 Ry     beta=0.70
     Davidson diagonalization with overlap
     ethr =  1.00E-02,  avg # of iterations =  7.0

     negative rho (up, down):  3.516E-01 0.000E+00

     total cpu time spent up to now is       10.9 secs

     total energy              =      48.34423772 Ry
     Harris-Foulkes estimate   =    -414.24109172 Ry
     estimated scf accuracy    <      29.55644545 Ry

     iteration # 96     ecut=    30.00 Ry     beta=0.70
     Davidson diagonalization with overlap
     ethr =  1.00E-02,  avg # of iterations =  5.0

     negative rho (up, down):  3.480E-01 0.000E+00

     total cpu time spent up to now is       11.0 secs

     total energy              =       9.48461938 Ry
     Harris-Foulkes estimate   =   -1206.05770748 Ry
     estimated scf accuracy    <      16.55047164 Ry

     iteration # 97     ecut=    30.00 Ry     beta=0.70
     Davidson diagonalization with overlap
     ethr =  1.00E-02,  avg # of iterations =  6.0

     negative rho (up, down):  3.135E-01 0.000E+00

     total cpu time spent up to now is       11.1 secs

     total energy              =      56.64718459 Ry
     Harris-Foulkes estimate   =   -1744.84289722 Ry
     estimated scf accuracy    <      26.93247096 Ry

     iteration # 98     ecut=    30.00 Ry     beta=0.70
     Davidson diagonalization with overlap
     ethr =  1.00E-02,  avg # of iterations =  7.0

     negative rho (up, down):  2.613E-01 0.000E+00

     total cpu time spent up to now is       11.2 secs

     total energy              =      34.46161192 Ry
     Harris-Foulkes estimate   =    -504.60221872 Ry
     estimated scf accuracy    <      36.50946524 Ry

     iteration # 99     ecut=    30.00 Ry     beta=0.70
     Davidson diagonalization with overlap
     ethr =  1.00E-02,  avg # of iterations =  9.0

     negative rho (up, down):  3.200E-02 0.000E+00

     total cpu time spent up to now is       11.3 secs

     total energy              =     -14.59137466 Ry
     Harris-Foulkes estimate   =    -211.23307220 Ry
     estimated scf accuracy    <      16.85298599 Ry

     iteration #100     ecut=    30.00 Ry     beta=0.70
     Davidson diagonalization with overlap
     ethr =  1.00E-02,  avg # of iterations =  6.0

     negative rho (up, down):  6.317E-02 0.000E+00

     total cpu time spent up to now is       11.3 secs

     total energy              =      82.85448954 Ry
     Harris-Foulkes estimate   =    -813.04580824 Ry
     estimated scf accuracy    <      21.25689864 Ry

     End of self-consistent calculation

     convergence NOT achieved after 100 iterations: stopping

     Writing output data file pwscf.save
 
     init_run     :      0.24s CPU      0.27s WALL (       1 calls)
     electrons    :      8.47s CPU      9.73s WALL (       2 calls)
     update_pot   :      0.23s CPU      0.27s WALL (       1 calls)
     forces       :      0.10s CPU      0.11s WALL (       1 calls)

     Called by init_run:
     wfcinit      :      0.01s CPU      0.02s WALL (       1 calls)
     potinit      :      0.06s CPU      0.07s WALL (       1 calls)

     Called by electrons:
     c_bands      :      5.23s CPU      5.42s WALL (     108 calls)
     sum_band     :      0.64s CPU      0.67s WALL (     108 calls)
     v_of_rho     :      1.51s CPU      1.57s WALL (     110 calls)
     mix_rho      :      0.87s CPU      1.64s WALL (     108 calls)

     Called by c_bands:
     init_us_2    :      0.02s CPU      0.02s WALL (     217 calls)
     cegterg      :      5.20s CPU      5.36s WALL (     108 calls)

     Called by sum_band:

     Called by *egterg:
     h_psi        :      4.24s CPU      4.36s WALL (     784 calls)
     g_psi        :      0.05s CPU      0.05s WALL (     675 calls)
     cdiaghg      :      0.40s CPU      0.42s WALL (     782 calls)

     Called by h_psi:
     h_psi:pot    :      4.22s CPU      4.33s WALL (     784 calls)
     h_psi:calbec :      0.12s CPU      0.14s WALL (     784 calls)
     vloc_psi     :      4.09s CPU      4.17s WALL (     784 calls)
     add_vuspsi   :      0.01s CPU      0.01s WALL (     784 calls)

     General routines
     calbec       :      0.14s CPU      0.17s WALL (     788 calls)
     fft          :      0.95s CPU      0.99s WALL (    1212 calls)
     fftw         :      4.18s CPU      4.27s WALL (    9548 calls)
     davcio       :      0.13s CPU      0.66s WALL (    1998 calls)
 
     Parallel routines
     fft_scatter  :      1.80s CPU      1.89s WALL (   10760 calls)
 
     PWSCF        :     9.35s CPU        11.46s WALL

 
   This run was terminated on:  15:42:24  13Feb2018            

=------------------------------------------------------------------------------=
   JOB DONE.
=------------------------------------------------------------------------------=
