
     Program PWSCF v.6.0 (svn rev. 13079) starts on 13Feb2018 at 15:57:25 

     This program is part of the open-source Quantum ESPRESSO suite
     for quantum simulation of materials; please cite
         "P. Giannozzi et al., J. Phys.:Condens. Matter 21 395502 (2009);
          URL http://www.quantum-espresso.org", 
     in publications or presentations arising from this work. More details at
     http://www.quantum-espresso.org/quote

     Parallel version (MPI), running on    28 processors
     R & G space division:  proc/nbgrp/npool/nimage =      28
     Reading input from inputs/MD-H2O-round1/559.in

     Current dimensions of program PWSCF are:
     Max number of different atomic species (ntypx) = 10
     Max number of k-points (npk) =  40000
     Max angular momentum in pseudopotentials (lmaxx) =  3

     Subspace diagonalization in iterative solution of the eigenvalue problem:
     a serial algorithm will be used

 
     Parallelization info
     --------------------
     sticks:   dense  smooth     PW     G-vecs:    dense   smooth      PW
     Min         136     136     33                 6338     6338     787
     Max         137     137     34                 6341     6341     792
     Sum        3809    3809    949               177509   177509   22119
 


     bravais-lattice index     =            1
     lattice parameter (alat)  =      20.0000  a.u.
     unit-cell volume          =    8000.0000 (a.u.)^3
     number of atoms/cell      =            3
     number of atomic types    =            2
     number of electrons       =         8.00
     number of Kohn-Sham states=            8
     kinetic-energy cutoff     =      30.0000  Ry
     charge density cutoff     =     120.0000  Ry
     convergence threshold     =      1.0E-08
     mixing beta               =       0.7000
     number of iterations used =            8  plain     mixing
     Exchange-correlation      = BLYP ( 1  3  1  3 0 0)
     nstep                     =         5000


     celldm(1)=  20.000000  celldm(2)=   0.000000  celldm(3)=   0.000000
     celldm(4)=   0.000000  celldm(5)=   0.000000  celldm(6)=   0.000000

     crystal axes: (cart. coord. in units of alat)
               a(1) = (   1.000000   0.000000   0.000000 )  
               a(2) = (   0.000000   1.000000   0.000000 )  
               a(3) = (   0.000000   0.000000   1.000000 )  

     reciprocal axes: (cart. coord. in units 2 pi/alat)
               b(1) = (  1.000000  0.000000  0.000000 )  
               b(2) = (  0.000000  1.000000  0.000000 )  
               b(3) = (  0.000000  0.000000  1.000000 )  


     PseudoPot. # 1 for  H read from file:
     ./H.blyp-hgh.UPF
     MD5 check sum: c576e69559cde411e611be972c763230
     Pseudo is Norm-conserving, Zval =  1.0
     Generated in analytical, separable form
     Using radial grid of  929 points,  0 beta functions with: 

     PseudoPot. # 2 for  O read from file:
     ./O.blyp-hgh.UPF
     MD5 check sum: d0b7156309aa9befef28faac7bc56342
     Pseudo is Norm-conserving, Zval =  6.0
     Generated in analytical, separable form
     Using radial grid of 1095 points,  1 beta functions with: 
                l(1) =   0

     atomic species   valence    mass     pseudopotential
        H              1.00     1.01000      H( 1.00)
        O              6.00    16.00000      O( 1.00)

     No symmetry found



   Cartesian axes

     site n.     atom                  positions (alat units)
         1           O   tau(   1) = (   0.2247565   0.1146037   0.1964540  )
         2           H   tau(   2) = (   0.2983196   0.1169398   0.2312654  )
         3           H   tau(   3) = (   0.4953018   0.8035740   0.0127342  )

     number of k points=     1  Marzari-Vanderbilt smearing, width (Ry)=  0.0250
                       cart. coord. in units 2pi/alat
        k(    1) = (   0.0000000   0.0000000   0.0000000), wk =   2.0000000

     Dense  grid:   177509 G-vectors     FFT dimensions: (  72,  72,  72)

     Estimated max dynamical RAM per process >       6.09Mb

     Estimated total allocated dynamical RAM >     170.64Mb

     Initial potential from superposition of free atoms
     Check: negative starting charge=   -0.348764

     starting charge    7.99998, renormalised to    8.00000

     negative rho (up, down):  3.488E-01 0.000E+00
     Starting wfc are    6 randomized atomic wfcs +    2 random wfc

     total cpu time spent up to now is        0.3 secs

     per-process dynamical memory:    18.8 Mb

     Self-consistent Calculation

     iteration #  1     ecut=    30.00 Ry     beta=0.70
     Davidson diagonalization with overlap
     ethr =  1.00E-02,  avg # of iterations =  8.0

     negative rho (up, down):  9.371E-02 0.000E+00

     total cpu time spent up to now is        0.4 secs

     total energy              =     -31.64132342 Ry
     Harris-Foulkes estimate   =     -32.08507227 Ry
     estimated scf accuracy    <       0.45456922 Ry

     iteration #  2     ecut=    30.00 Ry     beta=0.70
     Davidson diagonalization with overlap
     ethr =  5.68E-03,  avg # of iterations =  2.0

     negative rho (up, down):  7.379E-02 0.000E+00

     total cpu time spent up to now is        0.5 secs

     total energy              =     -31.66173723 Ry
     Harris-Foulkes estimate   =     -32.20739115 Ry
     estimated scf accuracy    <       1.93207199 Ry

     iteration #  3     ecut=    30.00 Ry     beta=0.70
     Davidson diagonalization with overlap
     ethr =  5.68E-03,  avg # of iterations =  2.0

     negative rho (up, down):  2.832E-02 0.000E+00

     total cpu time spent up to now is        0.5 secs

     total energy              =     -31.70939174 Ry
     Harris-Foulkes estimate   =     -31.87709402 Ry
     estimated scf accuracy    <       1.07962455 Ry

     iteration #  4     ecut=    30.00 Ry     beta=0.70
     Davidson diagonalization with overlap
     ethr =  5.68E-03,  avg # of iterations =  1.0

     negative rho (up, down):  8.668E-03 0.000E+00

     total cpu time spent up to now is        0.6 secs

     total energy              =     -31.70489548 Ry
     Harris-Foulkes estimate   =     -31.93065411 Ry
     estimated scf accuracy    <       1.32293360 Ry

     iteration #  5     ecut=    30.00 Ry     beta=0.70
     Davidson diagonalization with overlap
     ethr =  5.68E-03,  avg # of iterations =  1.0

     negative rho (up, down):  8.223E-04 0.000E+00

     total cpu time spent up to now is        0.6 secs

     total energy              =     -31.87320195 Ry
     Harris-Foulkes estimate   =     -31.95286932 Ry
     estimated scf accuracy    <       0.97415715 Ry

     iteration #  6     ecut=    30.00 Ry     beta=0.70
     Davidson diagonalization with overlap
     ethr =  5.68E-03,  avg # of iterations =  1.0

     negative rho (up, down):  6.954E-04 0.000E+00

     total cpu time spent up to now is        0.7 secs

     total energy              =     -31.82608422 Ry
     Harris-Foulkes estimate   =     -31.87419412 Ry
     estimated scf accuracy    <       0.73568765 Ry

     iteration #  7     ecut=    30.00 Ry     beta=0.70
     Davidson diagonalization with overlap
     ethr =  5.68E-03,  avg # of iterations =  1.0

     negative rho (up, down):  2.498E-04 0.000E+00

     total cpu time spent up to now is        0.7 secs

     total energy              =     -31.86437895 Ry
     Harris-Foulkes estimate   =     -31.86464059 Ry
     estimated scf accuracy    <       0.67676182 Ry

     iteration #  8     ecut=    30.00 Ry     beta=0.70
     Davidson diagonalization with overlap
     ethr =  5.68E-03,  avg # of iterations =  1.0

     negative rho (up, down):  1.724E-06 0.000E+00

     total cpu time spent up to now is        0.7 secs

     total energy              =     -31.82944381 Ry
     Harris-Foulkes estimate   =     -31.86440667 Ry
     estimated scf accuracy    <       0.66007805 Ry

     iteration #  9     ecut=    30.00 Ry     beta=0.70
     Davidson diagonalization with overlap
     ethr =  5.68E-03,  avg # of iterations =  1.0

     total cpu time spent up to now is        0.8 secs

     total energy              =     -31.85464136 Ry
     Harris-Foulkes estimate   =     -31.86406732 Ry
     estimated scf accuracy    <       0.45192449 Ry

     iteration # 10     ecut=    30.00 Ry     beta=0.70
     Davidson diagonalization with overlap
     ethr =  5.65E-03,  avg # of iterations =  1.0

     negative rho (up, down):  4.523E-08 0.000E+00

     total cpu time spent up to now is        0.8 secs

     total energy              =     -31.85658133 Ry
     Harris-Foulkes estimate   =     -31.85701277 Ry
     estimated scf accuracy    <       0.08951314 Ry

     iteration # 11     ecut=    30.00 Ry     beta=0.70
     Davidson diagonalization with overlap
     ethr =  1.12E-03,  avg # of iterations =  1.0

     negative rho (up, down):  5.265E-08 0.000E+00

     total cpu time spent up to now is        0.9 secs

     total energy              =     -31.85700040 Ry
     Harris-Foulkes estimate   =     -31.85661598 Ry
     estimated scf accuracy    <       0.06317258 Ry

     iteration # 12     ecut=    30.00 Ry     beta=0.70
     Davidson diagonalization with overlap
     ethr =  7.90E-04,  avg # of iterations =  1.0

     total cpu time spent up to now is        0.9 secs

     total energy              =     -31.85421449 Ry
     Harris-Foulkes estimate   =     -31.85703894 Ry
     estimated scf accuracy    <       0.09100948 Ry

     iteration # 13     ecut=    30.00 Ry     beta=0.70
     Davidson diagonalization with overlap
     ethr =  7.90E-04,  avg # of iterations =  1.0

     total cpu time spent up to now is        1.0 secs

     total energy              =     -31.85573727 Ry
     Harris-Foulkes estimate   =     -31.85573019 Ry
     estimated scf accuracy    <       0.00114048 Ry

     iteration # 14     ecut=    30.00 Ry     beta=0.70
     Davidson diagonalization with overlap
     ethr =  1.43E-05,  avg # of iterations = 11.0

     negative rho (up, down):  1.675E-08 0.000E+00

     total cpu time spent up to now is        1.1 secs

     total energy              =     -31.85571223 Ry
     Harris-Foulkes estimate   =     -31.85573848 Ry
     estimated scf accuracy    <       0.00177513 Ry

     iteration # 15     ecut=    30.00 Ry     beta=0.70
     Davidson diagonalization with overlap
     ethr =  1.43E-05,  avg # of iterations =  1.0

     negative rho (up, down):  2.131E-08 0.000E+00

     total cpu time spent up to now is        1.1 secs

     total energy              =     -31.85571853 Ry
     Harris-Foulkes estimate   =     -31.85571926 Ry
     estimated scf accuracy    <       0.00035783 Ry

     iteration # 16     ecut=    30.00 Ry     beta=0.70
     Davidson diagonalization with overlap
     ethr =  4.47E-06,  avg # of iterations =  1.0

     total cpu time spent up to now is        1.2 secs

     total energy              =     -31.85571372 Ry
     Harris-Foulkes estimate   =     -31.85571860 Ry
     estimated scf accuracy    <       0.00028054 Ry

     iteration # 17     ecut=    30.00 Ry     beta=0.70
     Davidson diagonalization with overlap
     ethr =  3.51E-06,  avg # of iterations =  1.0

     total cpu time spent up to now is        1.2 secs

     total energy              =     -31.85571700 Ry
     Harris-Foulkes estimate   =     -31.85571782 Ry
     estimated scf accuracy    <       0.00000071 Ry

     iteration # 18     ecut=    30.00 Ry     beta=0.70
     Davidson diagonalization with overlap
     ethr =  8.90E-09,  avg # of iterations =  1.0

     total cpu time spent up to now is        1.3 secs

     total energy              =     -31.85571635 Ry
     Harris-Foulkes estimate   =     -31.85571752 Ry
     estimated scf accuracy    <       0.00004758 Ry

     iteration # 19     ecut=    30.00 Ry     beta=0.70
     Davidson diagonalization with overlap
     ethr =  8.90E-09,  avg # of iterations =  1.0

     total cpu time spent up to now is        1.3 secs

     total energy              =     -31.85571647 Ry
     Harris-Foulkes estimate   =     -31.85571664 Ry
     estimated scf accuracy    <       0.00000479 Ry

     iteration # 20     ecut=    30.00 Ry     beta=0.70
     Davidson diagonalization with overlap
     ethr =  8.90E-09,  avg # of iterations =  1.0

     total cpu time spent up to now is        1.3 secs

     total energy              =     -31.85571651 Ry
     Harris-Foulkes estimate   =     -31.85571651 Ry
     estimated scf accuracy    <       0.00000015 Ry

     iteration # 21     ecut=    30.00 Ry     beta=0.70
     Davidson diagonalization with overlap
     ethr =  1.89E-09,  avg # of iterations =  1.0

     total cpu time spent up to now is        1.4 secs

     total energy              =     -31.85571647 Ry
     Harris-Foulkes estimate   =     -31.85571652 Ry
     estimated scf accuracy    <       0.00000058 Ry

     iteration # 22     ecut=    30.00 Ry     beta=0.70
     Davidson diagonalization with overlap
     ethr =  1.89E-09,  avg # of iterations =  1.0

     total cpu time spent up to now is        1.4 secs

     End of self-consistent calculation

          k = 0.0000 0.0000 0.0000 ( 22119 PWs)   bands (ev):

   -26.0647 -11.0667  -7.1729  -7.1660  -7.0163  -0.4551   0.4314   0.8385

     the Fermi energy is    -6.9944 ev

!    total energy              =     -31.85571649 Ry
     Harris-Foulkes estimate   =     -31.85571648 Ry
     estimated scf accuracy    <          1.2E-10 Ry

     convergence has been achieved in  22 iterations

     Forces acting on atoms (Ry/au):

     atom    1 type  2   force =    -0.50361822   -0.01600191   -0.23868294
     atom    2 type  1   force =     0.50449473    0.01613342    0.23888558
     atom    3 type  1   force =    -0.00087651   -0.00013151   -0.00020264

     Total force =     0.789113     Total SCF correction =     0.000051

     Molecular Dynamics Calculation

     Starting temperature  =  1000.00 K

     temperature is controlled by Andersen thermostat
     Collision frequency = 1.0000/timestep
     mass H                =     1.01
     mass O                =    16.00
     Time step             =   100.00 a.u.,  4.8378 femto-seconds

     Entering Dynamics:    iteration =     1
                           time      =   0.0048 pico-seconds


     Andersen thermostat:    3 collisions

ATOMIC_POSITIONS (bohr)
O        4.285878044   2.303200582   3.876866874
H        8.984521002   2.284328906   5.715017024
H       10.202775626  15.949685413  -0.007870546


     kinetic energy (Ekin) =     0.01629516 Ry
     temperature           =   857.59992040 K 
     Ekin + Etot (const)   =   -31.83942133 Ry

     Linear momentum :    0.0000000000   -0.0000000000   -0.0000000000

     Writing output data file pwscf.save
     Check: negative starting charge=   -0.348764
     NEW-OLD atomic charge density approx. for the potential
     Check: negative starting charge=   -0.341460

     negative rho (up, down):  4.221E-01 0.000E+00

     total cpu time spent up to now is        1.8 secs

     per-process dynamical memory:    20.4 Mb

     Self-consistent Calculation

     iteration #  1     ecut=    30.00 Ry     beta=0.70
     Davidson diagonalization with overlap
     c_bands:  1 eigenvalues not converged
     ethr =  1.00E-06,  avg # of iterations = 20.0

     negative rho (up, down):  1.026E-01 0.000E+00

     total cpu time spent up to now is        2.0 secs

     total energy              =      -1.35222916 Ry
     Harris-Foulkes estimate   =     -50.91456382 Ry
     estimated scf accuracy    <      13.18386670 Ry

     iteration #  2     ecut=    30.00 Ry     beta=0.70
     Davidson diagonalization with overlap
     ethr =  1.00E-02,  avg # of iterations =  4.0

     negative rho (up, down):  6.954E-02 0.000E+00

     total cpu time spent up to now is        2.1 secs

     total energy              =     -33.13515441 Ry
     Harris-Foulkes estimate   =     -42.23530023 Ry
     estimated scf accuracy    <      19.62606030 Ry

     iteration #  3     ecut=    30.00 Ry     beta=0.70
     Davidson diagonalization with overlap
     ethr =  1.00E-02,  avg # of iterations =  3.0

     negative rho (up, down):  4.548E-02 0.000E+00

     total cpu time spent up to now is        2.1 secs

     total energy              =     -31.41290291 Ry
     Harris-Foulkes estimate   =     -33.75186118 Ry
     estimated scf accuracy    <       6.23955369 Ry

     iteration #  4     ecut=    30.00 Ry     beta=0.70
     Davidson diagonalization with overlap
     ethr =  1.00E-02,  avg # of iterations =  2.0

     negative rho (up, down):  4.137E-02 0.000E+00

     total cpu time spent up to now is        2.2 secs

     total energy              =     -31.34368048 Ry
     Harris-Foulkes estimate   =     -32.57342404 Ry
     estimated scf accuracy    <       5.16799310 Ry

     iteration #  5     ecut=    30.00 Ry     beta=0.70
     Davidson diagonalization with overlap
     ethr =  1.00E-02,  avg # of iterations =  2.0

     negative rho (up, down):  1.724E-02 0.000E+00

     total cpu time spent up to now is        2.2 secs

     total energy              =     -31.46978100 Ry
     Harris-Foulkes estimate   =     -32.49077085 Ry
     estimated scf accuracy    <       4.22213586 Ry

     iteration #  6     ecut=    30.00 Ry     beta=0.70
     Davidson diagonalization with overlap
     ethr =  1.00E-02,  avg # of iterations =  1.0

     negative rho (up, down):  1.668E-02 0.000E+00

     total cpu time spent up to now is        2.3 secs

     total energy              =     -31.61479817 Ry
     Harris-Foulkes estimate   =     -31.62607838 Ry
     estimated scf accuracy    <       1.59439046 Ry

     iteration #  7     ecut=    30.00 Ry     beta=0.70
     Davidson diagonalization with overlap
     ethr =  1.00E-02,  avg # of iterations =  1.0

     negative rho (up, down):  1.715E-02 0.000E+00

     total cpu time spent up to now is        2.3 secs

     total energy              =     -31.55203744 Ry
     Harris-Foulkes estimate   =     -31.61762232 Ry
     estimated scf accuracy    <       1.70414161 Ry

     iteration #  8     ecut=    30.00 Ry     beta=0.70
     Davidson diagonalization with overlap
     ethr =  1.00E-02,  avg # of iterations =  1.0

     negative rho (up, down):  1.674E-02 0.000E+00

     total cpu time spent up to now is        2.4 secs

     total energy              =     -31.61584374 Ry
     Harris-Foulkes estimate   =     -31.61809117 Ry
     estimated scf accuracy    <       1.09204139 Ry

     iteration #  9     ecut=    30.00 Ry     beta=0.70
     Davidson diagonalization with overlap
     ethr =  1.00E-02,  avg # of iterations =  1.0

     negative rho (up, down):  8.239E-03 0.000E+00

     total cpu time spent up to now is        2.4 secs

     total energy              =     -31.44851974 Ry
     Harris-Foulkes estimate   =     -31.61595934 Ry
     estimated scf accuracy    <       1.18780698 Ry

     iteration # 10     ecut=    30.00 Ry     beta=0.70
     Davidson diagonalization with overlap
     ethr =  1.00E-02,  avg # of iterations =  1.0

     negative rho (up, down):  2.476E-04 0.000E+00

     total cpu time spent up to now is        2.5 secs

     total energy              =     -31.70671848 Ry
     Harris-Foulkes estimate   =     -31.64285823 Ry
     estimated scf accuracy    <       2.35320053 Ry

     iteration # 11     ecut=    30.00 Ry     beta=0.70
     Davidson diagonalization with overlap
     ethr =  1.00E-02,  avg # of iterations =  1.0

     negative rho (up, down):  1.338E-05 0.000E+00

     total cpu time spent up to now is        2.5 secs

     total energy              =     -31.68054697 Ry
     Harris-Foulkes estimate   =     -31.71764258 Ry
     estimated scf accuracy    <       2.96973779 Ry

     iteration # 12     ecut=    30.00 Ry     beta=0.70
     Davidson diagonalization with overlap
     ethr =  1.00E-02,  avg # of iterations =  1.0

     negative rho (up, down):  8.785E-07 0.000E+00

     total cpu time spent up to now is        2.6 secs

     total energy              =     -31.68332077 Ry
     Harris-Foulkes estimate   =     -31.68255884 Ry
     estimated scf accuracy    <       2.54445650 Ry

     iteration # 13     ecut=    30.00 Ry     beta=0.70
     Davidson diagonalization with overlap
     ethr =  1.00E-02,  avg # of iterations =  1.0

     negative rho (up, down):  2.639E-06 0.000E+00

     total cpu time spent up to now is        2.6 secs

     total energy              =     -31.63180177 Ry
     Harris-Foulkes estimate   =     -31.68364712 Ry
     estimated scf accuracy    <       2.42717292 Ry

     iteration # 14     ecut=    30.00 Ry     beta=0.70
     Davidson diagonalization with overlap
     ethr =  1.00E-02,  avg # of iterations =  1.0

     negative rho (up, down):  2.948E-06 0.000E+00

     total cpu time spent up to now is        2.7 secs

     total energy              =     -31.63215000 Ry
     Harris-Foulkes estimate   =     -31.63616057 Ry
     estimated scf accuracy    <       1.76861291 Ry

     iteration # 15     ecut=    30.00 Ry     beta=0.70
     Davidson diagonalization with overlap
     ethr =  1.00E-02,  avg # of iterations =  1.0

     negative rho (up, down):  7.280E-06 0.000E+00

     total cpu time spent up to now is        2.7 secs

     total energy              =     -31.59797938 Ry
     Harris-Foulkes estimate   =     -31.63218327 Ry
     estimated scf accuracy    <       1.72464178 Ry

     iteration # 16     ecut=    30.00 Ry     beta=0.70
     Davidson diagonalization with overlap
     ethr =  1.00E-02,  avg # of iterations =  1.0

     negative rho (up, down):  2.252E-04 0.000E+00

     total cpu time spent up to now is        2.8 secs

     total energy              =     -31.62286538 Ry
     Harris-Foulkes estimate   =     -31.59765684 Ry
     estimated scf accuracy    <       1.78139764 Ry

     iteration # 17     ecut=    30.00 Ry     beta=0.70
     Davidson diagonalization with overlap
     ethr =  1.00E-02,  avg # of iterations =  1.0

     negative rho (up, down):  1.660E-04 0.000E+00

     total cpu time spent up to now is        2.8 secs

     total energy              =     -31.60502016 Ry
     Harris-Foulkes estimate   =     -31.62216065 Ry
     estimated scf accuracy    <       1.38354011 Ry

     iteration # 18     ecut=    30.00 Ry     beta=0.70
     Davidson diagonalization with overlap
     ethr =  1.00E-02,  avg # of iterations =  1.0

     negative rho (up, down):  1.865E-04 0.000E+00

     total cpu time spent up to now is        2.9 secs

     total energy              =     -31.77666848 Ry
     Harris-Foulkes estimate   =     -31.60477530 Ry
     estimated scf accuracy    <       1.46498356 Ry

     iteration # 19     ecut=    30.00 Ry     beta=0.70
     Davidson diagonalization with overlap
     ethr =  1.00E-02,  avg # of iterations =  1.0

     negative rho (up, down):  2.345E-04 0.000E+00

     total cpu time spent up to now is        2.9 secs

     total energy              =     -31.83933976 Ry
     Harris-Foulkes estimate   =     -31.77986673 Ry
     estimated scf accuracy    <       2.37489945 Ry

     iteration # 20     ecut=    30.00 Ry     beta=0.70
     Davidson diagonalization with overlap
     ethr =  1.00E-02,  avg # of iterations =  1.0

     negative rho (up, down):  1.680E-03 0.000E+00

     total cpu time spent up to now is        3.0 secs

     total energy              =     -31.30040080 Ry
     Harris-Foulkes estimate   =     -31.84003601 Ry
     estimated scf accuracy    <       2.39611109 Ry

     iteration # 21     ecut=    30.00 Ry     beta=0.70
     Davidson diagonalization with overlap
     ethr =  1.00E-02,  avg # of iterations =  1.0

     negative rho (up, down):  5.116E-05 0.000E+00

     total cpu time spent up to now is        3.0 secs

     total energy              =     -31.62693071 Ry
     Harris-Foulkes estimate   =     -31.74797264 Ry
     estimated scf accuracy    <       1.15673929 Ry

     iteration # 22     ecut=    30.00 Ry     beta=0.70
     Davidson diagonalization with overlap
     ethr =  1.00E-02,  avg # of iterations =  1.0

     negative rho (up, down):  3.093E-06 0.000E+00

     total cpu time spent up to now is        3.1 secs

     total energy              =     -31.55573108 Ry
     Harris-Foulkes estimate   =     -31.62904882 Ry
     estimated scf accuracy    <       0.96091434 Ry

     iteration # 23     ecut=    30.00 Ry     beta=0.70
     Davidson diagonalization with overlap
     ethr =  1.00E-02,  avg # of iterations =  1.0

     negative rho (up, down):  8.098E-07 0.000E+00

     total cpu time spent up to now is        3.1 secs

     total energy              =     -31.54106107 Ry
     Harris-Foulkes estimate   =     -31.55867039 Ry
     estimated scf accuracy    <       0.47758891 Ry

     iteration # 24     ecut=    30.00 Ry     beta=0.70
     Davidson diagonalization with overlap
     ethr =  5.97E-03,  avg # of iterations =  1.0

     negative rho (up, down):  4.296E-07 0.000E+00

     total cpu time spent up to now is        3.2 secs

     total energy              =     -31.54821756 Ry
     Harris-Foulkes estimate   =     -31.55066207 Ry
     estimated scf accuracy    <       0.02063295 Ry

     iteration # 25     ecut=    30.00 Ry     beta=0.70
     Davidson diagonalization with overlap
     ethr =  2.58E-04,  avg # of iterations =  1.0

     total cpu time spent up to now is        3.2 secs

     total energy              =     -31.54214191 Ry
     Harris-Foulkes estimate   =     -31.55333746 Ry
     estimated scf accuracy    <       0.19905136 Ry

     iteration # 26     ecut=    30.00 Ry     beta=0.70
     Davidson diagonalization with overlap
     ethr =  2.58E-04,  avg # of iterations =  1.0

     total cpu time spent up to now is        3.3 secs

     total energy              =     -31.55099823 Ry
     Harris-Foulkes estimate   =     -31.55363219 Ry
     estimated scf accuracy    <       0.25599801 Ry

     iteration # 27     ecut=    30.00 Ry     beta=0.70
     Davidson diagonalization with overlap
     ethr =  2.58E-04,  avg # of iterations =  1.0

     total cpu time spent up to now is        3.3 secs

     total energy              =     -31.55126816 Ry
     Harris-Foulkes estimate   =     -31.55152101 Ry
     estimated scf accuracy    <       0.09088400 Ry

     iteration # 28     ecut=    30.00 Ry     beta=0.70
     Davidson diagonalization with overlap
     ethr =  2.58E-04,  avg # of iterations =  1.0

     total cpu time spent up to now is        3.4 secs

     total energy              =     -31.55059083 Ry
     Harris-Foulkes estimate   =     -31.55128215 Ry
     estimated scf accuracy    <       0.07182438 Ry

     iteration # 29     ecut=    30.00 Ry     beta=0.70
     Davidson diagonalization with overlap
     ethr =  2.58E-04,  avg # of iterations =  1.0

     total cpu time spent up to now is        3.4 secs

     total energy              =     -31.55026332 Ry
     Harris-Foulkes estimate   =     -31.55071965 Ry
     estimated scf accuracy    <       0.02801361 Ry

     iteration # 30     ecut=    30.00 Ry     beta=0.70
     Davidson diagonalization with overlap
     ethr =  2.58E-04,  avg # of iterations =  1.0

     total cpu time spent up to now is        3.5 secs

     total energy              =     -31.55031685 Ry
     Harris-Foulkes estimate   =     -31.55040830 Ry
     estimated scf accuracy    <       0.00355048 Ry

     iteration # 31     ecut=    30.00 Ry     beta=0.70
     Davidson diagonalization with overlap
     ethr =  4.44E-05,  avg # of iterations =  1.0

     total cpu time spent up to now is        3.5 secs

     total energy              =     -31.55036214 Ry
     Harris-Foulkes estimate   =     -31.55036203 Ry
     estimated scf accuracy    <       0.00000048 Ry

     iteration # 32     ecut=    30.00 Ry     beta=0.70
     Davidson diagonalization with overlap
     c_bands:  1 eigenvalues not converged
     ethr =  6.04E-09,  avg # of iterations = 20.0

     total cpu time spent up to now is        3.6 secs

     total energy              =     -31.55036232 Ry
     Harris-Foulkes estimate   =     -31.55036224 Ry
     estimated scf accuracy    <       0.00000286 Ry

     iteration # 33     ecut=    30.00 Ry     beta=0.70
     Davidson diagonalization with overlap
     ethr =  6.04E-09,  avg # of iterations = 14.0

     total cpu time spent up to now is        3.7 secs

     total energy              =     -31.55036246 Ry
     Harris-Foulkes estimate   =     -31.55036243 Ry
     estimated scf accuracy    <       0.00000160 Ry

     iteration # 34     ecut=    30.00 Ry     beta=0.70
     Davidson diagonalization with overlap
     ethr =  6.04E-09,  avg # of iterations =  1.0

     total cpu time spent up to now is        3.7 secs

     total energy              =     -31.55036248 Ry
     Harris-Foulkes estimate   =     -31.55036247 Ry
     estimated scf accuracy    <       0.00000012 Ry

     iteration # 35     ecut=    30.00 Ry     beta=0.70
     Davidson diagonalization with overlap
     ethr =  1.52E-09,  avg # of iterations =  1.0

     total cpu time spent up to now is        3.7 secs

     End of self-consistent calculation

          k = 0.0000 0.0000 0.0000 ( 22119 PWs)   bands (ev):

   -23.6330  -7.6269  -6.9780  -6.9755  -6.8480  -6.4857  -0.1480   0.7087

     the Fermi energy is    -6.8176 ev

!    total energy              =     -31.55036248 Ry
     Harris-Foulkes estimate   =     -31.55036248 Ry
     estimated scf accuracy    <          6.2E-11 Ry

     convergence has been achieved in  35 iterations

     Forces acting on atoms (Ry/au):

     atom    1 type  2   force =     0.04968335    0.00061798    0.01880751
     atom    2 type  1   force =    -0.04941423   -0.00027556   -0.01904063
     atom    3 type  1   force =    -0.00026912   -0.00034243    0.00023312

     Total force =     0.075014     Total SCF correction =     0.000028

     Entering Dynamics:    iteration =     2
                           time      =   0.0097 pico-seconds


     Andersen thermostat:    3 collisions

ATOMIC_POSITIONS (bohr)
O        4.344864126   2.315955318   3.903175695
H        8.493033932   2.277628654   5.654266123
H        9.759829711  15.754330437  -0.363893058


     kinetic energy (Ekin) =     0.02186182 Ry
     temperature           =  1150.56791573 K 
     Ekin + Etot (const)   =   -31.52850067 Ry
     Message from routine dynamics:
     Total linear momentum <> 0

     Linear momentum :   -0.0817619506   -0.1270037145   -0.2796460722

     Writing output data file pwscf.save

     first order wave-functions extrapolation
     Check: negative starting charge=   -0.341460
     first order charge density extrapolation
     Check: negative starting charge=   -0.341458

     negative rho (up, down):  5.266E-01 0.000E+00

     total cpu time spent up to now is        4.2 secs

     per-process dynamical memory:    20.4 Mb

     Self-consistent Calculation

     iteration #  1     ecut=    30.00 Ry     beta=0.70
     Davidson diagonalization with overlap
     ethr =  1.00E-06,  avg # of iterations = 14.0

     negative rho (up, down):  1.289E-01 0.000E+00

     total cpu time spent up to now is        4.3 secs

     total energy              =       3.86404691 Ry
     Harris-Foulkes estimate   =    -372.06887638 Ry
     estimated scf accuracy    <       6.13094162 Ry

     iteration #  2     ecut=    30.00 Ry     beta=0.70
     Davidson diagonalization with overlap
     ethr =  1.00E-02,  avg # of iterations =  4.0

     negative rho (up, down):  8.372E-02 0.000E+00

     total cpu time spent up to now is        4.4 secs

     total energy              =     -32.18269128 Ry
     Harris-Foulkes estimate   =     -35.69076293 Ry
     estimated scf accuracy    <       7.91293316 Ry

     iteration #  3     ecut=    30.00 Ry     beta=0.70
     Davidson diagonalization with overlap
     ethr =  1.00E-02,  avg # of iterations =  2.0

     negative rho (up, down):  4.921E-02 0.000E+00

     total cpu time spent up to now is        4.4 secs

     total energy              =     -31.25495162 Ry
     Harris-Foulkes estimate   =     -32.36328847 Ry
     estimated scf accuracy    <       2.77166080 Ry

     iteration #  4     ecut=    30.00 Ry     beta=0.70
     Davidson diagonalization with overlap
     ethr =  1.00E-02,  avg # of iterations =  3.0

     negative rho (up, down):  4.586E-02 0.000E+00

     total cpu time spent up to now is        4.5 secs

     total energy              =     -31.71130265 Ry
     Harris-Foulkes estimate   =     -32.01089482 Ry
     estimated scf accuracy    <       2.14535722 Ry

     iteration #  5     ecut=    30.00 Ry     beta=0.70
     Davidson diagonalization with overlap
     ethr =  1.00E-02,  avg # of iterations =  1.0

     negative rho (up, down):  4.306E-02 0.000E+00

     total cpu time spent up to now is        4.5 secs

     total energy              =     -31.64320742 Ry
     Harris-Foulkes estimate   =     -31.75869259 Ry
     estimated scf accuracy    <       1.17637303 Ry

     iteration #  6     ecut=    30.00 Ry     beta=0.70
     Davidson diagonalization with overlap
     ethr =  1.00E-02,  avg # of iterations =  1.0

     negative rho (up, down):  3.416E-02 0.000E+00

     total cpu time spent up to now is        4.6 secs

     total energy              =     -31.39135609 Ry
     Harris-Foulkes estimate   =     -31.72604973 Ry
     estimated scf accuracy    <       2.02996014 Ry

     iteration #  7     ecut=    30.00 Ry     beta=0.70
     Davidson diagonalization with overlap
     ethr =  1.00E-02,  avg # of iterations =  2.0

     negative rho (up, down):  2.205E-02 0.000E+00

     total cpu time spent up to now is        4.6 secs

     total energy              =     -31.72766881 Ry
     Harris-Foulkes estimate   =     -32.06271362 Ry
     estimated scf accuracy    <       2.07307942 Ry

     iteration #  8     ecut=    30.00 Ry     beta=0.70
     Davidson diagonalization with overlap
     ethr =  1.00E-02,  avg # of iterations =  1.0

     negative rho (up, down):  2.425E-02 0.000E+00

     total cpu time spent up to now is        4.7 secs

     total energy              =     -31.66480529 Ry
     Harris-Foulkes estimate   =     -31.80602110 Ry
     estimated scf accuracy    <       1.61075100 Ry

     iteration #  9     ecut=    30.00 Ry     beta=0.70
     Davidson diagonalization with overlap
     ethr =  1.00E-02,  avg # of iterations =  1.0

     negative rho (up, down):  2.405E-02 0.000E+00

     total cpu time spent up to now is        4.7 secs

     total energy              =     -31.75437552 Ry
     Harris-Foulkes estimate   =     -31.66873716 Ry
     estimated scf accuracy    <       1.27845352 Ry

     iteration # 10     ecut=    30.00 Ry     beta=0.70
     Davidson diagonalization with overlap
     ethr =  1.00E-02,  avg # of iterations =  1.0

     negative rho (up, down):  4.615E-03 0.000E+00

     total cpu time spent up to now is        4.8 secs

     total energy              =     -31.10527460 Ry
     Harris-Foulkes estimate   =     -31.75498025 Ry
     estimated scf accuracy    <       1.41414794 Ry

     iteration # 11     ecut=    30.00 Ry     beta=0.70
     Davidson diagonalization with overlap
     ethr =  1.00E-02,  avg # of iterations =  2.0

     negative rho (up, down):  1.336E-02 0.000E+00

     total cpu time spent up to now is        4.8 secs

     total energy              =     -32.57059160 Ry
     Harris-Foulkes estimate   =     -32.26437581 Ry
     estimated scf accuracy    <       1.95041817 Ry

     iteration # 12     ecut=    30.00 Ry     beta=0.70
     Davidson diagonalization with overlap
     ethr =  1.00E-02,  avg # of iterations =  1.0

     negative rho (up, down):  2.715E-02 0.000E+00

     total cpu time spent up to now is        4.9 secs

     total energy              =     -33.20228684 Ry
     Harris-Foulkes estimate   =     -32.58390897 Ry
     estimated scf accuracy    <       2.11404952 Ry

     iteration # 13     ecut=    30.00 Ry     beta=0.70
     Davidson diagonalization with overlap
     ethr =  1.00E-02,  avg # of iterations =  1.0

     negative rho (up, down):  1.595E-02 0.000E+00

     total cpu time spent up to now is        4.9 secs

     total energy              =     -33.40999612 Ry
     Harris-Foulkes estimate   =     -33.26362800 Ry
     estimated scf accuracy    <       3.61084037 Ry

     iteration # 14     ecut=    30.00 Ry     beta=0.70
     Davidson diagonalization with overlap
     ethr =  1.00E-02,  avg # of iterations =  1.0

     negative rho (up, down):  3.198E-03 0.000E+00

     total cpu time spent up to now is        5.0 secs

     total energy              =     -33.43922672 Ry
     Harris-Foulkes estimate   =     -33.41004439 Ry
     estimated scf accuracy    <       3.75560004 Ry

     iteration # 15     ecut=    30.00 Ry     beta=0.70
     Davidson diagonalization with overlap
     ethr =  1.00E-02,  avg # of iterations =  1.0

     negative rho (up, down):  2.506E-03 0.000E+00

     total cpu time spent up to now is        5.0 secs

     total energy              =     -31.88285415 Ry
     Harris-Foulkes estimate   =     -33.43930310 Ry
     estimated scf accuracy    <       3.76714823 Ry

     iteration # 16     ecut=    30.00 Ry     beta=0.70
     Davidson diagonalization with overlap
     ethr =  1.00E-02,  avg # of iterations =  2.0

     negative rho (up, down):  7.196E-02 0.000E+00

     total cpu time spent up to now is        5.1 secs

     total energy              =     -31.30043173 Ry
     Harris-Foulkes estimate   =     -31.92748780 Ry
     estimated scf accuracy    <       1.33147742 Ry

     iteration # 17     ecut=    30.00 Ry     beta=0.70
     Davidson diagonalization with overlap
     ethr =  1.00E-02,  avg # of iterations =  2.0

     negative rho (up, down):  6.542E-06 0.000E+00

     total cpu time spent up to now is        5.1 secs

     total energy              =     -31.33892192 Ry
     Harris-Foulkes estimate   =     -31.97513615 Ry
     estimated scf accuracy    <       1.96279864 Ry

     iteration # 18     ecut=    30.00 Ry     beta=0.70
     Davidson diagonalization with overlap
     ethr =  1.00E-02,  avg # of iterations =  1.0

     negative rho (up, down):  9.214E-06 0.000E+00

     total cpu time spent up to now is        5.2 secs

     total energy              =     -31.74214624 Ry
     Harris-Foulkes estimate   =     -31.78678248 Ry
     estimated scf accuracy    <       1.18643435 Ry

     iteration # 19     ecut=    30.00 Ry     beta=0.70
     Davidson diagonalization with overlap
     ethr =  1.00E-02,  avg # of iterations =  1.0

     negative rho (up, down):  1.507E-08 0.000E+00

     total cpu time spent up to now is        5.2 secs

     total energy              =     -31.64561730 Ry
     Harris-Foulkes estimate   =     -31.74338529 Ry
     estimated scf accuracy    <       1.13061152 Ry

     iteration # 20     ecut=    30.00 Ry     beta=0.70
     Davidson diagonalization with overlap
     ethr =  1.00E-02,  avg # of iterations =  1.0

     negative rho (up, down):  2.616E-08 0.000E+00

     total cpu time spent up to now is        5.3 secs

     total energy              =     -31.57186842 Ry
     Harris-Foulkes estimate   =     -31.64595214 Ry
     estimated scf accuracy    <       0.97669653 Ry

     iteration # 21     ecut=    30.00 Ry     beta=0.70
     Davidson diagonalization with overlap
     ethr =  1.00E-02,  avg # of iterations =  1.0

     negative rho (up, down):  1.023E-08 0.000E+00

     total cpu time spent up to now is        5.3 secs

     total energy              =     -31.58494888 Ry
     Harris-Foulkes estimate   =     -31.58942284 Ry
     estimated scf accuracy    <       0.01043511 Ry

     iteration # 22     ecut=    30.00 Ry     beta=0.70
     Davidson diagonalization with overlap
     ethr =  1.30E-04,  avg # of iterations =  6.0

     negative rho (up, down):  2.307E-08 0.000E+00

     total cpu time spent up to now is        5.4 secs

     total energy              =     -31.61522401 Ry
     Harris-Foulkes estimate   =     -31.68875985 Ry
     estimated scf accuracy    <       1.04910457 Ry

     iteration # 23     ecut=    30.00 Ry     beta=0.70
     Davidson diagonalization with overlap
     ethr =  1.30E-04,  avg # of iterations =  1.0

     total cpu time spent up to now is        5.4 secs

     total energy              =     -31.55897709 Ry
     Harris-Foulkes estimate   =     -31.61558601 Ry
     estimated scf accuracy    <       0.88371289 Ry

     iteration # 24     ecut=    30.00 Ry     beta=0.70
     Davidson diagonalization with overlap
     ethr =  1.30E-04,  avg # of iterations =  2.0

     total cpu time spent up to now is        5.5 secs

     total energy              =     -31.59249745 Ry
     Harris-Foulkes estimate   =     -31.59535650 Ry
     estimated scf accuracy    <       0.50145382 Ry

     iteration # 25     ecut=    30.00 Ry     beta=0.70
     Davidson diagonalization with overlap
     ethr =  1.30E-04,  avg # of iterations =  1.0

     total cpu time spent up to now is        5.5 secs

     total energy              =     -31.58660038 Ry
     Harris-Foulkes estimate   =     -31.59281409 Ry
     estimated scf accuracy    <       0.30265260 Ry

     iteration # 26     ecut=    30.00 Ry     beta=0.70
     Davidson diagonalization with overlap
     ethr =  1.30E-04,  avg # of iterations =  1.0

     total cpu time spent up to now is        5.6 secs

     total energy              =     -31.58803048 Ry
     Harris-Foulkes estimate   =     -31.58915816 Ry
     estimated scf accuracy    <       0.00867583 Ry

     iteration # 27     ecut=    30.00 Ry     beta=0.70
     Davidson diagonalization with overlap
     ethr =  1.08E-04,  avg # of iterations =  1.0

     total cpu time spent up to now is        5.6 secs

     total energy              =     -31.59105230 Ry
     Harris-Foulkes estimate   =     -31.59107206 Ry
     estimated scf accuracy    <       0.13912509 Ry

     iteration # 28     ecut=    30.00 Ry     beta=0.70
     Davidson diagonalization with overlap
     ethr =  1.08E-04,  avg # of iterations =  1.0

     total cpu time spent up to now is        5.7 secs

     total energy              =     -31.58810686 Ry
     Harris-Foulkes estimate   =     -31.59105305 Ry
     estimated scf accuracy    <       0.13840926 Ry

     iteration # 29     ecut=    30.00 Ry     beta=0.70
     Davidson diagonalization with overlap
     ethr =  1.08E-04,  avg # of iterations =  1.0

     total cpu time spent up to now is        5.7 secs

     total energy              =     -31.58909827 Ry
     Harris-Foulkes estimate   =     -31.58916494 Ry
     estimated scf accuracy    <       0.00882921 Ry

     iteration # 30     ecut=    30.00 Ry     beta=0.70
     Davidson diagonalization with overlap
     ethr =  1.08E-04,  avg # of iterations =  1.0

     total cpu time spent up to now is        5.8 secs

     total energy              =     -31.58900074 Ry
     Harris-Foulkes estimate   =     -31.58910802 Ry
     estimated scf accuracy    <       0.00444077 Ry

     iteration # 31     ecut=    30.00 Ry     beta=0.70
     Davidson diagonalization with overlap
     ethr =  5.55E-05,  avg # of iterations =  1.0

     total cpu time spent up to now is        5.8 secs

     total energy              =     -31.58904890 Ry
     Harris-Foulkes estimate   =     -31.58905015 Ry
     estimated scf accuracy    <       0.00002207 Ry

     iteration # 32     ecut=    30.00 Ry     beta=0.70
     Davidson diagonalization with overlap
     c_bands:  1 eigenvalues not converged
     ethr =  2.76E-07,  avg # of iterations = 20.0

     total cpu time spent up to now is        5.9 secs

     total energy              =     -31.58904924 Ry
     Harris-Foulkes estimate   =     -31.58905030 Ry
     estimated scf accuracy    <       0.00003286 Ry

     iteration # 33     ecut=    30.00 Ry     beta=0.70
     Davidson diagonalization with overlap
     ethr =  2.76E-07,  avg # of iterations =  9.0

     total cpu time spent up to now is        6.0 secs

     total energy              =     -31.58904982 Ry
     Harris-Foulkes estimate   =     -31.58904984 Ry
     estimated scf accuracy    <       0.00000117 Ry

     iteration # 34     ecut=    30.00 Ry     beta=0.70
     Davidson diagonalization with overlap
     ethr =  1.47E-08,  avg # of iterations =  1.0

     total cpu time spent up to now is        6.0 secs

     total energy              =     -31.58904984 Ry
     Harris-Foulkes estimate   =     -31.58904985 Ry
     estimated scf accuracy    <       0.00000016 Ry

     iteration # 35     ecut=    30.00 Ry     beta=0.70
     Davidson diagonalization with overlap
     ethr =  1.98E-09,  avg # of iterations =  1.0

     total cpu time spent up to now is        6.1 secs

     total energy              =     -31.58904984 Ry
     Harris-Foulkes estimate   =     -31.58904985 Ry
     estimated scf accuracy    <       0.00000008 Ry

     iteration # 36     ecut=    30.00 Ry     beta=0.70
     Davidson diagonalization with overlap
     ethr =  9.45E-10,  avg # of iterations =  1.0

     total cpu time spent up to now is        6.1 secs

     End of self-consistent calculation

          k = 0.0000 0.0000 0.0000 ( 22119 PWs)   bands (ev):

   -23.6036  -7.9063  -6.9271  -6.9243  -6.7871  -6.1549  -0.1345   0.7361

     the Fermi energy is    -6.7558 ev

!    total energy              =     -31.58904984 Ry
     Harris-Foulkes estimate   =     -31.58904985 Ry
     estimated scf accuracy    <          4.3E-09 Ry

     convergence has been achieved in  36 iterations

     Forces acting on atoms (Ry/au):

     atom    1 type  2   force =     0.08132344    0.00015770    0.03440676
     atom    2 type  1   force =    -0.08130195    0.00031570   -0.03426630
     atom    3 type  1   force =    -0.00002149   -0.00047340   -0.00014045

     Total force =     0.124827     Total SCF correction =     0.000008

     Entering Dynamics:    iteration =     3
                           time      =   0.0145 pico-seconds


     Andersen thermostat:    3 collisions

ATOMIC_POSITIONS (bohr)
O        4.415760252   2.309207084   3.885364241
H        7.541463365   2.161286841   5.556321845
H        9.588293343  15.977574971   0.016212875


     kinetic energy (Ekin) =     0.03850798 Ry
     temperature           =  2026.64089326 K 
     Ekin + Etot (const)   =   -31.55054186 Ry
     Message from routine dynamics:
     Total linear momentum <> 0

     Linear momentum :    0.3854213142    0.3689482497   -0.8912552518

     Writing output data file pwscf.save

     second order wave-functions extrapolation
     Check: negative starting charge=   -0.341458
     second order charge density extrapolation
     Check: negative starting charge=   -0.341424

     negative rho (up, down):  1.243E-01 0.000E+00

     total cpu time spent up to now is        6.6 secs

     per-process dynamical memory:    20.4 Mb

     Self-consistent Calculation

     iteration #  1     ecut=    30.00 Ry     beta=0.70
     Davidson diagonalization with overlap
     ethr =  1.00E-06,  avg # of iterations = 12.0

     negative rho (up, down):  2.583E-02 0.000E+00

     total cpu time spent up to now is        6.7 secs

     total energy              =      -6.67353796 Ry
     Harris-Foulkes estimate   =     -50.93378334 Ry
     estimated scf accuracy    <       6.47106351 Ry

     iteration #  2     ecut=    30.00 Ry     beta=0.70
     Davidson diagonalization with overlap
     ethr =  1.00E-02,  avg # of iterations =  4.0

     negative rho (up, down):  1.668E-02 0.000E+00

     total cpu time spent up to now is        6.8 secs

     total energy              =     -31.50792604 Ry
     Harris-Foulkes estimate   =     -35.11826034 Ry
     estimated scf accuracy    <       7.31415234 Ry

     iteration #  3     ecut=    30.00 Ry     beta=0.70
     Davidson diagonalization with overlap
     ethr =  1.00E-02,  avg # of iterations =  3.0

     negative rho (up, down):  2.302E-03 0.000E+00

     total cpu time spent up to now is        6.9 secs

     total energy              =     -32.13008396 Ry
     Harris-Foulkes estimate   =     -33.60950775 Ry
     estimated scf accuracy    <       5.22443347 Ry

     iteration #  4     ecut=    30.00 Ry     beta=0.70
     Davidson diagonalization with overlap
     ethr =  1.00E-02,  avg # of iterations =  2.0

     negative rho (up, down):  1.446E-03 0.000E+00

     total cpu time spent up to now is        6.9 secs

     total energy              =     -32.68551802 Ry
     Harris-Foulkes estimate   =     -32.47015523 Ry
     estimated scf accuracy    <       2.18807805 Ry

     iteration #  5     ecut=    30.00 Ry     beta=0.70
     Davidson diagonalization with overlap
     ethr =  1.00E-02,  avg # of iterations =  1.0

     negative rho (up, down):  2.191E-02 0.000E+00

     total cpu time spent up to now is        6.9 secs

     total energy              =     -31.72771630 Ry
     Harris-Foulkes estimate   =     -32.69080672 Ry
     estimated scf accuracy    <       2.54174209 Ry

     iteration #  6     ecut=    30.00 Ry     beta=0.70
     Davidson diagonalization with overlap
     ethr =  1.00E-02,  avg # of iterations =  1.0

     negative rho (up, down):  3.410E-02 0.000E+00

     total cpu time spent up to now is        7.0 secs

     total energy              =     -32.01653482 Ry
     Harris-Foulkes estimate   =     -32.24698692 Ry
     estimated scf accuracy    <       2.53530915 Ry

     iteration #  7     ecut=    30.00 Ry     beta=0.70
     Davidson diagonalization with overlap
     ethr =  1.00E-02,  avg # of iterations =  1.0

     negative rho (up, down):  5.789E-03 0.000E+00

     total cpu time spent up to now is        7.0 secs

     total energy              =     -31.83751602 Ry
     Harris-Foulkes estimate   =     -32.03760452 Ry
     estimated scf accuracy    <       1.81251988 Ry

     iteration #  8     ecut=    30.00 Ry     beta=0.70
     Davidson diagonalization with overlap
     ethr =  1.00E-02,  avg # of iterations =  1.0

     negative rho (up, down):  5.073E-03 0.000E+00

     total cpu time spent up to now is        7.1 secs

     total energy              =     -31.82055462 Ry
     Harris-Foulkes estimate   =     -31.84003114 Ry
     estimated scf accuracy    <       1.54725928 Ry

     iteration #  9     ecut=    30.00 Ry     beta=0.70
     Davidson diagonalization with overlap
     ethr =  1.00E-02,  avg # of iterations =  1.0

     negative rho (up, down):  4.909E-03 0.000E+00

     total cpu time spent up to now is        7.1 secs

     total energy              =     -31.81532991 Ry
     Harris-Foulkes estimate   =     -31.82072219 Ry
     estimated scf accuracy    <       1.48642972 Ry

     iteration # 10     ecut=    30.00 Ry     beta=0.70
     Davidson diagonalization with overlap
     ethr =  1.00E-02,  avg # of iterations =  1.0

     negative rho (up, down):  3.075E-02 0.000E+00

     total cpu time spent up to now is        7.2 secs

     total energy              =     -31.07532909 Ry
     Harris-Foulkes estimate   =     -31.81537248 Ry
     estimated scf accuracy    <       1.45261272 Ry

     iteration # 11     ecut=    30.00 Ry     beta=0.70
     Davidson diagonalization with overlap
     ethr =  1.00E-02,  avg # of iterations =  2.0

     negative rho (up, down):  2.021E-01 0.000E+00

     total cpu time spent up to now is        7.2 secs

     total energy              =     -33.49681979 Ry
     Harris-Foulkes estimate   =     -32.89405165 Ry
     estimated scf accuracy    <       4.26062939 Ry

     iteration # 12     ecut=    30.00 Ry     beta=0.70
     Davidson diagonalization with overlap
     ethr =  1.00E-02,  avg # of iterations =  5.0

     negative rho (up, down):  1.231E-01 0.000E+00

     total cpu time spent up to now is        7.3 secs

     total energy              =     -33.17220307 Ry
     Harris-Foulkes estimate   =     -33.84810212 Ry
     estimated scf accuracy    <      13.52130138 Ry

     iteration # 13     ecut=    30.00 Ry     beta=0.70
     Davidson diagonalization with overlap
     ethr =  1.00E-02,  avg # of iterations =  2.0

     negative rho (up, down):  7.026E-02 0.000E+00

     total cpu time spent up to now is        7.4 secs

     total energy              =     -32.55831194 Ry
     Harris-Foulkes estimate   =     -33.25347350 Ry
     estimated scf accuracy    <      12.59611281 Ry

     iteration # 14     ecut=    30.00 Ry     beta=0.70
     Davidson diagonalization with overlap
     ethr =  1.00E-02,  avg # of iterations =  1.0

     negative rho (up, down):  1.006E-02 0.000E+00

     total cpu time spent up to now is        7.4 secs

     total energy              =     -32.25099403 Ry
     Harris-Foulkes estimate   =     -32.82891669 Ry
     estimated scf accuracy    <       3.56613178 Ry

     iteration # 15     ecut=    30.00 Ry     beta=0.70
     Davidson diagonalization with overlap
     ethr =  1.00E-02,  avg # of iterations =  1.0

     negative rho (up, down):  4.809E-02 0.000E+00

     total cpu time spent up to now is        7.5 secs

     total energy              =     -31.36750762 Ry
     Harris-Foulkes estimate   =     -32.28507094 Ry
     estimated scf accuracy    <       2.76210166 Ry

     iteration # 16     ecut=    30.00 Ry     beta=0.70
     Davidson diagonalization with overlap
     ethr =  1.00E-02,  avg # of iterations =  2.0

     negative rho (up, down):  5.745E-02 0.000E+00

     total cpu time spent up to now is        7.5 secs

     total energy              =     -31.65091260 Ry
     Harris-Foulkes estimate   =     -31.91769961 Ry
     estimated scf accuracy    <       1.23228932 Ry

     iteration # 17     ecut=    30.00 Ry     beta=0.70
     Davidson diagonalization with overlap
     ethr =  1.00E-02,  avg # of iterations =  1.0

     negative rho (up, down):  5.412E-02 0.000E+00

     total cpu time spent up to now is        7.6 secs

     total energy              =     -31.74914564 Ry
     Harris-Foulkes estimate   =     -31.70914886 Ry
     estimated scf accuracy    <       0.94344461 Ry

     iteration # 18     ecut=    30.00 Ry     beta=0.70
     Davidson diagonalization with overlap
     ethr =  1.00E-02,  avg # of iterations =  1.0

     negative rho (up, down):  6.408E-02 0.000E+00

     total cpu time spent up to now is        7.6 secs

     total energy              =     -31.65266849 Ry
     Harris-Foulkes estimate   =     -31.75815577 Ry
     estimated scf accuracy    <       1.28855208 Ry

     iteration # 19     ecut=    30.00 Ry     beta=0.70
     Davidson diagonalization with overlap
     ethr =  1.00E-02,  avg # of iterations =  1.0

     negative rho (up, down):  6.140E-02 0.000E+00

     total cpu time spent up to now is        7.7 secs

     total energy              =     -31.62726845 Ry
     Harris-Foulkes estimate   =     -31.70720353 Ry
     estimated scf accuracy    <       0.57391348 Ry

     iteration # 20     ecut=    30.00 Ry     beta=0.70
     Davidson diagonalization with overlap
     ethr =  7.17E-03,  avg # of iterations =  1.0

     negative rho (up, down):  7.602E-02 0.000E+00

     total cpu time spent up to now is        7.7 secs

     total energy              =     -31.66077178 Ry
     Harris-Foulkes estimate   =     -31.77042484 Ry
     estimated scf accuracy    <       1.26838809 Ry

     iteration # 21     ecut=    30.00 Ry     beta=0.70
     Davidson diagonalization with overlap
     ethr =  7.17E-03,  avg # of iterations =  1.0

     negative rho (up, down):  7.363E-02 0.000E+00

     total cpu time spent up to now is        7.8 secs

     total energy              =     -31.66411270 Ry
     Harris-Foulkes estimate   =     -31.70075625 Ry
     estimated scf accuracy    <       0.39703322 Ry

     iteration # 22     ecut=    30.00 Ry     beta=0.70
     Davidson diagonalization with overlap
     ethr =  4.96E-03,  avg # of iterations =  1.0

     negative rho (up, down):  1.250E-02 0.000E+00

     total cpu time spent up to now is        7.8 secs

     total energy              =     -32.07837500 Ry
     Harris-Foulkes estimate   =     -31.72300526 Ry
     estimated scf accuracy    <       1.51361117 Ry

     iteration # 23     ecut=    30.00 Ry     beta=0.70
     Davidson diagonalization with overlap
     ethr =  4.96E-03,  avg # of iterations =  1.0

     negative rho (up, down):  5.972E-03 0.000E+00

     total cpu time spent up to now is        7.9 secs

     total energy              =     -31.97620578 Ry
     Harris-Foulkes estimate   =     -32.05476635 Ry
     estimated scf accuracy    <       1.79373847 Ry

     iteration # 24     ecut=    30.00 Ry     beta=0.70
     Davidson diagonalization with overlap
     ethr =  4.96E-03,  avg # of iterations =  1.0

     negative rho (up, down):  3.001E-03 0.000E+00

     total cpu time spent up to now is        7.9 secs

     total energy              =     -31.92760116 Ry
     Harris-Foulkes estimate   =     -31.97689707 Ry
     estimated scf accuracy    <       1.68909030 Ry

     iteration # 25     ecut=    30.00 Ry     beta=0.70
     Davidson diagonalization with overlap
     ethr =  4.96E-03,  avg # of iterations =  1.0

     negative rho (up, down):  2.005E-03 0.000E+00

     total cpu time spent up to now is        8.0 secs

     total energy              =     -31.92277156 Ry
     Harris-Foulkes estimate   =     -31.92793517 Ry
     estimated scf accuracy    <       1.59215604 Ry

     iteration # 26     ecut=    30.00 Ry     beta=0.70
     Davidson diagonalization with overlap
     ethr =  4.96E-03,  avg # of iterations =  1.0

     negative rho (up, down):  2.843E-03 0.000E+00

     total cpu time spent up to now is        8.0 secs

     total energy              =     -31.93719831 Ry
     Harris-Foulkes estimate   =     -31.92279155 Ry
     estimated scf accuracy    <       1.58114307 Ry

     iteration # 27     ecut=    30.00 Ry     beta=0.70
     Davidson diagonalization with overlap
     ethr =  4.96E-03,  avg # of iterations =  1.0

     negative rho (up, down):  1.077E-03 0.000E+00

     total cpu time spent up to now is        8.0 secs

     total energy              =     -31.89270567 Ry
     Harris-Foulkes estimate   =     -31.93721513 Ry
     estimated scf accuracy    <       1.60774356 Ry

     iteration # 28     ecut=    30.00 Ry     beta=0.70
     Davidson diagonalization with overlap
     ethr =  4.96E-03,  avg # of iterations =  1.0

     negative rho (up, down):  6.008E-06 0.000E+00

     total cpu time spent up to now is        8.1 secs

     total energy              =     -31.68309382 Ry
     Harris-Foulkes estimate   =     -31.89290934 Ry
     estimated scf accuracy    <       1.51946336 Ry

     iteration # 29     ecut=    30.00 Ry     beta=0.70
     Davidson diagonalization with overlap
     ethr =  4.96E-03,  avg # of iterations =  1.0

     negative rho (up, down):  2.819E-04 0.000E+00

     total cpu time spent up to now is        8.1 secs

     total energy              =     -31.73058053 Ry
     Harris-Foulkes estimate   =     -31.69638262 Ry
     estimated scf accuracy    <       0.01235349 Ry

     iteration # 30     ecut=    30.00 Ry     beta=0.70
     Davidson diagonalization with overlap
     ethr =  1.54E-04,  avg # of iterations =  2.0

     total cpu time spent up to now is        8.2 secs

     total energy              =     -31.79749754 Ry
     Harris-Foulkes estimate   =     -31.92087830 Ry
     estimated scf accuracy    <       1.57264748 Ry

     iteration # 31     ecut=    30.00 Ry     beta=0.70
     Davidson diagonalization with overlap
     ethr =  1.54E-04,  avg # of iterations =  2.0

     total cpu time spent up to now is        8.2 secs

     total energy              =     -31.64358843 Ry
     Harris-Foulkes estimate   =     -31.79937783 Ry
     estimated scf accuracy    <       1.31909384 Ry

     iteration # 32     ecut=    30.00 Ry     beta=0.70
     Davidson diagonalization with overlap
     ethr =  1.54E-04,  avg # of iterations =  4.0

     total cpu time spent up to now is        8.3 secs

     total energy              =     -31.63086331 Ry
     Harris-Foulkes estimate   =     -31.71737099 Ry
     estimated scf accuracy    <       0.82294837 Ry

     iteration # 33     ecut=    30.00 Ry     beta=0.70
     Davidson diagonalization with overlap
     ethr =  1.54E-04,  avg # of iterations =  2.0

     negative rho (up, down):  6.700E-08 0.000E+00

     total cpu time spent up to now is        8.4 secs

     total energy              =     -31.59693264 Ry
     Harris-Foulkes estimate   =     -31.75118493 Ry
     estimated scf accuracy    <       1.35453147 Ry

     iteration # 34     ecut=    30.00 Ry     beta=0.70
     Davidson diagonalization with overlap
     ethr =  1.54E-04,  avg # of iterations =  2.0

     total cpu time spent up to now is        8.4 secs

     total energy              =     -31.74939741 Ry
     Harris-Foulkes estimate   =     -31.75516139 Ry
     estimated scf accuracy    <       0.99188115 Ry

     iteration # 35     ecut=    30.00 Ry     beta=0.70
     Davidson diagonalization with overlap
     ethr =  1.54E-04,  avg # of iterations =  1.0

     total cpu time spent up to now is        8.4 secs

     total energy              =     -31.73244295 Ry
     Harris-Foulkes estimate   =     -31.74941100 Ry
     estimated scf accuracy    <       0.98099503 Ry

     iteration # 36     ecut=    30.00 Ry     beta=0.70
     Davidson diagonalization with overlap
     ethr =  1.54E-04,  avg # of iterations =  1.0

     total cpu time spent up to now is        8.5 secs

     total energy              =     -31.68016498 Ry
     Harris-Foulkes estimate   =     -31.73250642 Ry
     estimated scf accuracy    <       0.93880273 Ry

     iteration # 37     ecut=    30.00 Ry     beta=0.70
     Davidson diagonalization with overlap
     ethr =  1.54E-04,  avg # of iterations =  1.0

     total cpu time spent up to now is        8.5 secs

     total energy              =     -31.69581357 Ry
     Harris-Foulkes estimate   =     -31.69631004 Ry
     estimated scf accuracy    <       0.00186245 Ry

     iteration # 38     ecut=    30.00 Ry     beta=0.70
     Davidson diagonalization with overlap
     ethr =  2.33E-05,  avg # of iterations =  1.0

     total cpu time spent up to now is        8.6 secs

     total energy              =     -31.70002912 Ry
     Harris-Foulkes estimate   =     -31.69899794 Ry
     estimated scf accuracy    <       0.17975154 Ry

     iteration # 39     ecut=    30.00 Ry     beta=0.70
     Davidson diagonalization with overlap
     ethr =  2.33E-05,  avg # of iterations =  1.0

     total cpu time spent up to now is        8.6 secs

     total energy              =     -31.69524872 Ry
     Harris-Foulkes estimate   =     -31.70011626 Ry
     estimated scf accuracy    <       0.24528975 Ry

     iteration # 40     ecut=    30.00 Ry     beta=0.70
     Davidson diagonalization with overlap
     ethr =  2.33E-05,  avg # of iterations =  1.0

     total cpu time spent up to now is        8.7 secs

     total energy              =     -31.69685675 Ry
     Harris-Foulkes estimate   =     -31.69671823 Ry
     estimated scf accuracy    <       0.03184886 Ry

     iteration # 41     ecut=    30.00 Ry     beta=0.70
     Davidson diagonalization with overlap
     ethr =  2.33E-05,  avg # of iterations =  1.0

     total cpu time spent up to now is        8.7 secs

     total energy              =     -31.69594802 Ry
     Harris-Foulkes estimate   =     -31.69686755 Ry
     estimated scf accuracy    <       0.04244993 Ry

     iteration # 42     ecut=    30.00 Ry     beta=0.70
     Davidson diagonalization with overlap
     ethr =  2.33E-05,  avg # of iterations =  1.0

     total cpu time spent up to now is        8.8 secs

     total energy              =     -31.69614699 Ry
     Harris-Foulkes estimate   =     -31.69630606 Ry
     estimated scf accuracy    <       0.00178199 Ry

     iteration # 43     ecut=    30.00 Ry     beta=0.70
     Davidson diagonalization with overlap
     ethr =  2.23E-05,  avg # of iterations =  1.0

     total cpu time spent up to now is        8.8 secs

     total energy              =     -31.69636875 Ry
     Harris-Foulkes estimate   =     -31.69642988 Ry
     estimated scf accuracy    <       0.01148917 Ry

     iteration # 44     ecut=    30.00 Ry     beta=0.70
     Davidson diagonalization with overlap
     ethr =  2.23E-05,  avg # of iterations =  1.0

     total cpu time spent up to now is        8.9 secs

     total energy              =     -31.69621331 Ry
     Harris-Foulkes estimate   =     -31.69637489 Ry
     estimated scf accuracy    <       0.00726134 Ry

     iteration # 45     ecut=    30.00 Ry     beta=0.70
     Davidson diagonalization with overlap
     ethr =  2.23E-05,  avg # of iterations =  1.0

     total cpu time spent up to now is        8.9 secs

     total energy              =     -31.69627656 Ry
     Harris-Foulkes estimate   =     -31.69628279 Ry
     estimated scf accuracy    <       0.00013082 Ry

     iteration # 46     ecut=    30.00 Ry     beta=0.70
     Davidson diagonalization with overlap
     ethr =  1.64E-06,  avg # of iterations = 17.0

     total cpu time spent up to now is        9.0 secs

     total energy              =     -31.69628221 Ry
     Harris-Foulkes estimate   =     -31.69628243 Ry
     estimated scf accuracy    <       0.00009820 Ry

     iteration # 47     ecut=    30.00 Ry     beta=0.70
     Davidson diagonalization with overlap
     ethr =  1.23E-06,  avg # of iterations =  1.0

     total cpu time spent up to now is        9.1 secs

     total energy              =     -31.69628022 Ry
     Harris-Foulkes estimate   =     -31.69628225 Ry
     estimated scf accuracy    <       0.00006989 Ry

     iteration # 48     ecut=    30.00 Ry     beta=0.70
     Davidson diagonalization with overlap
     ethr =  8.74E-07,  avg # of iterations =  1.0

     total cpu time spent up to now is        9.1 secs

     total energy              =     -31.69628152 Ry
     Harris-Foulkes estimate   =     -31.69628161 Ry
     estimated scf accuracy    <       0.00000390 Ry

     iteration # 49     ecut=    30.00 Ry     beta=0.70
     Davidson diagonalization with overlap
     ethr =  4.87E-08,  avg # of iterations =  1.0

     total cpu time spent up to now is        9.1 secs

     End of self-consistent calculation

          k = 0.0000 0.0000 0.0000 ( 22119 PWs)   bands (ev):

   -23.5984  -8.5390  -6.9179  -6.9113  -6.7706  -4.8558  -0.0974   0.7846

     the Fermi energy is    -6.7426 ev

!    total energy              =     -31.69628159 Ry
     Harris-Foulkes estimate   =     -31.69628157 Ry
     estimated scf accuracy    <          2.5E-09 Ry

     convergence has been achieved in  49 iterations

     Forces acting on atoms (Ry/au):

     atom    1 type  2   force =     0.13643717   -0.00508657    0.07246393
     atom    2 type  1   force =    -0.13615685    0.00566798   -0.07257348
     atom    3 type  1   force =    -0.00028032   -0.00058141    0.00010955

     Total force =     0.218472     Total SCF correction =     0.000032

     Entering Dynamics:    iteration =     4
                           time      =   0.0194 pico-seconds


     Andersen thermostat:    3 collisions

ATOMIC_POSITIONS (bohr)
O        4.481915950   2.263553440   3.976899299
H        6.288246858   2.393262500   4.552063954
H        9.793498791  16.468825351  -0.429589567


     kinetic energy (Ekin) =     0.05904815 Ry
     temperature           =  3107.65130457 K 
     Ekin + Etot (const)   =   -31.63723345 Ry
     Message from routine dynamics:
     Total linear momentum <> 0

     Linear momentum :   -0.0194252615   -0.1010776577   -0.1957668723

     Writing output data file pwscf.save

     second order wave-functions extrapolation
     Check: negative starting charge=   -0.341424
     second order charge density extrapolation
     Check: negative starting charge=   -0.346405

     negative rho (up, down):  3.846E-01 0.000E+00

     total cpu time spent up to now is        9.6 secs

     per-process dynamical memory:    20.4 Mb

     Self-consistent Calculation

     iteration #  1     ecut=    30.00 Ry     beta=0.70
     Davidson diagonalization with overlap
     ethr =  1.00E-06,  avg # of iterations = 16.0

     negative rho (up, down):  6.824E-02 0.000E+00

     total cpu time spent up to now is        9.8 secs

     total energy              =      22.31865933 Ry
     Harris-Foulkes estimate   =    -132.57090391 Ry
     estimated scf accuracy    <      13.93897779 Ry

     iteration #  2     ecut=    30.00 Ry     beta=0.70
     Davidson diagonalization with overlap
     ethr =  1.00E-02,  avg # of iterations =  5.0

     negative rho (up, down):  3.321E-02 0.000E+00

     total cpu time spent up to now is        9.9 secs

     total energy              =      35.39237841 Ry
     Harris-Foulkes estimate   =    -168.82609112 Ry
     estimated scf accuracy    <      15.49662029 Ry

     iteration #  3     ecut=    30.00 Ry     beta=0.70
     Davidson diagonalization with overlap
     ethr =  1.00E-02,  avg # of iterations =  5.0

     negative rho (up, down):  3.073E-02 0.000E+00

     total cpu time spent up to now is        9.9 secs

     total energy              =     -34.48016003 Ry
     Harris-Foulkes estimate   =     -41.42340436 Ry
     estimated scf accuracy    <      15.76597154 Ry

     iteration #  4     ecut=    30.00 Ry     beta=0.70
     Davidson diagonalization with overlap
     ethr =  1.00E-02,  avg # of iterations =  2.0

     negative rho (up, down):  2.480E-02 0.000E+00

     total cpu time spent up to now is       10.0 secs

     total energy              =     -32.41413371 Ry
     Harris-Foulkes estimate   =     -34.86606515 Ry
     estimated scf accuracy    <       5.73223887 Ry

     iteration #  5     ecut=    30.00 Ry     beta=0.70
     Davidson diagonalization with overlap
     ethr =  1.00E-02,  avg # of iterations =  3.0

     negative rho (up, down):  1.330E-01 0.000E+00

     total cpu time spent up to now is       10.0 secs

     total energy              =     -31.67020346 Ry
     Harris-Foulkes estimate   =     -32.52314881 Ry
     estimated scf accuracy    <       2.02543573 Ry

     iteration #  6     ecut=    30.00 Ry     beta=0.70
     Davidson diagonalization with overlap
     ethr =  1.00E-02,  avg # of iterations =  4.0

     negative rho (up, down):  6.899E-02 0.000E+00

     total cpu time spent up to now is       10.1 secs

     total energy              =     -25.14362714 Ry
     Harris-Foulkes estimate   =     -43.22545452 Ry
     estimated scf accuracy    <      11.13887110 Ry

     iteration #  7     ecut=    30.00 Ry     beta=0.70
     Davidson diagonalization with overlap
     ethr =  1.00E-02,  avg # of iterations =  5.0

     negative rho (up, down):  4.695E-02 0.000E+00

     total cpu time spent up to now is       10.2 secs

     total energy              =      -6.33207986 Ry
     Harris-Foulkes estimate   =     -68.13501298 Ry
     estimated scf accuracy    <      18.49769027 Ry

     iteration #  8     ecut=    30.00 Ry     beta=0.70
     Davidson diagonalization with overlap
     ethr =  1.00E-02,  avg # of iterations =  5.0

     negative rho (up, down):  3.002E-02 0.000E+00

     total cpu time spent up to now is       10.2 secs

     total energy              =     706.31539088 Ry
     Harris-Foulkes estimate   =     -38.96007965 Ry
     estimated scf accuracy    <       9.16549702 Ry

     iteration #  9     ecut=    30.00 Ry     beta=0.70
     Davidson diagonalization with overlap
     ethr =  1.00E-02,  avg # of iterations =  4.0

     negative rho (up, down):  2.729E-02 0.000E+00

     total cpu time spent up to now is       10.3 secs

     total energy              =     356.56473311 Ry
     Harris-Foulkes estimate   =     -56.59671458 Ry
     estimated scf accuracy    <       9.17179865 Ry

     iteration # 10     ecut=    30.00 Ry     beta=0.70
     Davidson diagonalization with overlap
     ethr =  1.00E-02,  avg # of iterations =  4.0

     negative rho (up, down):  3.775E-01 0.000E+00

     total cpu time spent up to now is       10.4 secs

     total energy              =     -23.80596527 Ry
     Harris-Foulkes estimate   =     -42.97254580 Ry
     estimated scf accuracy    <       9.26914942 Ry

     iteration # 11     ecut=    30.00 Ry     beta=0.70
     Davidson diagonalization with overlap
     ethr =  1.00E-02,  avg # of iterations =  6.0

     negative rho (up, down):  1.020E-01 0.000E+00

     total cpu time spent up to now is       10.4 secs

     total energy              =      -3.72438947 Ry
     Harris-Foulkes estimate   =     -77.20054712 Ry
     estimated scf accuracy    <      28.34103128 Ry

     iteration # 12     ecut=    30.00 Ry     beta=0.70
     Davidson diagonalization with overlap
     ethr =  1.00E-02,  avg # of iterations =  6.0

     negative rho (up, down):  3.987E-01 0.000E+00

     total cpu time spent up to now is       10.5 secs

     total energy              =      21.95056544 Ry
     Harris-Foulkes estimate   =    -265.18812299 Ry
     estimated scf accuracy    <      76.46384098 Ry

     iteration # 13     ecut=    30.00 Ry     beta=0.70
     Davidson diagonalization with overlap
     ethr =  1.00E-02,  avg # of iterations =  6.0

     negative rho (up, down):  5.556E-02 0.000E+00

     total cpu time spent up to now is       10.6 secs

     total energy              =      68.67572502 Ry
     Harris-Foulkes estimate   =     -65.96652027 Ry
     estimated scf accuracy    <      61.58513866 Ry

     iteration # 14     ecut=    30.00 Ry     beta=0.70
     Davidson diagonalization with overlap
     ethr =  1.00E-02,  avg # of iterations =  5.0

     negative rho (up, down):  7.729E-01 0.000E+00

     total cpu time spent up to now is       10.7 secs

     total energy              =   -2122.02897425 Ry
     Harris-Foulkes estimate   =    -122.35825531 Ry
     estimated scf accuracy    <      31.46913178 Ry

     iteration # 15     ecut=    30.00 Ry     beta=0.70
     Davidson diagonalization with overlap
     ethr =  1.00E-02,  avg # of iterations =  7.0

     negative rho (up, down):  7.989E-01 0.000E+00

     total cpu time spent up to now is       10.8 secs

     total energy              =   -4141.56851599 Ry
     Harris-Foulkes estimate   =  -32201.50311637 Ry
     estimated scf accuracy    <      52.62651456 Ry

     iteration # 16     ecut=    30.00 Ry     beta=0.70
     Davidson diagonalization with overlap
     ethr =  1.00E-02,  avg # of iterations =  7.0

     negative rho (up, down):  8.203E-01 0.000E+00

     total cpu time spent up to now is       10.8 secs

     total energy              =   -1563.68908862 Ry
     Harris-Foulkes estimate   =   -7658.25048302 Ry
     estimated scf accuracy    <      42.82588991 Ry

     iteration # 17     ecut=    30.00 Ry     beta=0.70
     Davidson diagonalization with overlap
     ethr =  1.00E-02,  avg # of iterations =  6.0

     negative rho (up, down):  1.056E+00 0.000E+00

     total cpu time spent up to now is       10.9 secs

     total energy              =    -717.69116680 Ry
     Harris-Foulkes estimate   =   -8656.12645256 Ry
     estimated scf accuracy    <      47.97127958 Ry

     iteration # 18     ecut=    30.00 Ry     beta=0.70
     Davidson diagonalization with overlap
     ethr =  1.00E-02,  avg # of iterations =  7.0

     negative rho (up, down):  1.207E+00 0.000E+00

     total cpu time spent up to now is       11.0 secs

     total energy              =   -4025.12681208 Ry
     Harris-Foulkes estimate   =   -6014.41689485 Ry
     estimated scf accuracy    <      41.08338896 Ry

     iteration # 19     ecut=    30.00 Ry     beta=0.70
     Davidson diagonalization with overlap
     ethr =  1.00E-02,  avg # of iterations =  7.0

     negative rho (up, down):  2.022E+00 0.000E+00

     total cpu time spent up to now is       11.1 secs

     total energy              =    -750.89133179 Ry
     Harris-Foulkes estimate   =  -14168.74338572 Ry
     estimated scf accuracy    <      50.06453918 Ry

     iteration # 20     ecut=    30.00 Ry     beta=0.70
     Davidson diagonalization with overlap
     ethr =  1.00E-02,  avg # of iterations =  8.0

     negative rho (up, down):  1.914E+00 0.000E+00

     total cpu time spent up to now is       11.2 secs

     total energy              =     -36.81149583 Ry
     Harris-Foulkes estimate   =   -2676.36999118 Ry
     estimated scf accuracy    <      40.70285810 Ry

     iteration # 21     ecut=    30.00 Ry     beta=0.70
     Davidson diagonalization with overlap
     ethr =  1.00E-02,  avg # of iterations =  7.0

     negative rho (up, down):  1.717E+00 0.000E+00

     total cpu time spent up to now is       11.3 secs

     total energy              =      85.26984895 Ry
     Harris-Foulkes estimate   =  -10959.92063178 Ry
     estimated scf accuracy    <      25.37502030 Ry

     iteration # 22     ecut=    30.00 Ry     beta=0.70
     Davidson diagonalization with overlap
     ethr =  1.00E-02,  avg # of iterations =  7.0

     negative rho (up, down):  1.255E+00 0.000E+00

     total cpu time spent up to now is       11.4 secs

     total energy              =   -4100.36904954 Ry
     Harris-Foulkes estimate   =    -858.59028617 Ry
     estimated scf accuracy    <      24.65235606 Ry

     iteration # 23     ecut=    30.00 Ry     beta=0.70
     Davidson diagonalization with overlap
     ethr =  1.00E-02,  avg # of iterations =  8.0

     negative rho (up, down):  4.467E-01 0.000E+00

     total cpu time spent up to now is       11.4 secs

     total energy              =      27.04271933 Ry
     Harris-Foulkes estimate   =  -37258.31630913 Ry
     estimated scf accuracy    <      30.42122934 Ry

     iteration # 24     ecut=    30.00 Ry     beta=0.70
     Davidson diagonalization with overlap
     ethr =  1.00E-02,  avg # of iterations =  9.0

     negative rho (up, down):  3.021E-01 0.000E+00

     total cpu time spent up to now is       11.5 secs

     total energy              =      59.81128356 Ry
     Harris-Foulkes estimate   =   -2733.81221012 Ry
     estimated scf accuracy    <      26.42522883 Ry

     iteration # 25     ecut=    30.00 Ry     beta=0.70
     Davidson diagonalization with overlap
     ethr =  1.00E-02,  avg # of iterations = 10.0

     negative rho (up, down):  2.699E-01 0.000E+00

     total cpu time spent up to now is       11.6 secs

     total energy              =      -9.48924378 Ry
     Harris-Foulkes estimate   =    -639.20592364 Ry
     estimated scf accuracy    <      33.98691662 Ry

     iteration # 26     ecut=    30.00 Ry     beta=0.70
     Davidson diagonalization with overlap
     ethr =  1.00E-02,  avg # of iterations = 10.0

     negative rho (up, down):  1.490E-01 0.000E+00

     total cpu time spent up to now is       11.7 secs

     total energy              =      -0.17427332 Ry
     Harris-Foulkes estimate   =   -1788.58419520 Ry
     estimated scf accuracy    <      23.79425634 Ry

     iteration # 27     ecut=    30.00 Ry     beta=0.70
     Davidson diagonalization with overlap
     ethr =  1.00E-02,  avg # of iterations =  6.0

     negative rho (up, down):  6.989E-02 0.000E+00

     total cpu time spent up to now is       11.8 secs

     total energy              =     118.97826163 Ry
     Harris-Foulkes estimate   =   -1169.75080524 Ry
     estimated scf accuracy    <      23.66960406 Ry

     iteration # 28     ecut=    30.00 Ry     beta=0.70
     Davidson diagonalization with overlap
     ethr =  1.00E-02,  avg # of iterations =  8.0

     negative rho (up, down):  7.385E-03 0.000E+00

     total cpu time spent up to now is       11.9 secs

     total energy              =     132.77733293 Ry
     Harris-Foulkes estimate   =    -529.56301644 Ry
     estimated scf accuracy    <      23.42689590 Ry

     iteration # 29     ecut=    30.00 Ry     beta=0.70
     Davidson diagonalization with overlap
[...]
     Harris-Foulkes estimate   =   -5345.91667676 Ry
     estimated scf accuracy    <      30.74361506 Ry

     iteration # 59     ecut=    30.00 Ry     beta=0.70
     Davidson diagonalization with overlap
     ethr =  1.00E-02,  avg # of iterations =  9.0

     negative rho (up, down):  7.970E-02 0.000E+00

     total cpu time spent up to now is       14.5 secs

     total energy              =      44.57429882 Ry
     Harris-Foulkes estimate   =   -1074.85615993 Ry
     estimated scf accuracy    <      23.82768294 Ry

     iteration # 60     ecut=    30.00 Ry     beta=0.70
     Davidson diagonalization with overlap
     ethr =  1.00E-02,  avg # of iterations =  7.0

     negative rho (up, down):  8.071E-02 0.000E+00

     total cpu time spent up to now is       14.6 secs

     total energy              =     -25.68143254 Ry
     Harris-Foulkes estimate   =    -105.68487266 Ry
     estimated scf accuracy    <      37.99425080 Ry

     iteration # 61     ecut=    30.00 Ry     beta=0.70
     Davidson diagonalization with overlap
     ethr =  1.00E-02,  avg # of iterations =  6.0

     negative rho (up, down):  5.420E-02 0.000E+00

     total cpu time spent up to now is       14.6 secs

     total energy              =      75.76147833 Ry
     Harris-Foulkes estimate   =    -374.13014751 Ry
     estimated scf accuracy    <      24.76530950 Ry

     iteration # 62     ecut=    30.00 Ry     beta=0.70
     Davidson diagonalization with overlap
     ethr =  1.00E-02,  avg # of iterations =  6.0

     negative rho (up, down):  1.754E-02 0.000E+00

     total cpu time spent up to now is       14.7 secs

     total energy              =    -101.99375968 Ry
     Harris-Foulkes estimate   =    -617.77012688 Ry
     estimated scf accuracy    <      30.99484493 Ry

     iteration # 63     ecut=    30.00 Ry     beta=0.70
     Davidson diagonalization with overlap
     ethr =  1.00E-02,  avg # of iterations =  3.0

     negative rho (up, down):  9.227E-02 0.000E+00

     total cpu time spent up to now is       14.8 secs

     total energy              =     -27.33383754 Ry
     Harris-Foulkes estimate   =    -702.09185436 Ry
     estimated scf accuracy    <      34.22480619 Ry

     iteration # 64     ecut=    30.00 Ry     beta=0.70
     Davidson diagonalization with overlap
     ethr =  1.00E-02,  avg # of iterations =  4.0

     negative rho (up, down):  7.355E-01 0.000E+00

     total cpu time spent up to now is       14.8 secs

     total energy              =     -43.56271344 Ry
     Harris-Foulkes estimate   =    -913.55922319 Ry
     estimated scf accuracy    <      32.99218061 Ry

     iteration # 65     ecut=    30.00 Ry     beta=0.70
     Davidson diagonalization with overlap
     ethr =  1.00E-02,  avg # of iterations =  9.0

     negative rho (up, down):  6.651E-01 0.000E+00

     total cpu time spent up to now is       14.9 secs

     total energy              =     114.18777857 Ry
     Harris-Foulkes estimate   =   -3468.72089021 Ry
     estimated scf accuracy    <      34.23940921 Ry

     iteration # 66     ecut=    30.00 Ry     beta=0.70
     Davidson diagonalization with overlap
     ethr =  1.00E-02,  avg # of iterations =  9.0

     negative rho (up, down):  6.072E-01 0.000E+00

     total cpu time spent up to now is       15.0 secs

     total energy              =      74.75279309 Ry
     Harris-Foulkes estimate   =    -809.98307897 Ry
     estimated scf accuracy    <      23.99269685 Ry

     iteration # 67     ecut=    30.00 Ry     beta=0.70
     Davidson diagonalization with overlap
     ethr =  1.00E-02,  avg # of iterations =  8.0

     negative rho (up, down):  6.962E-01 0.000E+00

     total cpu time spent up to now is       15.1 secs

     total energy              =      43.67811455 Ry
     Harris-Foulkes estimate   =     -95.82918595 Ry
     estimated scf accuracy    <      31.98106794 Ry

     iteration # 68     ecut=    30.00 Ry     beta=0.70
     Davidson diagonalization with overlap
     ethr =  1.00E-02,  avg # of iterations = 10.0

     negative rho (up, down):  9.143E-01 0.000E+00

     total cpu time spent up to now is       15.2 secs

     total energy              =      18.96644046 Ry
     Harris-Foulkes estimate   =    -217.32633806 Ry
     estimated scf accuracy    <      23.91169676 Ry

     iteration # 69     ecut=    30.00 Ry     beta=0.70
     Davidson diagonalization with overlap
     ethr =  1.00E-02,  avg # of iterations =  9.0

     negative rho (up, down):  6.837E-02 0.000E+00

     total cpu time spent up to now is       15.3 secs

     total energy              =    -192.62002864 Ry
     Harris-Foulkes estimate   =    -939.44934796 Ry
     estimated scf accuracy    <      37.46567635 Ry

     iteration # 70     ecut=    30.00 Ry     beta=0.70
     Davidson diagonalization with overlap
     ethr =  1.00E-02,  avg # of iterations =  8.0

     negative rho (up, down):  1.557E-02 0.000E+00

     total cpu time spent up to now is       15.4 secs

     total energy              =     137.93452627 Ry
     Harris-Foulkes estimate   =   -5032.19983512 Ry
     estimated scf accuracy    <      39.86407361 Ry

     iteration # 71     ecut=    30.00 Ry     beta=0.70
     Davidson diagonalization with overlap
     ethr =  1.00E-02,  avg # of iterations =  8.0

     negative rho (up, down):  2.385E-01 0.000E+00

     total cpu time spent up to now is       15.4 secs

     total energy              =     -61.81037816 Ry
     Harris-Foulkes estimate   =     -64.32104313 Ry
     estimated scf accuracy    <      43.35491323 Ry

     iteration # 72     ecut=    30.00 Ry     beta=0.70
     Davidson diagonalization with overlap
     ethr =  1.00E-02,  avg # of iterations =  4.0

     negative rho (up, down):  7.895E-02 0.000E+00

     total cpu time spent up to now is       15.5 secs

     total energy              =      38.09015532 Ry
     Harris-Foulkes estimate   =   -1396.40115106 Ry
     estimated scf accuracy    <      14.08379025 Ry

     iteration # 73     ecut=    30.00 Ry     beta=0.70
     Davidson diagonalization with overlap
     ethr =  1.00E-02,  avg # of iterations =  9.0

     negative rho (up, down):  1.511E-01 0.000E+00

     total cpu time spent up to now is       15.6 secs

     total energy              =   -6029.98501283 Ry
     Harris-Foulkes estimate   =     -63.94296719 Ry
     estimated scf accuracy    <      20.73026700 Ry

     iteration # 74     ecut=    30.00 Ry     beta=0.70
     Davidson diagonalization with overlap
     ethr =  1.00E-02,  avg # of iterations =  4.0

     negative rho (up, down):  9.882E-02 0.000E+00

     total cpu time spent up to now is       15.6 secs

     total energy              =   -1872.44705476 Ry
     Harris-Foulkes estimate   =  -22185.39310375 Ry
     estimated scf accuracy    <      18.49532252 Ry

     iteration # 75     ecut=    30.00 Ry     beta=0.70
     Davidson diagonalization with overlap
     ethr =  1.00E-02,  avg # of iterations =  5.0

     negative rho (up, down):  7.342E-02 0.000E+00

     total cpu time spent up to now is       15.7 secs

     total energy              =     -24.24758828 Ry
     Harris-Foulkes estimate   =   -4007.19226539 Ry
     estimated scf accuracy    <      11.04752886 Ry

     iteration # 76     ecut=    30.00 Ry     beta=0.70
     Davidson diagonalization with overlap
     ethr =  1.00E-02,  avg # of iterations =  5.0

     negative rho (up, down):  4.804E-02 0.000E+00

     total cpu time spent up to now is       15.8 secs

     total energy              =     -60.34920763 Ry
     Harris-Foulkes estimate   =   -1202.66674829 Ry
     estimated scf accuracy    <      15.95271669 Ry

     iteration # 77     ecut=    30.00 Ry     beta=0.70
     Davidson diagonalization with overlap
     ethr =  1.00E-02,  avg # of iterations =  3.0

     negative rho (up, down):  7.735E-04 0.000E+00

     total cpu time spent up to now is       15.8 secs

     total energy              =      -5.43096998 Ry
     Harris-Foulkes estimate   =    -162.42937855 Ry
     estimated scf accuracy    <      16.46076818 Ry

     iteration # 78     ecut=    30.00 Ry     beta=0.70
     Davidson diagonalization with overlap
     ethr =  1.00E-02,  avg # of iterations =  5.0

     negative rho (up, down):  5.475E-02 0.000E+00

     total cpu time spent up to now is       15.9 secs

     total energy              =     -53.36606853 Ry
     Harris-Foulkes estimate   =     -56.01623241 Ry
     estimated scf accuracy    <      33.13400113 Ry

     iteration # 79     ecut=    30.00 Ry     beta=0.70
     Davidson diagonalization with overlap
     ethr =  1.00E-02,  avg # of iterations =  4.0

     negative rho (up, down):  7.634E-02 0.000E+00

     total cpu time spent up to now is       16.0 secs

     total energy              =      -7.29482204 Ry
     Harris-Foulkes estimate   =    -338.96408192 Ry
     estimated scf accuracy    <      19.24359014 Ry

     iteration # 80     ecut=    30.00 Ry     beta=0.70
     Davidson diagonalization with overlap
     ethr =  1.00E-02,  avg # of iterations = 12.0

     negative rho (up, down):  1.406E-02 0.000E+00

     total cpu time spent up to now is       16.1 secs

     total energy              =      71.84268042 Ry
     Harris-Foulkes estimate   =    -177.91388514 Ry
     estimated scf accuracy    <      18.02161651 Ry

     iteration # 81     ecut=    30.00 Ry     beta=0.70
     Davidson diagonalization with overlap
     ethr =  1.00E-02,  avg # of iterations =  8.0

     negative rho (up, down):  3.925E-02 0.000E+00

     total cpu time spent up to now is       16.1 secs

     total energy              =     -17.19024643 Ry
     Harris-Foulkes estimate   =    -108.17378485 Ry
     estimated scf accuracy    <      16.01870884 Ry

     iteration # 82     ecut=    30.00 Ry     beta=0.70
     Davidson diagonalization with overlap
     ethr =  1.00E-02,  avg # of iterations =  5.0

     negative rho (up, down):  4.573E-02 0.000E+00

     total cpu time spent up to now is       16.2 secs

     total energy              =     -13.40883020 Ry
     Harris-Foulkes estimate   =     -88.37531493 Ry
     estimated scf accuracy    <      13.83193665 Ry

     iteration # 83     ecut=    30.00 Ry     beta=0.70
     Davidson diagonalization with overlap
     ethr =  1.00E-02,  avg # of iterations =  4.0

     negative rho (up, down):  1.889E-02 0.000E+00

     total cpu time spent up to now is       16.3 secs

     total energy              =     -50.67124645 Ry
     Harris-Foulkes estimate   =     -51.56159639 Ry
     estimated scf accuracy    <      27.54230752 Ry

     iteration # 84     ecut=    30.00 Ry     beta=0.70
     Davidson diagonalization with overlap
     ethr =  1.00E-02,  avg # of iterations =  6.0

     negative rho (up, down):  9.908E-03 0.000E+00

     total cpu time spent up to now is       16.3 secs

     total energy              =      36.30679113 Ry
     Harris-Foulkes estimate   =   -1232.92469729 Ry
     estimated scf accuracy    <       9.49538993 Ry

     iteration # 85     ecut=    30.00 Ry     beta=0.70
     Davidson diagonalization with overlap
     ethr =  1.00E-02,  avg # of iterations =  6.0

     negative rho (up, down):  6.850E-02 0.000E+00

     total cpu time spent up to now is       16.4 secs

     total energy              =     -44.36046911 Ry
     Harris-Foulkes estimate   =     -48.04380273 Ry
     estimated scf accuracy    <      22.99321547 Ry

     iteration # 86     ecut=    30.00 Ry     beta=0.70
     Davidson diagonalization with overlap
     ethr =  1.00E-02,  avg # of iterations =  1.0

     negative rho (up, down):  8.113E-02 0.000E+00

     total cpu time spent up to now is       16.4 secs

     total energy              =     -41.72277213 Ry
     Harris-Foulkes estimate   =     -44.38233477 Ry
     estimated scf accuracy    <      18.05967912 Ry

     iteration # 87     ecut=    30.00 Ry     beta=0.70
     Davidson diagonalization with overlap
     ethr =  1.00E-02,  avg # of iterations =  9.0

     negative rho (up, down):  1.128E-02 0.000E+00

     total cpu time spent up to now is       16.5 secs

     total energy              =      42.87680154 Ry
     Harris-Foulkes estimate   =    -148.60079120 Ry
     estimated scf accuracy    <      44.43901614 Ry

     iteration # 88     ecut=    30.00 Ry     beta=0.70
     Davidson diagonalization with overlap
     ethr =  1.00E-02,  avg # of iterations =  6.0

     negative rho (up, down):  1.302E-03 0.000E+00

     total cpu time spent up to now is       16.6 secs

     total energy              =      38.81924871 Ry
     Harris-Foulkes estimate   =    -218.12067779 Ry
     estimated scf accuracy    <      10.24855031 Ry

     iteration # 89     ecut=    30.00 Ry     beta=0.70
     Davidson diagonalization with overlap
     ethr =  1.00E-02,  avg # of iterations =  7.0

     negative rho (up, down):  1.366E-01 0.000E+00

     total cpu time spent up to now is       16.7 secs

     total energy              =     -40.41119493 Ry
     Harris-Foulkes estimate   =     -42.25998198 Ry
     estimated scf accuracy    <      15.48874340 Ry

     iteration # 90     ecut=    30.00 Ry     beta=0.70
     Davidson diagonalization with overlap
     ethr =  1.00E-02,  avg # of iterations =  5.0

     negative rho (up, down):  4.804E-02 0.000E+00

     total cpu time spent up to now is       16.7 secs

     total energy              =      -9.67314844 Ry
     Harris-Foulkes estimate   =     -69.78608566 Ry
     estimated scf accuracy    <       9.83746901 Ry

     iteration # 91     ecut=    30.00 Ry     beta=0.70
     Davidson diagonalization with overlap
     ethr =  1.00E-02,  avg # of iterations =  5.0

     negative rho (up, down):  9.694E-03 0.000E+00

     total cpu time spent up to now is       16.8 secs

     total energy              =      -9.61583057 Ry
     Harris-Foulkes estimate   =     -81.62044331 Ry
     estimated scf accuracy    <       7.08128483 Ry

     iteration # 92     ecut=    30.00 Ry     beta=0.70
     Davidson diagonalization with overlap
     ethr =  1.00E-02,  avg # of iterations =  4.0

     negative rho (up, down):  1.426E-03 0.000E+00

     total cpu time spent up to now is       16.9 secs

     total energy              =      -3.95276712 Ry
     Harris-Foulkes estimate   =     -60.19436763 Ry
     estimated scf accuracy    <       6.69045289 Ry

     iteration # 93     ecut=    30.00 Ry     beta=0.70
     Davidson diagonalization with overlap
     ethr =  1.00E-02,  avg # of iterations =  4.0

     negative rho (up, down):  4.034E-02 0.000E+00

     total cpu time spent up to now is       16.9 secs

     total energy              =     -43.59647408 Ry
     Harris-Foulkes estimate   =     -41.70122003 Ry
     estimated scf accuracy    <      14.65717262 Ry

     iteration # 94     ecut=    30.00 Ry     beta=0.70
     Davidson diagonalization with overlap
     ethr =  1.00E-02,  avg # of iterations =  1.0

     negative rho (up, down):  5.377E-05 0.000E+00

     total cpu time spent up to now is       17.0 secs

     total energy              =     -42.49763486 Ry
     Harris-Foulkes estimate   =     -43.59856409 Ry
     estimated scf accuracy    <      16.78570843 Ry

     iteration # 95     ecut=    30.00 Ry     beta=0.70
     Davidson diagonalization with overlap
     ethr =  1.00E-02,  avg # of iterations =  1.0

     negative rho (up, down):  7.417E-04 0.000E+00

     total cpu time spent up to now is       17.0 secs

     total energy              =     -41.58280416 Ry
     Harris-Foulkes estimate   =     -42.49910005 Ry
     estimated scf accuracy    <      15.66057549 Ry

     iteration # 96     ecut=    30.00 Ry     beta=0.70
     Davidson diagonalization with overlap
     ethr =  1.00E-02,  avg # of iterations =  1.0

     negative rho (up, down):  1.045E+00 0.000E+00

     total cpu time spent up to now is       17.1 secs

     total energy              =    -149.98266761 Ry
     Harris-Foulkes estimate   =     -41.58543787 Ry
     estimated scf accuracy    <      14.45166111 Ry

     iteration # 97     ecut=    30.00 Ry     beta=0.70
     Davidson diagonalization with overlap
     ethr =  1.00E-02,  avg # of iterations =  8.0

     negative rho (up, down):  1.832E+00 0.000E+00

     total cpu time spent up to now is       17.2 secs

     total energy              =    -685.27956513 Ry
     Harris-Foulkes estimate   =   -1186.38798642 Ry
     estimated scf accuracy    <      46.30899931 Ry

     iteration # 98     ecut=    30.00 Ry     beta=0.70
     Davidson diagonalization with overlap
     ethr =  1.00E-02,  avg # of iterations =  8.0

     negative rho (up, down):  1.569E+00 0.000E+00

     total cpu time spent up to now is       17.3 secs

     total energy              =      12.62938893 Ry
     Harris-Foulkes estimate   =   -1624.16197050 Ry
     estimated scf accuracy    <      62.10820928 Ry

     iteration # 99     ecut=    30.00 Ry     beta=0.70
     Davidson diagonalization with overlap
     ethr =  1.00E-02,  avg # of iterations =  6.0

     negative rho (up, down):  2.215E-03 0.000E+00

     total cpu time spent up to now is       17.3 secs

     total energy              =     103.66404628 Ry
     Harris-Foulkes estimate   =    -781.80662062 Ry
     estimated scf accuracy    <      47.03351771 Ry

     iteration #100     ecut=    30.00 Ry     beta=0.70
     Davidson diagonalization with overlap
     ethr =  1.00E-02,  avg # of iterations = 12.0

     negative rho (up, down):  4.801E-02 0.000E+00

     total cpu time spent up to now is       17.4 secs

     total energy              =     -33.66675235 Ry
     Harris-Foulkes estimate   =     -38.60490620 Ry
     estimated scf accuracy    <      10.92269112 Ry

     End of self-consistent calculation

     convergence NOT achieved after 100 iterations: stopping

     Writing output data file pwscf.save
 
     init_run     :      0.17s CPU      0.19s WALL (       1 calls)
     electrons    :     13.36s CPU     15.70s WALL (       5 calls)
     update_pot   :      0.80s CPU      1.02s WALL (       4 calls)
     forces       :      0.18s CPU      0.19s WALL (       4 calls)

     Called by init_run:
     wfcinit      :      0.01s CPU      0.02s WALL (       1 calls)
     potinit      :      0.05s CPU      0.05s WALL (       1 calls)

     Called by electrons:
     c_bands      :      6.99s CPU      7.22s WALL (     242 calls)
     sum_band     :      1.24s CPU      1.29s WALL (     242 calls)
     v_of_rho     :      3.06s CPU      3.18s WALL (     247 calls)
     mix_rho      :      1.77s CPU      3.33s WALL (     242 calls)

     Called by c_bands:
     init_us_2    :      0.04s CPU      0.05s WALL (     485 calls)
     cegterg      :      6.92s CPU      7.09s WALL (     242 calls)

     Called by sum_band:

     Called by *egterg:
     h_psi        :      5.83s CPU      5.93s WALL (    1225 calls)
     g_psi        :      0.07s CPU      0.07s WALL (     982 calls)
     cdiaghg      :      0.45s CPU      0.47s WALL (    1220 calls)

     Called by h_psi:
     h_psi:pot    :      5.79s CPU      5.89s WALL (    1225 calls)
     h_psi:calbec :      0.04s CPU      0.04s WALL (    1225 calls)
     vloc_psi     :      5.73s CPU      5.83s WALL (    1225 calls)
     add_vuspsi   :      0.02s CPU      0.02s WALL (    1225 calls)

     General routines
     calbec       :      0.05s CPU      0.05s WALL (    1244 calls)
     fft          :      1.81s CPU      1.89s WALL (    2725 calls)
     fftw         :      6.02s CPU      6.14s WALL (   15110 calls)
     davcio       :      0.28s CPU      1.38s WALL (    4408 calls)
 
     Parallel routines
     fft_scatter  :      2.33s CPU      2.44s WALL (   17835 calls)
 
     PWSCF        :    14.83s CPU        17.58s WALL

 
   This run was terminated on:  15:57:43  13Feb2018            

=------------------------------------------------------------------------------=
   JOB DONE.
=------------------------------------------------------------------------------=
