
     Program PWSCF v.6.0 (svn rev. 13079) starts on 13Feb2018 at 16: 3:46 

     This program is part of the open-source Quantum ESPRESSO suite
     for quantum simulation of materials; please cite
         "P. Giannozzi et al., J. Phys.:Condens. Matter 21 395502 (2009);
          URL http://www.quantum-espresso.org", 
     in publications or presentations arising from this work. More details at
     http://www.quantum-espresso.org/quote

     Parallel version (MPI), running on    28 processors
     R & G space division:  proc/nbgrp/npool/nimage =      28
     Reading input from inputs/MD-H2O-round1/579.in

     Current dimensions of program PWSCF are:
     Max number of different atomic species (ntypx) = 10
     Max number of k-points (npk) =  40000
     Max angular momentum in pseudopotentials (lmaxx) =  3

     Subspace diagonalization in iterative solution of the eigenvalue problem:
     a serial algorithm will be used

 
     Parallelization info
     --------------------
     sticks:   dense  smooth     PW     G-vecs:    dense   smooth      PW
     Min         136     136     33                 6338     6338     787
     Max         137     137     34                 6341     6341     792
     Sum        3809    3809    949               177509   177509   22119
 


     bravais-lattice index     =            1
     lattice parameter (alat)  =      20.0000  a.u.
     unit-cell volume          =    8000.0000 (a.u.)^3
     number of atoms/cell      =            3
     number of atomic types    =            2
     number of electrons       =         8.00
     number of Kohn-Sham states=            8
     kinetic-energy cutoff     =      30.0000  Ry
     charge density cutoff     =     120.0000  Ry
     convergence threshold     =      1.0E-08
     mixing beta               =       0.7000
     number of iterations used =            8  plain     mixing
     Exchange-correlation      = BLYP ( 1  3  1  3 0 0)
     nstep                     =         5000


     celldm(1)=  20.000000  celldm(2)=   0.000000  celldm(3)=   0.000000
     celldm(4)=   0.000000  celldm(5)=   0.000000  celldm(6)=   0.000000

     crystal axes: (cart. coord. in units of alat)
               a(1) = (   1.000000   0.000000   0.000000 )  
               a(2) = (   0.000000   1.000000   0.000000 )  
               a(3) = (   0.000000   0.000000   1.000000 )  

     reciprocal axes: (cart. coord. in units 2 pi/alat)
               b(1) = (  1.000000  0.000000  0.000000 )  
               b(2) = (  0.000000  1.000000  0.000000 )  
               b(3) = (  0.000000  0.000000  1.000000 )  


     PseudoPot. # 1 for  H read from file:
     ./H.blyp-hgh.UPF
     MD5 check sum: c576e69559cde411e611be972c763230
     Pseudo is Norm-conserving, Zval =  1.0
     Generated in analytical, separable form
     Using radial grid of  929 points,  0 beta functions with: 

     PseudoPot. # 2 for  O read from file:
     ./O.blyp-hgh.UPF
     MD5 check sum: d0b7156309aa9befef28faac7bc56342
     Pseudo is Norm-conserving, Zval =  6.0
     Generated in analytical, separable form
     Using radial grid of 1095 points,  1 beta functions with: 
                l(1) =   0

     atomic species   valence    mass     pseudopotential
        H              1.00     1.01000      H( 1.00)
        O              6.00    16.00000      O( 1.00)

     No symmetry found



   Cartesian axes

     site n.     atom                  positions (alat units)
         1           O   tau(   1) = (   0.8401959   0.1200525   0.3321571  )
         2           H   tau(   2) = (   0.5363033   0.4513435   0.9836647  )
         3           H   tau(   3) = (   0.5020313   0.4622238  -0.0505339  )

     number of k points=     1  Marzari-Vanderbilt smearing, width (Ry)=  0.0250
                       cart. coord. in units 2pi/alat
        k(    1) = (   0.0000000   0.0000000   0.0000000), wk =   2.0000000

     Dense  grid:   177509 G-vectors     FFT dimensions: (  72,  72,  72)

     Estimated max dynamical RAM per process >       6.09Mb

     Estimated total allocated dynamical RAM >     170.64Mb

     Initial potential from superposition of free atoms
     Check: negative starting charge=   -0.366951

     starting charge    7.99998, renormalised to    8.00000

     negative rho (up, down):  3.670E-01 0.000E+00
     Starting wfc are    6 randomized atomic wfcs +    2 random wfc

     total cpu time spent up to now is        0.4 secs

     per-process dynamical memory:    18.8 Mb

     Self-consistent Calculation

     iteration #  1     ecut=    30.00 Ry     beta=0.70
     Davidson diagonalization with overlap
     ethr =  1.00E-02,  avg # of iterations =  5.0

     negative rho (up, down):  9.584E-02 0.000E+00

     total cpu time spent up to now is        0.4 secs

     total energy              =     -31.50265967 Ry
     Harris-Foulkes estimate   =     -32.31651869 Ry
     estimated scf accuracy    <       0.86050083 Ry

     iteration #  2     ecut=    30.00 Ry     beta=0.70
     Davidson diagonalization with overlap
     ethr =  1.00E-02,  avg # of iterations =  2.0

     negative rho (up, down):  4.269E-02 0.000E+00

     total cpu time spent up to now is        0.5 secs

     total energy              =     -31.75686301 Ry
     Harris-Foulkes estimate   =     -31.79302778 Ry
     estimated scf accuracy    <       0.13734858 Ry

     iteration #  3     ecut=    30.00 Ry     beta=0.70
     Davidson diagonalization with overlap
     ethr =  1.72E-03,  avg # of iterations =  3.0

     negative rho (up, down):  2.386E-02 0.000E+00

     total cpu time spent up to now is        0.6 secs

     total energy              =     -31.78826370 Ry
     Harris-Foulkes estimate   =     -31.78087203 Ry
     estimated scf accuracy    <       0.04426386 Ry

     iteration #  4     ecut=    30.00 Ry     beta=0.70
     Davidson diagonalization with overlap
     ethr =  5.53E-04,  avg # of iterations =  1.0

     negative rho (up, down):  6.365E-03 0.000E+00

     total cpu time spent up to now is        0.6 secs

     total energy              =     -31.81015956 Ry
     Harris-Foulkes estimate   =     -31.79525846 Ry
     estimated scf accuracy    <       0.01562556 Ry

     iteration #  5     ecut=    30.00 Ry     beta=0.70
     Davidson diagonalization with overlap
     ethr =  1.95E-04,  avg # of iterations =  7.0

     negative rho (up, down):  9.270E-05 0.000E+00

     total cpu time spent up to now is        0.7 secs

     total energy              =     -31.81617996 Ry
     Harris-Foulkes estimate   =     -31.81132529 Ry
     estimated scf accuracy    <       0.00012408 Ry

     iteration #  6     ecut=    30.00 Ry     beta=0.70
     Davidson diagonalization with overlap
     ethr =  1.55E-06,  avg # of iterations = 19.0

     negative rho (up, down):  2.295E-05 0.000E+00

     total cpu time spent up to now is        0.8 secs

     total energy              =     -31.81620593 Ry
     Harris-Foulkes estimate   =     -31.81620597 Ry
     estimated scf accuracy    <       0.00005265 Ry

     iteration #  7     ecut=    30.00 Ry     beta=0.70
     Davidson diagonalization with overlap
     ethr =  6.58E-07,  avg # of iterations =  1.0

     negative rho (up, down):  2.068E-08 0.000E+00

     total cpu time spent up to now is        0.8 secs

     total energy              =     -31.81621754 Ry
     Harris-Foulkes estimate   =     -31.81620987 Ry
     estimated scf accuracy    <       0.00000224 Ry

     iteration #  8     ecut=    30.00 Ry     beta=0.70
     Davidson diagonalization with overlap
     ethr =  2.80E-08,  avg # of iterations =  2.0

     total cpu time spent up to now is        0.9 secs

     total energy              =     -31.81621964 Ry
     Harris-Foulkes estimate   =     -31.81621859 Ry
     estimated scf accuracy    <       0.00000072 Ry

     iteration #  9     ecut=    30.00 Ry     beta=0.70
     Davidson diagonalization with overlap
     ethr =  8.95E-09,  avg # of iterations =  2.0

     total cpu time spent up to now is        0.9 secs

     total energy              =     -31.81621985 Ry
     Harris-Foulkes estimate   =     -31.81621971 Ry
     estimated scf accuracy    <       0.00000009 Ry

     iteration # 10     ecut=    30.00 Ry     beta=0.70
     Davidson diagonalization with overlap
     ethr =  1.08E-09,  avg # of iterations =  2.0

     total cpu time spent up to now is        1.0 secs

     End of self-consistent calculation

          k = 0.0000 0.0000 0.0000 ( 22119 PWs)   bands (ev):

   -25.1081 -11.3687  -8.4118  -8.4116  -8.4110  -0.3665   0.6759   0.9605

     the Fermi energy is    -8.2884 ev

!    total energy              =     -31.81621986 Ry
     Harris-Foulkes estimate   =     -31.81621986 Ry
     estimated scf accuracy    <          8.9E-09 Ry

     convergence has been achieved in  10 iterations

     Forces acting on atoms (Ry/au):

     atom    1 type  2   force =    -0.00004168   -0.00055202   -0.00026662
     atom    2 type  1   force =     0.48285114   -0.15285721    0.48192716
     atom    3 type  1   force =    -0.48280946    0.15340922   -0.48166053

     Total force =     0.988636     Total SCF correction =     0.000115

     Molecular Dynamics Calculation

     Starting temperature  =  1000.00 K

     temperature is controlled by Andersen thermostat
     Collision frequency = 1.0000/timestep
     mass H                =     1.01
     mass O                =    16.00
     Time step             =   100.00 a.u.,  4.8378 femto-seconds

     Entering Dynamics:    iteration =     1
                           time      =   0.0048 pico-seconds


     Andersen thermostat:    3 collisions

ATOMIC_POSITIONS (bohr)
O       16.791394492   2.393429422   6.621319328
H       13.350196071   8.377082658  22.193537776
H        7.614886128  10.014970526  -3.185216087


     kinetic energy (Ekin) =     0.01337019 Ry
     temperature           =   703.66124461 K 
     Ekin + Etot (const)   =   -31.80284966 Ry

     Linear momentum :   -0.0000000000    0.0000000000   -0.0000000000

     Writing output data file pwscf.save
     Check: negative starting charge=   -0.366951
     NEW-OLD atomic charge density approx. for the potential
     Check: negative starting charge=   -0.350381

     negative rho (up, down):  2.560E-01 0.000E+00

     total cpu time spent up to now is        1.3 secs

     per-process dynamical memory:    20.4 Mb

     Self-consistent Calculation

     iteration #  1     ecut=    30.00 Ry     beta=0.70
     Davidson diagonalization with overlap
     c_bands:  1 eigenvalues not converged
     ethr =  1.00E-06,  avg # of iterations = 20.0

     negative rho (up, down):  7.458E-02 0.000E+00

     total cpu time spent up to now is        1.5 secs

     total energy              =     -29.22005157 Ry
     Harris-Foulkes estimate   =     -31.79366890 Ry
     estimated scf accuracy    <       3.24817624 Ry

     iteration #  2     ecut=    30.00 Ry     beta=0.70
     Davidson diagonalization with overlap
     ethr =  1.00E-02,  avg # of iterations =  5.0

     negative rho (up, down):  3.950E-03 0.000E+00

     total cpu time spent up to now is        1.5 secs

     total energy              =     -31.57532958 Ry
     Harris-Foulkes estimate   =     -38.48855615 Ry
     estimated scf accuracy    <      22.26778683 Ry

     iteration #  3     ecut=    30.00 Ry     beta=0.70
     Davidson diagonalization with overlap
     ethr =  1.00E-02,  avg # of iterations =  2.0

     negative rho (up, down):  4.602E-03 0.000E+00

     total cpu time spent up to now is        1.6 secs

     total energy              =     -31.85150430 Ry
     Harris-Foulkes estimate   =     -31.83475111 Ry
     estimated scf accuracy    <      12.21996314 Ry

     iteration #  4     ecut=    30.00 Ry     beta=0.70
     Davidson diagonalization with overlap
     ethr =  1.00E-02,  avg # of iterations =  1.0

     negative rho (up, down):  1.166E-02 0.000E+00

     total cpu time spent up to now is        1.6 secs

     total energy              =     -31.79621382 Ry
     Harris-Foulkes estimate   =     -31.85653288 Ry
     estimated scf accuracy    <      12.19138572 Ry

     iteration #  5     ecut=    30.00 Ry     beta=0.70
     Davidson diagonalization with overlap
     ethr =  1.00E-02,  avg # of iterations =  1.0

     negative rho (up, down):  5.348E-02 0.000E+00

     total cpu time spent up to now is        1.7 secs

     total energy              =     -31.37261521 Ry
     Harris-Foulkes estimate   =     -31.79820029 Ry
     estimated scf accuracy    <      12.09508744 Ry

     iteration #  6     ecut=    30.00 Ry     beta=0.70
     Davidson diagonalization with overlap
     ethr =  1.00E-02,  avg # of iterations =  1.0

     negative rho (up, down):  7.210E-01 0.000E+00

     total cpu time spent up to now is        1.7 secs

     total energy              =     -27.00381844 Ry
     Harris-Foulkes estimate   =     -31.37526820 Ry
     estimated scf accuracy    <      11.55851767 Ry

     iteration #  7     ecut=    30.00 Ry     beta=0.70
     Davidson diagonalization with overlap
     ethr =  1.00E-02,  avg # of iterations =  6.0

     negative rho (up, down):  6.740E-01 0.000E+00

     total cpu time spent up to now is        1.8 secs

     total energy              =     -31.75782189 Ry
     Harris-Foulkes estimate   =     -31.87287805 Ry
     estimated scf accuracy    <       1.90921068 Ry

     iteration #  8     ecut=    30.00 Ry     beta=0.70
     Davidson diagonalization with overlap
     ethr =  1.00E-02,  avg # of iterations =  1.0

     negative rho (up, down):  6.599E-01 0.000E+00

     total cpu time spent up to now is        1.8 secs

     total energy              =     -31.84245453 Ry
     Harris-Foulkes estimate   =     -31.77707770 Ry
     estimated scf accuracy    <       0.93002515 Ry

     iteration #  9     ecut=    30.00 Ry     beta=0.70
     Davidson diagonalization with overlap
     ethr =  1.00E-02,  avg # of iterations =  4.0

     negative rho (up, down):  5.133E-01 0.000E+00

     total cpu time spent up to now is        1.9 secs

     total energy              =     -33.57646549 Ry
     Harris-Foulkes estimate   =     -34.08188331 Ry
     estimated scf accuracy    <       7.13751463 Ry

     iteration # 10     ecut=    30.00 Ry     beta=0.70
     Davidson diagonalization with overlap
     ethr =  1.00E-02,  avg # of iterations =  1.0

     negative rho (up, down):  2.984E-01 0.000E+00

     total cpu time spent up to now is        2.0 secs

     total energy              =     -32.31388624 Ry
     Harris-Foulkes estimate   =     -33.58536082 Ry
     estimated scf accuracy    <       6.26487879 Ry

     iteration # 11     ecut=    30.00 Ry     beta=0.70
     Davidson diagonalization with overlap
     ethr =  1.00E-02,  avg # of iterations =  1.0

     negative rho (up, down):  3.511E-01 0.000E+00

     total cpu time spent up to now is        2.0 secs

     total energy              =     -32.90589590 Ry
     Harris-Foulkes estimate   =     -32.34202583 Ry
     estimated scf accuracy    <       4.18455422 Ry

     iteration # 12     ecut=    30.00 Ry     beta=0.70
     Davidson diagonalization with overlap
     ethr =  1.00E-02,  avg # of iterations =  1.0

     negative rho (up, down):  2.603E-02 0.000E+00

     total cpu time spent up to now is        2.1 secs

     total energy              =     -30.83162277 Ry
     Harris-Foulkes estimate   =     -32.92433162 Ry
     estimated scf accuracy    <       5.04185983 Ry

     iteration # 13     ecut=    30.00 Ry     beta=0.70
     Davidson diagonalization with overlap
     ethr =  1.00E-02,  avg # of iterations =  2.0

     negative rho (up, down):  1.215E-02 0.000E+00

     total cpu time spent up to now is        2.1 secs

     total energy              =     -33.31919063 Ry
     Harris-Foulkes estimate   =     -32.16882428 Ry
     estimated scf accuracy    <       4.80291345 Ry

     iteration # 14     ecut=    30.00 Ry     beta=0.70
     Davidson diagonalization with overlap
     ethr =  1.00E-02,  avg # of iterations =  2.0

     negative rho (up, down):  1.190E-01 0.000E+00

     total cpu time spent up to now is        2.2 secs

     total energy              =     -35.15306398 Ry
     Harris-Foulkes estimate   =     -33.34926343 Ry
     estimated scf accuracy    <       7.05452410 Ry

     iteration # 15     ecut=    30.00 Ry     beta=0.70
     Davidson diagonalization with overlap
     ethr =  1.00E-02,  avg # of iterations =  9.0

     negative rho (up, down):  1.582E-02 0.000E+00

     total cpu time spent up to now is        2.3 secs

     total energy              =     -33.19943295 Ry
     Harris-Foulkes estimate   =     -36.07590041 Ry
     estimated scf accuracy    <      19.06187189 Ry

     iteration # 16     ecut=    30.00 Ry     beta=0.70
     Davidson diagonalization with overlap
     ethr =  1.00E-02,  avg # of iterations =  1.0

     negative rho (up, down):  1.679E-02 0.000E+00

     total cpu time spent up to now is        2.3 secs

     total energy              =     -32.18442454 Ry
     Harris-Foulkes estimate   =     -33.22511470 Ry
     estimated scf accuracy    <      15.16561703 Ry

     iteration # 17     ecut=    30.00 Ry     beta=0.70
     Davidson diagonalization with overlap
     ethr =  1.00E-02,  avg # of iterations =  1.0

     negative rho (up, down):  1.431E-02 0.000E+00

     total cpu time spent up to now is        2.4 secs

     total energy              =     -32.61345886 Ry
     Harris-Foulkes estimate   =     -32.19837556 Ry
     estimated scf accuracy    <      13.45001195 Ry

     iteration # 18     ecut=    30.00 Ry     beta=0.70
     Davidson diagonalization with overlap
     ethr =  1.00E-02,  avg # of iterations =  1.0

     negative rho (up, down):  1.627E-02 0.000E+00

     total cpu time spent up to now is        2.4 secs

     total energy              =     -33.16152470 Ry
     Harris-Foulkes estimate   =     -32.61579975 Ry
     estimated scf accuracy    <      14.08869180 Ry

     iteration # 19     ecut=    30.00 Ry     beta=0.70
     Davidson diagonalization with overlap
     ethr =  1.00E-02,  avg # of iterations =  1.0

     negative rho (up, down):  1.992E-02 0.000E+00

     total cpu time spent up to now is        2.5 secs

     total energy              =     -32.80039301 Ry
     Harris-Foulkes estimate   =     -33.16463141 Ry
     estimated scf accuracy    <      14.90509159 Ry

     iteration # 20     ecut=    30.00 Ry     beta=0.70
     Davidson diagonalization with overlap
     ethr =  1.00E-02,  avg # of iterations =  1.0

     negative rho (up, down):  3.461E-02 0.000E+00

     total cpu time spent up to now is        2.5 secs

     total energy              =     -29.08557502 Ry
     Harris-Foulkes estimate   =     -32.80288499 Ry
     estimated scf accuracy    <      14.40470661 Ry

     iteration # 21     ecut=    30.00 Ry     beta=0.70
     Davidson diagonalization with overlap
     ethr =  1.00E-02,  avg # of iterations =  6.0

     negative rho (up, down):  7.359E-01 0.000E+00

     total cpu time spent up to now is        2.6 secs

     total energy              =     -32.54068055 Ry
     Harris-Foulkes estimate   =     -31.50967893 Ry
     estimated scf accuracy    <       1.07128807 Ry

     iteration # 22     ecut=    30.00 Ry     beta=0.70
     Davidson diagonalization with overlap
     ethr =  1.00E-02,  avg # of iterations =  5.0

     negative rho (up, down):  5.159E-02 0.000E+00

     total cpu time spent up to now is        2.6 secs

     total energy              =     -33.29636415 Ry
     Harris-Foulkes estimate   =     -36.76019583 Ry
     estimated scf accuracy    <      10.61459995 Ry

     iteration # 23     ecut=    30.00 Ry     beta=0.70
     Davidson diagonalization with overlap
     ethr =  1.00E-02,  avg # of iterations =  4.0

     negative rho (up, down):  1.434E-02 0.000E+00

     total cpu time spent up to now is        2.7 secs

     total energy              =     -32.13822434 Ry
     Harris-Foulkes estimate   =     -33.42390908 Ry
     estimated scf accuracy    <       5.80147581 Ry

     iteration # 24     ecut=    30.00 Ry     beta=0.70
     Davidson diagonalization with overlap
     ethr =  1.00E-02,  avg # of iterations =  1.0

     negative rho (up, down):  9.378E-03 0.000E+00

     total cpu time spent up to now is        2.8 secs

     total energy              =     -31.90420752 Ry
     Harris-Foulkes estimate   =     -32.15557357 Ry
     estimated scf accuracy    <       3.85281715 Ry

     iteration # 25     ecut=    30.00 Ry     beta=0.70
     Davidson diagonalization with overlap
     ethr =  1.00E-02,  avg # of iterations =  1.0

     negative rho (up, down):  2.773E-05 0.000E+00

     total cpu time spent up to now is        2.8 secs

     total energy              =     -31.16067278 Ry
     Harris-Foulkes estimate   =     -31.90642856 Ry
     estimated scf accuracy    <       3.44420549 Ry

     iteration # 26     ecut=    30.00 Ry     beta=0.70
     Davidson diagonalization with overlap
     ethr =  1.00E-02,  avg # of iterations =  1.0

     negative rho (up, down):  8.179E-08 0.000E+00

     total cpu time spent up to now is        2.9 secs

     total energy              =     -31.03012549 Ry
     Harris-Foulkes estimate   =     -31.83763273 Ry
     estimated scf accuracy    <       4.25052436 Ry

     iteration # 27     ecut=    30.00 Ry     beta=0.70
     Davidson diagonalization with overlap
     ethr =  1.00E-02,  avg # of iterations =  1.0

     negative rho (up, down):  1.032E-05 0.000E+00

     total cpu time spent up to now is        2.9 secs

     total energy              =     -31.50864825 Ry
     Harris-Foulkes estimate   =     -31.89817614 Ry
     estimated scf accuracy    <       3.36237365 Ry

     iteration # 28     ecut=    30.00 Ry     beta=0.70
     Davidson diagonalization with overlap
     ethr =  1.00E-02,  avg # of iterations =  1.0

     negative rho (up, down):  2.308E-04 0.000E+00

     total cpu time spent up to now is        3.0 secs

     total energy              =     -31.65000545 Ry
     Harris-Foulkes estimate   =     -31.52692782 Ry
     estimated scf accuracy    <       0.91959362 Ry

     iteration # 29     ecut=    30.00 Ry     beta=0.70
     Davidson diagonalization with overlap
     ethr =  1.00E-02,  avg # of iterations =  1.0

     negative rho (up, down):  9.604E-03 0.000E+00

     total cpu time spent up to now is        3.0 secs

     total energy              =     -30.19017963 Ry
     Harris-Foulkes estimate   =     -31.77272344 Ry
     estimated scf accuracy    <       3.12402631 Ry

     iteration # 30     ecut=    30.00 Ry     beta=0.70
     Davidson diagonalization with overlap
     ethr =  1.00E-02,  avg # of iterations =  3.0

     negative rho (up, down):  5.839E-04 0.000E+00

     total cpu time spent up to now is        3.1 secs

     total energy              =     -32.43362031 Ry
     Harris-Foulkes estimate   =     -33.55924673 Ry
     estimated scf accuracy    <      10.38152633 Ry

     iteration # 31     ecut=    30.00 Ry     beta=0.70
     Davidson diagonalization with overlap
     ethr =  1.00E-02,  avg # of iterations =  2.0

     negative rho (up, down):  3.187E-04 0.000E+00

     total cpu time spent up to now is        3.1 secs

     total energy              =     -32.79553795 Ry
     Harris-Foulkes estimate   =     -32.65089194 Ry
     estimated scf accuracy    <       5.60685775 Ry

     iteration # 32     ecut=    30.00 Ry     beta=0.70
     Davidson diagonalization with overlap
     ethr =  1.00E-02,  avg # of iterations =  1.0

     negative rho (up, down):  2.446E-04 0.000E+00

     total cpu time spent up to now is        3.2 secs

     total energy              =     -32.83996800 Ry
     Harris-Foulkes estimate   =     -32.79703199 Ry
     estimated scf accuracy    <       5.77715362 Ry

     iteration # 33     ecut=    30.00 Ry     beta=0.70
     Davidson diagonalization with overlap
     ethr =  1.00E-02,  avg # of iterations =  1.0

     negative rho (up, down):  1.765E-04 0.000E+00

     total cpu time spent up to now is        3.2 secs

     total energy              =     -32.70821783 Ry
     Harris-Foulkes estimate   =     -32.84205506 Ry
     estimated scf accuracy    <       5.86280910 Ry

     iteration # 34     ecut=    30.00 Ry     beta=0.70
     Davidson diagonalization with overlap
     ethr =  1.00E-02,  avg # of iterations =  1.0

     negative rho (up, down):  3.470E-04 0.000E+00

     total cpu time spent up to now is        3.3 secs

     total energy              =     -32.52036790 Ry
     Harris-Foulkes estimate   =     -32.70872414 Ry
     estimated scf accuracy    <       5.65697500 Ry

     iteration # 35     ecut=    30.00 Ry     beta=0.70
     Davidson diagonalization with overlap
     ethr =  1.00E-02,  avg # of iterations =  1.0

     total cpu time spent up to now is        3.3 secs

     total energy              =     -31.56654410 Ry
     Harris-Foulkes estimate   =     -32.52195751 Ry
     estimated scf accuracy    <       5.31463251 Ry

     iteration # 36     ecut=    30.00 Ry     beta=0.70
     Davidson diagonalization with overlap
     ethr =  1.00E-02,  avg # of iterations =  1.0

     negative rho (up, down):  1.211E-03 0.000E+00

     total cpu time spent up to now is        3.4 secs

     total energy              =     -30.68339552 Ry
     Harris-Foulkes estimate   =     -31.58722595 Ry
     estimated scf accuracy    <       3.16187942 Ry

     iteration # 37     ecut=    30.00 Ry     beta=0.70
     Davidson diagonalization with overlap
     ethr =  1.00E-02,  avg # of iterations =  1.0

     total cpu time spent up to now is        3.4 secs

     total energy              =     -31.45008103 Ry
     Harris-Foulkes estimate   =     -32.41453580 Ry
     estimated scf accuracy    <       4.25656554 Ry

     iteration # 38     ecut=    30.00 Ry     beta=0.70
     Davidson diagonalization with overlap
     ethr =  1.00E-02,  avg # of iterations =  1.0

     negative rho (up, down):  3.203E-04 0.000E+00

     total cpu time spent up to now is        3.5 secs

     total energy              =     -31.26993256 Ry
     Harris-Foulkes estimate   =     -31.49980389 Ry
     estimated scf accuracy    <       0.55387696 Ry

     iteration # 39     ecut=    30.00 Ry     beta=0.70
     Davidson diagonalization with overlap
     ethr =  6.92E-03,  avg # of iterations =  1.0

     negative rho (up, down):  9.285E-03 0.000E+00

     total cpu time spent up to now is        3.5 secs

     total energy              =     -32.24701254 Ry
     Harris-Foulkes estimate   =     -32.22503919 Ry
     estimated scf accuracy    <       4.76949008 Ry

     iteration # 40     ecut=    30.00 Ry     beta=0.70
     Davidson diagonalization with overlap
     ethr =  6.92E-03,  avg # of iterations =  1.0

     negative rho (up, down):  5.419E-03 0.000E+00

     total cpu time spent up to now is        3.5 secs

     total energy              =     -31.90742694 Ry
     Harris-Foulkes estimate   =     -32.24799265 Ry
     estimated scf accuracy    <       4.79782282 Ry

     iteration # 41     ecut=    30.00 Ry     beta=0.70
     Davidson diagonalization with overlap
     ethr =  6.92E-03,  avg # of iterations =  1.0

     negative rho (up, down):  7.337E-04 0.000E+00

     total cpu time spent up to now is        3.6 secs

     total energy              =     -31.29382752 Ry
     Harris-Foulkes estimate   =     -31.90968880 Ry
     estimated scf accuracy    <       4.28534463 Ry

     iteration # 42     ecut=    30.00 Ry     beta=0.70
     Davidson diagonalization with overlap
     ethr =  6.92E-03,  avg # of iterations =  1.0

     negative rho (up, down):  8.851E-04 0.000E+00

     total cpu time spent up to now is        3.6 secs

     total energy              =     -31.50302474 Ry
     Harris-Foulkes estimate   =     -31.60321676 Ry
     estimated scf accuracy    <       2.79634378 Ry

     iteration # 43     ecut=    30.00 Ry     beta=0.70
     Davidson diagonalization with overlap
     ethr =  6.92E-03,  avg # of iterations =  1.0

     negative rho (up, down):  6.804E-04 0.000E+00

     total cpu time spent up to now is        3.7 secs

     total energy              =     -31.49183895 Ry
     Harris-Foulkes estimate   =     -31.51377315 Ry
     estimated scf accuracy    <       1.06384985 Ry

     iteration # 44     ecut=    30.00 Ry     beta=0.70
     Davidson diagonalization with overlap
     ethr =  6.92E-03,  avg # of iterations =  1.0

     negative rho (up, down):  9.961E-04 0.000E+00

     total cpu time spent up to now is        3.7 secs

     total energy              =     -31.49389724 Ry
     Harris-Foulkes estimate   =     -31.50175632 Ry
     estimated scf accuracy    <       0.39726060 Ry

     iteration # 45     ecut=    30.00 Ry     beta=0.70
     Davidson diagonalization with overlap
     ethr =  4.97E-03,  avg # of iterations =  1.0

     negative rho (up, down):  3.331E-04 0.000E+00

     total cpu time spent up to now is        3.8 secs

     total energy              =     -30.99013485 Ry
     Harris-Foulkes estimate   =     -31.63654358 Ry
     estimated scf accuracy    <       3.98142763 Ry

     iteration # 46     ecut=    30.00 Ry     beta=0.70
     Davidson diagonalization with overlap
     ethr =  4.97E-03,  avg # of iterations =  1.0

     negative rho (up, down):  2.695E-05 0.000E+00

     total cpu time spent up to now is        3.8 secs

     total energy              =     -31.60759084 Ry
     Harris-Foulkes estimate   =     -31.89221782 Ry
     estimated scf accuracy    <       3.33596472 Ry

     iteration # 47     ecut=    30.00 Ry     beta=0.70
     Davidson diagonalization with overlap
     ethr =  4.97E-03,  avg # of iterations =  1.0

     negative rho (up, down):  2.076E-06 0.000E+00

     total cpu time spent up to now is        3.9 secs

     total energy              =     -31.55784797 Ry
     Harris-Foulkes estimate   =     -31.61097427 Ry
     estimated scf accuracy    <       2.88126018 Ry

     iteration # 48     ecut=    30.00 Ry     beta=0.70
     Davidson diagonalization with overlap
     ethr =  4.97E-03,  avg # of iterations =  1.0

     negative rho (up, down):  5.312E-08 0.000E+00

     total cpu time spent up to now is        3.9 secs

     total energy              =     -31.43867011 Ry
     Harris-Foulkes estimate   =     -31.55855006 Ry
     estimated scf accuracy    <       2.66198267 Ry

     iteration # 49     ecut=    30.00 Ry     beta=0.70
     Davidson diagonalization with overlap
     ethr =  4.97E-03,  avg # of iterations =  1.0

     negative rho (up, down):  1.212E-06 0.000E+00

     total cpu time spent up to now is        4.0 secs

     total energy              =     -31.45296376 Ry
     Harris-Foulkes estimate   =     -31.49937096 Ry
     estimated scf accuracy    <       0.66442786 Ry

     iteration # 50     ecut=    30.00 Ry     beta=0.70
     Davidson diagonalization with overlap
     ethr =  4.97E-03,  avg # of iterations =  1.0

     negative rho (up, down):  1.464E-08 0.000E+00

     total cpu time spent up to now is        4.0 secs

     total energy              =     -31.49923922 Ry
     Harris-Foulkes estimate   =     -31.54293497 Ry
     estimated scf accuracy    <       2.44689902 Ry

     iteration # 51     ecut=    30.00 Ry     beta=0.70
     Davidson diagonalization with overlap
     ethr =  4.97E-03,  avg # of iterations =  1.0

     negative rho (up, down):  4.767E-08 0.000E+00

     total cpu time spent up to now is        4.1 secs

     total energy              =     -31.50372062 Ry
     Harris-Foulkes estimate   =     -31.50642878 Ry
     estimated scf accuracy    <       0.94496236 Ry

     iteration # 52     ecut=    30.00 Ry     beta=0.70
     Davidson diagonalization with overlap
     ethr =  4.97E-03,  avg # of iterations =  1.0

     total cpu time spent up to now is        4.1 secs

     total energy              =     -31.51028643 Ry
     Harris-Foulkes estimate   =     -31.50403054 Ry
     estimated scf accuracy    <       0.73283502 Ry

     iteration # 53     ecut=    30.00 Ry     beta=0.70
     Davidson diagonalization with overlap
     ethr =  4.97E-03,  avg # of iterations =  1.0

     total cpu time spent up to now is        4.2 secs

     total energy              =     -31.51091933 Ry
     Harris-Foulkes estimate   =     -31.51274204 Ry
     estimated scf accuracy    <       1.40700750 Ry

     iteration # 54     ecut=    30.00 Ry     beta=0.70
     Davidson diagonalization with overlap
     ethr =  4.97E-03,  avg # of iterations =  1.0

     total cpu time spent up to now is        4.2 secs

     total energy              =     -31.50558323 Ry
     Harris-Foulkes estimate   =     -31.51099576 Ry
     estimated scf accuracy    <       1.39590812 Ry

     iteration # 55     ecut=    30.00 Ry     beta=0.70
     Davidson diagonalization with overlap
     ethr =  4.97E-03,  avg # of iterations =  1.0

     total cpu time spent up to now is        4.3 secs

     total energy              =     -31.50429859 Ry
     Harris-Foulkes estimate   =     -31.50603226 Ry
     estimated scf accuracy    <       1.18680405 Ry

     iteration # 56     ecut=    30.00 Ry     beta=0.70
     Davidson diagonalization with overlap
     ethr =  4.97E-03,  avg # of iterations =  1.0

     total cpu time spent up to now is        4.3 secs

     total energy              =     -31.49096302 Ry
     Harris-Foulkes estimate   =     -31.50437400 Ry
     estimated scf accuracy    <       1.06400899 Ry

     iteration # 57     ecut=    30.00 Ry     beta=0.70
     Davidson diagonalization with overlap
     ethr =  4.97E-03,  avg # of iterations =  1.0

     total cpu time spent up to now is        4.4 secs

     total energy              =     -31.49490539 Ry
     Harris-Foulkes estimate   =     -31.49420138 Ry
     estimated scf accuracy    <       0.25608072 Ry

     iteration # 58     ecut=    30.00 Ry     beta=0.70
     Davidson diagonalization with overlap
     ethr =  3.20E-03,  avg # of iterations =  1.0

     total cpu time spent up to now is        4.4 secs

     total energy              =     -31.48938750 Ry
     Harris-Foulkes estimate   =     -31.49505900 Ry
     estimated scf accuracy    <       0.33123472 Ry

     iteration # 59     ecut=    30.00 Ry     beta=0.70
     Davidson diagonalization with overlap
     ethr =  3.20E-03,  avg # of iterations =  1.0

     total cpu time spent up to now is        4.5 secs

     total energy              =     -31.49149984 Ry
     Harris-Foulkes estimate   =     -31.49170423 Ry
     estimated scf accuracy    <       0.00818668 Ry

     iteration # 60     ecut=    30.00 Ry     beta=0.70
     Davidson diagonalization with overlap
     ethr =  1.02E-04,  avg # of iterations =  1.0

     total cpu time spent up to now is        4.5 secs

     total energy              =     -31.49162861 Ry
     Harris-Foulkes estimate   =     -31.49164731 Ry
     estimated scf accuracy    <       0.00148658 Ry

     iteration # 61     ecut=    30.00 Ry     beta=0.70
     Davidson diagonalization with overlap
     ethr =  1.86E-05,  avg # of iterations =  1.0

     total cpu time spent up to now is        4.6 secs

     total energy              =     -31.49163551 Ry
     Harris-Foulkes estimate   =     -31.49163989 Ry
     estimated scf accuracy    <       0.00052545 Ry

     iteration # 62     ecut=    30.00 Ry     beta=0.70
     Davidson diagonalization with overlap
     ethr =  6.57E-06,  avg # of iterations = 18.0

     total cpu time spent up to now is        4.6 secs

     total energy              =     -31.49164074 Ry
     Harris-Foulkes estimate   =     -31.49163636 Ry
     estimated scf accuracy    <       0.00035533 Ry

     iteration # 63     ecut=    30.00 Ry     beta=0.70
     Davidson diagonalization with overlap
     ethr =  4.44E-06,  avg # of iterations =  1.0

     total cpu time spent up to now is        4.7 secs

     total energy              =     -31.49167609 Ry
     Harris-Foulkes estimate   =     -31.49165786 Ry
     estimated scf accuracy    <       0.00260328 Ry

     iteration # 64     ecut=    30.00 Ry     beta=0.70
     Davidson diagonalization with overlap
     ethr =  4.44E-06,  avg # of iterations =  1.0

     total cpu time spent up to now is        4.7 secs

     total energy              =     -31.49164738 Ry
     Harris-Foulkes estimate   =     -31.49168691 Ry
     estimated scf accuracy    <       0.00596948 Ry

     iteration # 65     ecut=    30.00 Ry     beta=0.70
     Davidson diagonalization with overlap
     ethr =  4.44E-06,  avg # of iterations =  1.0

     total cpu time spent up to now is        4.8 secs

     total energy              =     -31.49160456 Ry
     Harris-Foulkes estimate   =     -31.49165397 Ry
     estimated scf accuracy    <       0.00260292 Ry

     iteration # 66     ecut=    30.00 Ry     beta=0.70
     Davidson diagonalization with overlap
     ethr =  4.44E-06,  avg # of iterations =  1.0

     total cpu time spent up to now is        4.8 secs

     total energy              =     -31.49162785 Ry
     Harris-Foulkes estimate   =     -31.49162796 Ry
     estimated scf accuracy    <       0.00000628 Ry

     iteration # 67     ecut=    30.00 Ry     beta=0.70
     Davidson diagonalization with overlap
     ethr =  7.85E-08,  avg # of iterations =  1.0

     total cpu time spent up to now is        4.9 secs

     total energy              =     -31.49162772 Ry
     Harris-Foulkes estimate   =     -31.49162801 Ry
     estimated scf accuracy    <       0.00000079 Ry

     iteration # 68     ecut=    30.00 Ry     beta=0.70
     Davidson diagonalization with overlap
     ethr =  9.92E-09,  avg # of iterations =  1.0

     total cpu time spent up to now is        4.9 secs

     total energy              =     -31.49162769 Ry
     Harris-Foulkes estimate   =     -31.49162773 Ry
     estimated scf accuracy    <       0.00000002 Ry

     iteration # 69     ecut=    30.00 Ry     beta=0.70
     Davidson diagonalization with overlap
     ethr =  2.05E-10,  avg # of iterations =  1.0

     total cpu time spent up to now is        5.0 secs

     End of self-consistent calculation

          k = 0.0000 0.0000 0.0000 ( 22119 PWs)   bands (ev):

   -23.6537  -7.0844  -7.0615  -7.0612  -6.9969  -6.8916  -0.2168   0.6310

     the Fermi energy is    -6.9275 ev

!    total energy              =     -31.49162763 Ry
     Harris-Foulkes estimate   =     -31.49162769 Ry
     estimated scf accuracy    <          8.0E-10 Ry

     convergence has been achieved in  69 iterations

     Forces acting on atoms (Ry/au):

     atom    1 type  2   force =    -0.00039383    0.00058363   -0.00122061
     atom    2 type  1   force =    -0.00030977   -0.00059284    0.00030968
     atom    3 type  1   force =     0.00070359    0.00000921    0.00091093

     Total force =     0.001963     Total SCF correction =     0.000120

     Entering Dynamics:    iteration =     2
                           time      =   0.0097 pico-seconds


     Andersen thermostat:    3 collisions

ATOMIC_POSITIONS (bohr)
O       16.793634029   2.378151114   6.616385018
H       13.390627206   8.245097799  22.341032067
H        7.538977188  10.388987983  -3.254543079


     kinetic energy (Ekin) =     0.01104570 Ry
     temperature           =   581.32538386 K 
     Ekin + Etot (const)   =   -31.48058193 Ry
     Message from routine dynamics:
     Total linear momentum <> 0

     Linear momentum :    0.0316409203    0.3676783473    0.1781879288

     Writing output data file pwscf.save

     first order wave-functions extrapolation
     Check: negative starting charge=   -0.350381
     first order charge density extrapolation
     Check: negative starting charge=   -0.350030

     negative rho (up, down):  4.377E-01 0.000E+00

     total cpu time spent up to now is        5.4 secs

     per-process dynamical memory:    20.4 Mb

     Self-consistent Calculation

     iteration #  1     ecut=    30.00 Ry     beta=0.70
     Davidson diagonalization with overlap
     ethr =  1.00E-06,  avg # of iterations = 10.0

     negative rho (up, down):  1.324E-02 0.000E+00

     total cpu time spent up to now is        5.5 secs

     total energy              =     -18.53239063 Ry
     Harris-Foulkes estimate   =     -32.49651626 Ry
     estimated scf accuracy    <      14.69133243 Ry

     iteration #  2     ecut=    30.00 Ry     beta=0.70
     Davidson diagonalization with overlap
     ethr =  1.00E-02,  avg # of iterations =  3.0

     negative rho (up, down):  8.841E-03 0.000E+00

     total cpu time spent up to now is        5.6 secs

     total energy              =     -34.97311476 Ry
     Harris-Foulkes estimate   =     -46.29804302 Ry
     estimated scf accuracy    <      24.12924820 Ry

     iteration #  3     ecut=    30.00 Ry     beta=0.70
     Davidson diagonalization with overlap
     ethr =  1.00E-02,  avg # of iterations =  2.0

     negative rho (up, down):  6.206E-03 0.000E+00

     total cpu time spent up to now is        5.7 secs

     total energy              =     -32.19069523 Ry
     Harris-Foulkes estimate   =     -35.54244105 Ry
     estimated scf accuracy    <       8.65330669 Ry

     iteration #  4     ecut=    30.00 Ry     beta=0.70
     Davidson diagonalization with overlap
     ethr =  1.00E-02,  avg # of iterations =  4.0

     negative rho (up, down):  3.050E-03 0.000E+00

     total cpu time spent up to now is        5.8 secs

     total energy              =     -30.55650725 Ry
     Harris-Foulkes estimate   =     -32.31658366 Ry
     estimated scf accuracy    <       3.86431623 Ry

     iteration #  5     ecut=    30.00 Ry     beta=0.70
     Davidson diagonalization with overlap
     ethr =  1.00E-02,  avg # of iterations =  2.0

     negative rho (up, down):  2.866E-03 0.000E+00

     total cpu time spent up to now is        5.8 secs

     total energy              =     -31.54499173 Ry
     Harris-Foulkes estimate   =     -31.70177750 Ry
     estimated scf accuracy    <       1.52856779 Ry

     iteration #  6     ecut=    30.00 Ry     beta=0.70
     Davidson diagonalization with overlap
     ethr =  1.00E-02,  avg # of iterations =  1.0

     negative rho (up, down):  5.569E-03 0.000E+00

     total cpu time spent up to now is        5.9 secs

     total energy              =     -31.19487279 Ry
     Harris-Foulkes estimate   =     -31.54897981 Ry
     estimated scf accuracy    <       1.23986587 Ry

     iteration #  7     ecut=    30.00 Ry     beta=0.70
     Davidson diagonalization with overlap
     ethr =  1.00E-02,  avg # of iterations =  4.0

     negative rho (up, down):  4.106E-03 0.000E+00

     total cpu time spent up to now is        5.9 secs

     total energy              =     -31.66258289 Ry
     Harris-Foulkes estimate   =     -31.92368455 Ry
     estimated scf accuracy    <       1.67073701 Ry

     iteration #  8     ecut=    30.00 Ry     beta=0.70
     Davidson diagonalization with overlap
     ethr =  1.00E-02,  avg # of iterations =  1.0

     negative rho (up, down):  3.648E-03 0.000E+00

     total cpu time spent up to now is        6.0 secs

     total energy              =     -31.66496127 Ry
     Harris-Foulkes estimate   =     -31.72089458 Ry
     estimated scf accuracy    <       1.60624063 Ry

     iteration #  9     ecut=    30.00 Ry     beta=0.70
     Davidson diagonalization with overlap
     ethr =  1.00E-02,  avg # of iterations =  1.0

     negative rho (up, down):  1.443E-03 0.000E+00

     total cpu time spent up to now is        6.0 secs

     total energy              =     -31.52062843 Ry
     Harris-Foulkes estimate   =     -31.67661629 Ry
     estimated scf accuracy    <       0.93784456 Ry

     iteration # 10     ecut=    30.00 Ry     beta=0.70
     Davidson diagonalization with overlap
     ethr =  1.00E-02,  avg # of iterations =  1.0

     negative rho (up, down):  1.204E-04 0.000E+00

     total cpu time spent up to now is        6.1 secs

     total energy              =     -32.23887858 Ry
     Harris-Foulkes estimate   =     -32.21391053 Ry
     estimated scf accuracy    <       4.68652939 Ry

     iteration # 11     ecut=    30.00 Ry     beta=0.70
     Davidson diagonalization with overlap
     ethr =  1.00E-02,  avg # of iterations =  1.0

     negative rho (up, down):  3.113E-06 0.000E+00

     total cpu time spent up to now is        6.1 secs

     total energy              =     -31.86993902 Ry
     Harris-Foulkes estimate   =     -32.24059549 Ry
     estimated scf accuracy    <       4.72901670 Ry

     iteration # 12     ecut=    30.00 Ry     beta=0.70
     Davidson diagonalization with overlap
     ethr =  1.00E-02,  avg # of iterations =  1.0

     negative rho (up, down):  2.966E-07 0.000E+00

     total cpu time spent up to now is        6.2 secs

     total energy              =     -31.67403167 Ry
     Harris-Foulkes estimate   =     -31.87304140 Ry
     estimated scf accuracy    <       4.17351936 Ry

     iteration # 13     ecut=    30.00 Ry     beta=0.70
     Davidson diagonalization with overlap
     ethr =  1.00E-02,  avg # of iterations =  1.0

     negative rho (up, down):  6.800E-07 0.000E+00

     total cpu time spent up to now is        6.2 secs

     total energy              =     -31.62691901 Ry
     Harris-Foulkes estimate   =     -31.67470003 Ry
     estimated scf accuracy    <       4.13603929 Ry

     iteration # 14     ecut=    30.00 Ry     beta=0.70
     Davidson diagonalization with overlap
     ethr =  1.00E-02,  avg # of iterations =  1.0

     negative rho (up, down):  2.196E-04 0.000E+00

     total cpu time spent up to now is        6.3 secs

     total energy              =     -31.65996807 Ry
     Harris-Foulkes estimate   =     -31.62728361 Ry
     estimated scf accuracy    <       3.97614546 Ry

     iteration # 15     ecut=    30.00 Ry     beta=0.70
     Davidson diagonalization with overlap
     ethr =  1.00E-02,  avg # of iterations =  1.0

     negative rho (up, down):  1.355E-03 0.000E+00

     total cpu time spent up to now is        6.3 secs

     total energy              =     -31.89314271 Ry
     Harris-Foulkes estimate   =     -31.65984518 Ry
     estimated scf accuracy    <       3.91206370 Ry

     iteration # 16     ecut=    30.00 Ry     beta=0.70
     Davidson diagonalization with overlap
     ethr =  1.00E-02,  avg # of iterations =  1.0

     negative rho (up, down):  1.345E-03 0.000E+00

     total cpu time spent up to now is        6.3 secs

     total energy              =     -31.79361602 Ry
     Harris-Foulkes estimate   =     -31.89255426 Ry
     estimated scf accuracy    <       4.20829924 Ry

     iteration # 17     ecut=    30.00 Ry     beta=0.70
     Davidson diagonalization with overlap
     ethr =  1.00E-02,  avg # of iterations =  1.0

     negative rho (up, down):  6.484E-02 0.000E+00

     total cpu time spent up to now is        6.4 secs

     total energy              =     -31.96952532 Ry
     Harris-Foulkes estimate   =     -31.79394377 Ry
     estimated scf accuracy    <       4.06066084 Ry

     iteration # 18     ecut=    30.00 Ry     beta=0.70
     Davidson diagonalization with overlap
     ethr =  1.00E-02,  avg # of iterations =  1.0

     negative rho (up, down):  1.875E-02 0.000E+00

     total cpu time spent up to now is        6.4 secs

     total energy              =     -29.17155360 Ry
     Harris-Foulkes estimate   =     -31.98895185 Ry
     estimated scf accuracy    <       4.99650078 Ry

     iteration # 19     ecut=    30.00 Ry     beta=0.70
     Davidson diagonalization with overlap
     ethr =  1.00E-02,  avg # of iterations =  3.0

     negative rho (up, down):  3.173E-03 0.000E+00

     total cpu time spent up to now is        6.5 secs

     total energy              =     -33.14461363 Ry
     Harris-Foulkes estimate   =     -34.39398469 Ry
     estimated scf accuracy    <       7.25081301 Ry

     iteration # 20     ecut=    30.00 Ry     beta=0.70
     Davidson diagonalization with overlap
     ethr =  1.00E-02,  avg # of iterations =  2.0

     negative rho (up, down):  1.942E-07 0.000E+00

     total cpu time spent up to now is        6.6 secs

     total energy              =     -31.94528593 Ry
     Harris-Foulkes estimate   =     -33.18552821 Ry
     estimated scf accuracy    <       5.30209395 Ry

     iteration # 21     ecut=    30.00 Ry     beta=0.70
     Davidson diagonalization with overlap
     ethr =  1.00E-02,  avg # of iterations =  1.0

     total cpu time spent up to now is        6.6 secs

     total energy              =     -31.48550522 Ry
     Harris-Foulkes estimate   =     -31.96591668 Ry
     estimated scf accuracy    <       3.38370538 Ry

     iteration # 22     ecut=    30.00 Ry     beta=0.70
     Davidson diagonalization with overlap
     ethr =  1.00E-02,  avg # of iterations =  1.0

     total cpu time spent up to now is        6.6 secs

     total energy              =     -31.67525840 Ry
     Harris-Foulkes estimate   =     -31.50360740 Ry
     estimated scf accuracy    <       0.86064820 Ry

     iteration # 23     ecut=    30.00 Ry     beta=0.70
     Davidson diagonalization with overlap
     ethr =  1.00E-02,  avg # of iterations =  1.0

     negative rho (up, down):  1.593E-07 0.000E+00

     total cpu time spent up to now is        6.7 secs

     total energy              =     -31.82266308 Ry
     Harris-Foulkes estimate   =     -31.75590066 Ry
     estimated scf accuracy    <       3.01281265 Ry

     iteration # 24     ecut=    30.00 Ry     beta=0.70
     Davidson diagonalization with overlap
     ethr =  1.00E-02,  avg # of iterations =  1.0

     negative rho (up, down):  1.518E-08 0.000E+00

     total cpu time spent up to now is        6.7 secs

     total energy              =     -31.78471435 Ry
     Harris-Foulkes estimate   =     -31.82288736 Ry
     estimated scf accuracy    <       3.11345123 Ry

     iteration # 25     ecut=    30.00 Ry     beta=0.70
     Davidson diagonalization with overlap
     ethr =  1.00E-02,  avg # of iterations =  1.0

     negative rho (up, down):  1.768E-08 0.000E+00

     total cpu time spent up to now is        6.8 secs

     total energy              =     -31.41526903 Ry
     Harris-Foulkes estimate   =     -31.78473153 Ry
     estimated scf accuracy    <       3.06683787 Ry

     iteration # 26     ecut=    30.00 Ry     beta=0.70
     Davidson diagonalization with overlap
     ethr =  1.00E-02,  avg # of iterations =  1.0

     negative rho (up, down):  1.234E-06 0.000E+00

     total cpu time spent up to now is        6.8 secs

     total energy              =     -31.05461928 Ry
     Harris-Foulkes estimate   =     -31.67513588 Ry
     estimated scf accuracy    <       1.21440266 Ry

     iteration # 27     ecut=    30.00 Ry     beta=0.70
     Davidson diagonalization with overlap
     ethr =  1.00E-02,  avg # of iterations =  1.0

     negative rho (up, down):  2.506E-06 0.000E+00

     total cpu time spent up to now is        6.9 secs

     total energy              =     -32.09894397 Ry
     Harris-Foulkes estimate   =     -32.36863685 Ry
     estimated scf accuracy    <       3.92679539 Ry

     iteration # 28     ecut=    30.00 Ry     beta=0.70
     Davidson diagonalization with overlap
     ethr =  1.00E-02,  avg # of iterations =  1.0

     negative rho (up, down):  1.482E-08 0.000E+00

     total cpu time spent up to now is        6.9 secs

     total energy              =     -31.76223713 Ry
     Harris-Foulkes estimate   =     -32.09970161 Ry
     estimated scf accuracy    <       3.61253869 Ry

     iteration # 29     ecut=    30.00 Ry     beta=0.70
     Davidson diagonalization with overlap
     ethr =  1.00E-02,  avg # of iterations =  1.0

     negative rho (up, down):  5.069E-07 0.000E+00

     total cpu time spent up to now is        7.0 secs

     total energy              =     -31.68253342 Ry
     Harris-Foulkes estimate   =     -31.76473325 Ry
     estimated scf accuracy    <       2.98627522 Ry

     iteration # 30     ecut=    30.00 Ry     beta=0.70
     Davidson diagonalization with overlap
     ethr =  1.00E-02,  avg # of iterations =  1.0

     negative rho (up, down):  8.461E-07 0.000E+00

     total cpu time spent up to now is        7.0 secs

     total energy              =     -32.07266914 Ry
     Harris-Foulkes estimate   =     -31.68976244 Ry
     estimated scf accuracy    <       2.83525596 Ry

     iteration # 31     ecut=    30.00 Ry     beta=0.70
     Davidson diagonalization with overlap
     ethr =  1.00E-02,  avg # of iterations =  1.0

     negative rho (up, down):  4.439E-06 0.000E+00

     total cpu time spent up to now is        7.1 secs

     total energy              =     -32.80040873 Ry
     Harris-Foulkes estimate   =     -32.36573343 Ry
     estimated scf accuracy    <       2.21607825 Ry

     iteration # 32     ecut=    30.00 Ry     beta=0.70
     Davidson diagonalization with overlap
     ethr =  1.00E-02,  avg # of iterations =  1.0

     negative rho (up, down):  1.985E-06 0.000E+00

     total cpu time spent up to now is        7.1 secs

     total energy              =     -32.65597836 Ry
     Harris-Foulkes estimate   =     -32.80314521 Ry
     estimated scf accuracy    <       2.87532637 Ry

     iteration # 33     ecut=    30.00 Ry     beta=0.70
     Davidson diagonalization with overlap
     ethr =  1.00E-02,  avg # of iterations =  1.0

     negative rho (up, down):  2.104E-06 0.000E+00

     total cpu time spent up to now is        7.2 secs

     total energy              =     -32.61748615 Ry
     Harris-Foulkes estimate   =     -32.65644469 Ry
     estimated scf accuracy    <       2.64952752 Ry

     iteration # 34     ecut=    30.00 Ry     beta=0.70
     Davidson diagonalization with overlap
     ethr =  1.00E-02,  avg # of iterations =  1.0

     negative rho (up, down):  1.439E-06 0.000E+00

     total cpu time spent up to now is        7.2 secs

     total energy              =     -32.16865719 Ry
     Harris-Foulkes estimate   =     -32.61759502 Ry
     estimated scf accuracy    <       2.58606133 Ry

     iteration # 35     ecut=    30.00 Ry     beta=0.70
     Davidson diagonalization with overlap
     ethr =  1.00E-02,  avg # of iterations =  1.0

     negative rho (up, down):  1.609E-01 0.000E+00

     total cpu time spent up to now is        7.3 secs

     total energy              =     -30.70169692 Ry
     Harris-Foulkes estimate   =     -32.17098753 Ry
     estimated scf accuracy    <       2.02551304 Ry

     iteration # 36     ecut=    30.00 Ry     beta=0.70
     Davidson diagonalization with overlap
     ethr =  1.00E-02,  avg # of iterations =  3.0

     negative rho (up, down):  2.276E-01 0.000E+00

     total cpu time spent up to now is        7.3 secs

     total energy              =     -34.16728615 Ry
     Harris-Foulkes estimate   =     -33.99210136 Ry
     estimated scf accuracy    <       4.78029015 Ry

     iteration # 37     ecut=    30.00 Ry     beta=0.70
     Davidson diagonalization with overlap
     ethr =  1.00E-02,  avg # of iterations =  1.0

     negative rho (up, down):  2.386E-02 0.000E+00

     total cpu time spent up to now is        7.4 secs

     total energy              =     -33.05688077 Ry
     Harris-Foulkes estimate   =     -34.17449070 Ry
     estimated scf accuracy    <       4.91641115 Ry

     iteration # 38     ecut=    30.00 Ry     beta=0.70
     Davidson diagonalization with overlap
     ethr =  1.00E-02,  avg # of iterations =  1.0

     negative rho (up, down):  2.089E-06 0.000E+00

     total cpu time spent up to now is        7.4 secs

     total energy              =     -31.55685523 Ry
     Harris-Foulkes estimate   =     -33.06332926 Ry
     estimated scf accuracy    <       3.70150347 Ry

     iteration # 39     ecut=    30.00 Ry     beta=0.70
     Davidson diagonalization with overlap
     ethr =  1.00E-02,  avg # of iterations =  5.0

     negative rho (up, down):  2.718E-05 0.000E+00

     total cpu time spent up to now is        7.5 secs

     total energy              =     -31.46572713 Ry
     Harris-Foulkes estimate   =     -31.92568310 Ry
     estimated scf accuracy    <       4.23315457 Ry

     iteration # 40     ecut=    30.00 Ry     beta=0.70
     Davidson diagonalization with overlap
     ethr =  1.00E-02,  avg # of iterations =  2.0

     negative rho (up, down):  1.795E-06 0.000E+00

     total cpu time spent up to now is        7.5 secs

     total energy              =     -31.41844154 Ry
     Harris-Foulkes estimate   =     -32.84920867 Ry
     estimated scf accuracy    <       2.99996535 Ry

     iteration # 41     ecut=    30.00 Ry     beta=0.70
     Davidson diagonalization with overlap
     ethr =  1.00E-02,  avg # of iterations =  2.0

     negative rho (up, down):  1.836E-08 0.000E+00

     total cpu time spent up to now is        7.6 secs

     total energy              =     -31.43803042 Ry
     Harris-Foulkes estimate   =     -31.49575056 Ry
     estimated scf accuracy    <       0.27008906 Ry

     iteration # 42     ecut=    30.00 Ry     beta=0.70
     Davidson diagonalization with overlap
     ethr =  3.38E-03,  avg # of iterations =  1.0

     total cpu time spent up to now is        7.6 secs

     total energy              =     -31.47538015 Ry
     Harris-Foulkes estimate   =     -31.62988913 Ry
     estimated scf accuracy    <       1.40567308 Ry

     iteration # 43     ecut=    30.00 Ry     beta=0.70
     Davidson diagonalization with overlap
     ethr =  3.38E-03,  avg # of iterations =  1.0

     total cpu time spent up to now is        7.7 secs

     total energy              =     -31.43125501 Ry
     Harris-Foulkes estimate   =     -31.51091533 Ry
     estimated scf accuracy    <       0.88419347 Ry

     iteration # 44     ecut=    30.00 Ry     beta=0.70
     Davidson diagonalization with overlap
     ethr =  3.38E-03,  avg # of iterations =  1.0

     total cpu time spent up to now is        7.7 secs

     total energy              =     -31.74098114 Ry
     Harris-Foulkes estimate   =     -31.53119822 Ry
     estimated scf accuracy    <       1.08499323 Ry

     iteration # 45     ecut=    30.00 Ry     beta=0.70
     Davidson diagonalization with overlap
     ethr =  3.38E-03,  avg # of iterations =  1.0

     total cpu time spent up to now is        7.8 secs

     total energy              =     -31.69388783 Ry
     Harris-Foulkes estimate   =     -31.75241732 Ry
     estimated scf accuracy    <       1.45794216 Ry

     iteration # 46     ecut=    30.00 Ry     beta=0.70
     Davidson diagonalization with overlap
     ethr =  3.38E-03,  avg # of iterations =  1.0

     total cpu time spent up to now is        7.8 secs

     total energy              =     -31.65748240 Ry
     Harris-Foulkes estimate   =     -31.69433253 Ry
     estimated scf accuracy    <       1.06524379 Ry

     iteration # 47     ecut=    30.00 Ry     beta=0.70
     Davidson diagonalization with overlap
     ethr =  3.38E-03,  avg # of iterations =  1.0

     total cpu time spent up to now is        7.9 secs

     total energy              =     -31.65942216 Ry
     Harris-Foulkes estimate   =     -31.66246730 Ry
     estimated scf accuracy    <       0.86673483 Ry

     iteration # 48     ecut=    30.00 Ry     beta=0.70
     Davidson diagonalization with overlap
     ethr =  3.38E-03,  avg # of iterations =  1.0

     total cpu time spent up to now is        7.9 secs

     total energy              =     -31.67850661 Ry
     Harris-Foulkes estimate   =     -31.66371820 Ry
     estimated scf accuracy    <       0.96880876 Ry

     iteration # 49     ecut=    30.00 Ry     beta=0.70
     Davidson diagonalization with overlap
     ethr =  3.38E-03,  avg # of iterations =  1.0

     total cpu time spent up to now is        8.0 secs

     total energy              =     -31.63212677 Ry
     Harris-Foulkes estimate   =     -31.68527268 Ry
     estimated scf accuracy    <       1.44268283 Ry

     iteration # 50     ecut=    30.00 Ry     beta=0.70
     Davidson diagonalization with overlap
     ethr =  3.38E-03,  avg # of iterations =  1.0

     total cpu time spent up to now is        8.0 secs

     total energy              =     -31.63849566 Ry
     Harris-Foulkes estimate   =     -31.63922713 Ry
     estimated scf accuracy    <       0.78296151 Ry

     iteration # 51     ecut=    30.00 Ry     beta=0.70
     Davidson diagonalization with overlap
     ethr =  3.38E-03,  avg # of iterations =  1.0

     total cpu time spent up to now is        8.1 secs

     total energy              =     -31.63970053 Ry
     Harris-Foulkes estimate   =     -31.63867018 Ry
     estimated scf accuracy    <       0.79233242 Ry

     iteration # 52     ecut=    30.00 Ry     beta=0.70
     Davidson diagonalization with overlap
     ethr =  3.38E-03,  avg # of iterations =  1.0

     negative rho (up, down):  2.404E-03 0.000E+00

     total cpu time spent up to now is        8.1 secs

     total energy              =     -31.11765268 Ry
     Harris-Foulkes estimate   =     -31.63978087 Ry
     estimated scf accuracy    <       0.78361260 Ry

     iteration # 53     ecut=    30.00 Ry     beta=0.70
     Davidson diagonalization with overlap
     ethr =  3.38E-03,  avg # of iterations =  3.0

     negative rho (up, down):  1.287E-05 0.000E+00

     total cpu time spent up to now is        8.2 secs

     total energy              =     -31.89479881 Ry
     Harris-Foulkes estimate   =     -32.35251938 Ry
     estimated scf accuracy    <       2.41624878 Ry

     iteration # 54     ecut=    30.00 Ry     beta=0.70
     Davidson diagonalization with overlap
     ethr =  3.38E-03,  avg # of iterations =  1.0

     negative rho (up, down):  1.949E-07 0.000E+00

     total cpu time spent up to now is        8.2 secs

     total energy              =     -31.68680193 Ry
     Harris-Foulkes estimate   =     -31.92261556 Ry
     estimated scf accuracy    <       1.65679752 Ry

     iteration # 55     ecut=    30.00 Ry     beta=0.70
     Davidson diagonalization with overlap
     ethr =  3.38E-03,  avg # of iterations =  1.0

     total cpu time spent up to now is        8.3 secs

     total energy              =     -31.47148577 Ry
     Harris-Foulkes estimate   =     -31.69167157 Ry
     estimated scf accuracy    <       1.26040037 Ry

     iteration # 56     ecut=    30.00 Ry     beta=0.70
     Davidson diagonalization with overlap
     ethr =  3.38E-03,  avg # of iterations =  1.0

     total cpu time spent up to now is        8.4 secs

     total energy              =     -31.50439829 Ry
     Harris-Foulkes estimate   =     -31.52759005 Ry
     estimated scf accuracy    <       2.16565806 Ry

     iteration # 57     ecut=    30.00 Ry     beta=0.70
     Davidson diagonalization with overlap
     ethr =  3.38E-03,  avg # of iterations =  1.0

     total cpu time spent up to now is        8.5 secs

     total energy              =     -31.48693781 Ry
     Harris-Foulkes estimate   =     -31.51633365 Ry
     estimated scf accuracy    <       0.75928902 Ry

     iteration # 58     ecut=    30.00 Ry     beta=0.70
     Davidson diagonalization with overlap
     ethr =  3.38E-03,  avg # of iterations =  1.0

     total cpu time spent up to now is        8.5 secs

     total energy              =     -31.48453115 Ry
     Harris-Foulkes estimate   =     -31.52924772 Ry
     estimated scf accuracy    <       1.38316236 Ry

     iteration # 59     ecut=    30.00 Ry     beta=0.70
     Davidson diagonalization with overlap
     ethr =  3.38E-03,  avg # of iterations =  1.0

     total cpu time spent up to now is        8.6 secs

     total energy              =     -31.48957311 Ry
     Harris-Foulkes estimate   =     -31.52331470 Ry
     estimated scf accuracy    <       0.67542893 Ry

     iteration # 60     ecut=    30.00 Ry     beta=0.70
     Davidson diagonalization with overlap
     ethr =  3.38E-03,  avg # of iterations =  1.0

     total cpu time spent up to now is        8.7 secs

     total energy              =     -31.63233160 Ry
     Harris-Foulkes estimate   =     -31.54692580 Ry
     estimated scf accuracy    <       2.58349260 Ry

     iteration # 61     ecut=    30.00 Ry     beta=0.70
     Davidson diagonalization with overlap
     ethr =  3.38E-03,  avg # of iterations =  1.0

     negative rho (up, down):  1.321E-08 0.000E+00

     total cpu time spent up to now is        8.7 secs

     total energy              =     -31.33291743 Ry
     Harris-Foulkes estimate   =     -31.63441000 Ry
     estimated scf accuracy    <       2.79684240 Ry

     iteration # 62     ecut=    30.00 Ry     beta=0.70
     Davidson diagonalization with overlap
     ethr =  3.38E-03,  avg # of iterations =  2.0

     negative rho (up, down):  6.760E-05 0.000E+00

     total cpu time spent up to now is        8.8 secs

     total energy              =     -31.96818658 Ry
     Harris-Foulkes estimate   =     -31.70028585 Ry
     estimated scf accuracy    <       1.19988583 Ry

     iteration # 63     ecut=    30.00 Ry     beta=0.70
     Davidson diagonalization with overlap
     ethr =  3.38E-03,  avg # of iterations =  1.0

     total cpu time spent up to now is        8.9 secs

     total energy              =     -31.56437181 Ry
     Harris-Foulkes estimate   =     -32.00459058 Ry
     estimated scf accuracy    <       3.61589163 Ry

     iteration # 64     ecut=    30.00 Ry     beta=0.70
     Davidson diagonalization with overlap
     ethr =  3.38E-03,  avg # of iterations =  2.0

     negative rho (up, down):  1.307E-08 0.000E+00

     total cpu time spent up to now is        9.0 secs

     total energy              =     -31.38302623 Ry
     Harris-Foulkes estimate   =     -31.58487604 Ry
     estimated scf accuracy    <       1.36391405 Ry

     iteration # 65     ecut=    30.00 Ry     beta=0.70
     Davidson diagonalization with overlap
     ethr =  3.38E-03,  avg # of iterations =  1.0

     negative rho (up, down):  1.909E-08 0.000E+00

     total cpu time spent up to now is        9.0 secs

     total energy              =     -31.59530288 Ry
     Harris-Foulkes estimate   =     -31.56626944 Ry
     estimated scf accuracy    <       0.68590159 Ry

     iteration # 66     ecut=    30.00 Ry     beta=0.70
     Davidson diagonalization with overlap
     ethr =  3.38E-03,  avg # of iterations =  1.0

     total cpu time spent up to now is        9.1 secs

     total energy              =     -31.47717744 Ry
     Harris-Foulkes estimate   =     -31.59867255 Ry
     estimated scf accuracy    <       1.11506341 Ry

     iteration # 67     ecut=    30.00 Ry     beta=0.70
     Davidson diagonalization with overlap
     ethr =  3.38E-03,  avg # of iterations =  1.0

     total cpu time spent up to now is        9.1 secs

     total energy              =     -31.49373970 Ry
     Harris-Foulkes estimate   =     -31.49368342 Ry
     estimated scf accuracy    <       0.13880450 Ry

     iteration # 68     ecut=    30.00 Ry     beta=0.70
     Davidson diagonalization with overlap
     ethr =  1.74E-03,  avg # of iterations =  1.0

     total cpu time spent up to now is        9.2 secs

     total energy              =     -31.45094373 Ry
     Harris-Foulkes estimate   =     -31.49707545 Ry
     estimated scf accuracy    <       0.24377224 Ry

     iteration # 69     ecut=    30.00 Ry     beta=0.70
     Davidson diagonalization with overlap
     ethr =  1.74E-03,  avg # of iterations =  1.0

     total cpu time spent up to now is        9.2 secs

     total energy              =     -31.47274743 Ry
     Harris-Foulkes estimate   =     -31.55626796 Ry
     estimated scf accuracy    <       1.13863804 Ry

     iteration # 70     ecut=    30.00 Ry     beta=0.70
     Davidson diagonalization with overlap
     ethr =  1.74E-03,  avg # of iterations =  1.0

     total cpu time spent up to now is        9.3 secs

     total energy              =     -31.49054001 Ry
     Harris-Foulkes estimate   =     -31.49326257 Ry
     estimated scf accuracy    <       0.07931791 Ry

     iteration # 71     ecut=    30.00 Ry     beta=0.70
     Davidson diagonalization with overlap
     ethr =  9.91E-04,  avg # of iterations =  1.0

     total cpu time spent up to now is        9.3 secs

     total energy              =     -31.49223978 Ry
     Harris-Foulkes estimate   =     -31.49179463 Ry
     estimated scf accuracy    <       0.00956108 Ry

     iteration # 72     ecut=    30.00 Ry     beta=0.70
     Davidson diagonalization with overlap
     ethr =  1.20E-04,  avg # of iterations =  1.0

     total cpu time spent up to now is        9.4 secs

     total energy              =     -31.48965936 Ry
     Harris-Foulkes estimate   =     -31.49286077 Ry
     estimated scf accuracy    <       0.07420859 Ry

     iteration # 73     ecut=    30.00 Ry     beta=0.70
     Davidson diagonalization with overlap
     ethr =  1.20E-04,  avg # of iterations =  1.0

     total cpu time spent up to now is        9.4 secs

     total energy              =     -31.49243309 Ry
     Harris-Foulkes estimate   =     -31.49191364 Ry
     estimated scf accuracy    <       0.01573176 Ry

     iteration # 74     ecut=    30.00 Ry     beta=0.70
     Davidson diagonalization with overlap
     ethr =  1.20E-04,  avg # of iterations =  1.0

     total cpu time spent up to now is        9.5 secs

     total energy              =     -31.49334309 Ry
     Harris-Foulkes estimate   =     -31.49272644 Ry
     estimated scf accuracy    <       0.07432920 Ry

     iteration # 75     ecut=    30.00 Ry     beta=0.70
     Davidson diagonalization with overlap
     ethr =  1.20E-04,  avg # of iterations =  1.0

     total cpu time spent up to now is        9.5 secs

     total energy              =     -31.48981537 Ry
     Harris-Foulkes estimate   =     -31.49343336 Ry
     estimated scf accuracy    <       0.12509872 Ry

     iteration # 76     ecut=    30.00 Ry     beta=0.70
     Davidson diagonalization with overlap
     ethr =  1.20E-04,  avg # of iterations =  1.0

     total cpu time spent up to now is        9.6 secs

     total energy              =     -31.49167724 Ry
     Harris-Foulkes estimate   =     -31.49169659 Ry
     estimated scf accuracy    <       0.00030575 Ry

     iteration # 77     ecut=    30.00 Ry     beta=0.70
     Davidson diagonalization with overlap
     ethr =  3.82E-06,  avg # of iterations = 13.0

     total cpu time spent up to now is        9.6 secs

     total energy              =     -31.49169844 Ry
     Harris-Foulkes estimate   =     -31.49170782 Ry
     estimated scf accuracy    <       0.00092356 Ry

     iteration # 78     ecut=    30.00 Ry     beta=0.70
     Davidson diagonalization with overlap
     ethr =  3.82E-06,  avg # of iterations =  1.0

     total cpu time spent up to now is        9.7 secs

     total energy              =     -31.49166785 Ry
     Harris-Foulkes estimate   =     -31.49170020 Ry
     estimated scf accuracy    <       0.00037526 Ry

     iteration # 79     ecut=    30.00 Ry     beta=0.70
     Davidson diagonalization with overlap
     ethr =  3.82E-06,  avg # of iterations =  1.0

     total cpu time spent up to now is        9.7 secs

     total energy              =     -31.49171698 Ry
     Harris-Foulkes estimate   =     -31.49171718 Ry
     estimated scf accuracy    <       0.00162880 Ry

     iteration # 80     ecut=    30.00 Ry     beta=0.70
     Davidson diagonalization with overlap
     ethr =  3.82E-06,  avg # of iterations =  1.0

     total cpu time spent up to now is        9.8 secs

     total energy              =     -31.49171063 Ry
     Harris-Foulkes estimate   =     -31.49171707 Ry
     estimated scf accuracy    <       0.00162777 Ry

     iteration # 81     ecut=    30.00 Ry     beta=0.70
     Davidson diagonalization with overlap
     ethr =  3.82E-06,  avg # of iterations =  1.0

     total cpu time spent up to now is        9.8 secs

     total energy              =     -31.49167780 Ry
     Harris-Foulkes estimate   =     -31.49171111 Ry
     estimated scf accuracy    <       0.00121058 Ry

     iteration # 82     ecut=    30.00 Ry     beta=0.70
     Davidson diagonalization with overlap
     ethr =  3.82E-06,  avg # of iterations =  1.0

     total cpu time spent up to now is        9.9 secs

     total energy              =     -31.49169335 Ry
     Harris-Foulkes estimate   =     -31.49169308 Ry
     estimated scf accuracy    <       0.00000204 Ry

     iteration # 83     ecut=    30.00 Ry     beta=0.70
     Davidson diagonalization with overlap
     ethr =  2.55E-08,  avg # of iterations =  1.0

     total cpu time spent up to now is        9.9 secs

     total energy              =     -31.49169354 Ry
     Harris-Foulkes estimate   =     -31.49169342 Ry
     estimated scf accuracy    <       0.00000061 Ry

     iteration # 84     ecut=    30.00 Ry     beta=0.70
     Davidson diagonalization with overlap
     ethr =  7.68E-09,  avg # of iterations =  1.0

     total cpu time spent up to now is       10.0 secs

     total energy              =     -31.49169357 Ry
     Harris-Foulkes estimate   =     -31.49169355 Ry
     estimated scf accuracy    <       0.00000016 Ry

     iteration # 85     ecut=    30.00 Ry     beta=0.70
     Davidson diagonalization with overlap
     ethr =  2.03E-09,  avg # of iterations =  1.0

     total cpu time spent up to now is       10.0 secs

     total energy              =     -31.49169358 Ry
     Harris-Foulkes estimate   =     -31.49169358 Ry
     estimated scf accuracy    <       0.00000004 Ry

     iteration # 86     ecut=    30.00 Ry     beta=0.70
     Davidson diagonalization with overlap
     ethr =  4.89E-10,  avg # of iterations =  1.0

     total cpu time spent up to now is       10.0 secs

     End of self-consistent calculation

          k = 0.0000 0.0000 0.0000 ( 22119 PWs)   bands (ev):

   -23.6459  -7.0831  -7.0542  -7.0539  -6.9765  -6.8927  -0.2144   0.6477

     the Fermi energy is    -6.9201 ev

!    total energy              =     -31.49169356 Ry
     Harris-Foulkes estimate   =     -31.49169358 Ry
     estimated scf accuracy    <          6.0E-10 Ry

     convergence has been achieved in  86 iterations

     Forces acting on atoms (Ry/au):

     atom    1 type  2   force =    -0.00068895    0.00129406   -0.00153862
     atom    2 type  1   force =     0.00035200   -0.00126266    0.00098618
     atom    3 type  1   force =     0.00033695   -0.00003140    0.00055244

     Total force =     0.002762     Total SCF correction =     0.000058

     Entering Dynamics:    iteration =     3
                           time      =   0.0145 pico-seconds


     Andersen thermostat:    3 collisions

ATOMIC_POSITIONS (bohr)
O       16.777879896   2.385445924   6.613211590
H       13.522422274   8.317543328  22.641383815
H        7.656752538  10.200981108  -3.504622711


     kinetic energy (Ekin) =     0.01418448 Ry
     temperature           =   746.51640927 K 
     Ekin + Etot (const)   =   -31.47750909 Ry
     Message from routine dynamics:
     Total linear momentum <> 0

     Linear momentum :    0.3679424336   -0.4059240373    0.0655390169

     Writing output data file pwscf.save

     second order wave-functions extrapolation
     Check: negative starting charge=   -0.350030
     second order charge density extrapolation
     Check: negative starting charge=   -0.349413

     negative rho (up, down):  3.439E-02 0.000E+00

     total cpu time spent up to now is       10.5 secs

     per-process dynamical memory:    20.4 Mb

     Self-consistent Calculation

     iteration #  1     ecut=    30.00 Ry     beta=0.70
     Davidson diagonalization with overlap
     c_bands:  1 eigenvalues not converged
     ethr =  1.00E-06,  avg # of iterations = 20.0

     negative rho (up, down):  7.326E-03 0.000E+00

     total cpu time spent up to now is       10.7 secs

     total energy              =     -31.47008224 Ry
     Harris-Foulkes estimate   =     -31.45930524 Ry
     estimated scf accuracy    <       0.01924022 Ry

     iteration #  2     ecut=    30.00 Ry     beta=0.70
     Davidson diagonalization with overlap
     ethr =  2.41E-04,  avg # of iterations =  2.0

     negative rho (up, down):  6.904E-03 0.000E+00

     total cpu time spent up to now is       10.8 secs

     total energy              =     -31.46437073 Ry
     Harris-Foulkes estimate   =     -31.75698852 Ry
     estimated scf accuracy    <       4.01199812 Ry

     iteration #  3     ecut=    30.00 Ry     beta=0.70
     Davidson diagonalization with overlap
     ethr =  2.41E-04,  avg # of iterations =  2.0

     negative rho (up, down):  6.658E-03 0.000E+00

     total cpu time spent up to now is       10.8 secs

     total energy              =     -31.46882723 Ry
     Harris-Foulkes estimate   =     -31.52342337 Ry
     estimated scf accuracy    <       1.13200258 Ry

     iteration #  4     ecut=    30.00 Ry     beta=0.70
     Davidson diagonalization with overlap
     ethr =  2.41E-04,  avg # of iterations =  1.0

     negative rho (up, down):  1.457E-03 0.000E+00

     total cpu time spent up to now is       10.9 secs

     total energy              =     -31.48041484 Ry
     Harris-Foulkes estimate   =     -31.48714596 Ry
     estimated scf accuracy    <       0.13377206 Ry

     iteration #  5     ecut=    30.00 Ry     beta=0.70
     Davidson diagonalization with overlap
     ethr =  2.41E-04,  avg # of iterations =  3.0

     negative rho (up, down):  4.536E-04 0.000E+00

     total cpu time spent up to now is       10.9 secs

     total energy              =     -31.48173506 Ry
     Harris-Foulkes estimate   =     -31.50612327 Ry
     estimated scf accuracy    <       1.03112777 Ry

     iteration #  6     ecut=    30.00 Ry     beta=0.70
     Davidson diagonalization with overlap
     ethr =  2.41E-04,  avg # of iterations =  1.0

     negative rho (up, down):  7.557E-05 0.000E+00

     total cpu time spent up to now is       11.0 secs

     total energy              =     -31.49197154 Ry
     Harris-Foulkes estimate   =     -31.49201493 Ry
     estimated scf accuracy    <       0.00614749 Ry

     iteration #  7     ecut=    30.00 Ry     beta=0.70
     Davidson diagonalization with overlap
     ethr =  7.68E-05,  avg # of iterations =  3.0

     negative rho (up, down):  1.947E-06 0.000E+00

     total cpu time spent up to now is       11.0 secs

     total energy              =     -31.49172289 Ry
     Harris-Foulkes estimate   =     -31.49206290 Ry
     estimated scf accuracy    <       0.01456252 Ry

     iteration #  8     ecut=    30.00 Ry     beta=0.70
     Davidson diagonalization with overlap
     ethr =  7.68E-05,  avg # of iterations =  1.0

     negative rho (up, down):  3.355E-08 0.000E+00

     total cpu time spent up to now is       11.1 secs

     total energy              =     -31.49190716 Ry
     Harris-Foulkes estimate   =     -31.49194306 Ry
     estimated scf accuracy    <       0.00072718 Ry

     iteration #  9     ecut=    30.00 Ry     beta=0.70
     Davidson diagonalization with overlap
     ethr =  9.09E-06,  avg # of iterations = 14.0

     total cpu time spent up to now is       11.1 secs

     total energy              =     -31.49193466 Ry
     Harris-Foulkes estimate   =     -31.49194984 Ry
     estimated scf accuracy    <       0.00078019 Ry

     iteration # 10     ecut=    30.00 Ry     beta=0.70
     Davidson diagonalization with overlap
     ethr =  9.09E-06,  avg # of iterations =  1.0

     total cpu time spent up to now is       11.2 secs

     total energy              =     -31.49194105 Ry
     Harris-Foulkes estimate   =     -31.49195286 Ry
     estimated scf accuracy    <       0.00113376 Ry

     iteration # 11     ecut=    30.00 Ry     beta=0.70
     Davidson diagonalization with overlap
     ethr =  9.09E-06,  avg # of iterations =  1.0

     total cpu time spent up to now is       11.2 secs

     total energy              =     -31.49193260 Ry
[...]
     Harris-Foulkes estimate   =  -14161.41632757 Ry
     estimated scf accuracy    <      44.29369613 Ry

     iteration # 59     ecut=    30.00 Ry     beta=0.70
     Davidson diagonalization with overlap
     ethr =  1.00E-02,  avg # of iterations = 10.0

     negative rho (up, down):  1.683E+00 0.000E+00

     total cpu time spent up to now is       36.5 secs

     total energy              =     441.97120048 Ry
     Harris-Foulkes estimate   =    -272.60241948 Ry
     estimated scf accuracy    <      46.88352188 Ry

     iteration # 60     ecut=    30.00 Ry     beta=0.70
     Davidson diagonalization with overlap
     ethr =  1.00E-02,  avg # of iterations =  8.0

     negative rho (up, down):  1.318E+00 0.000E+00

     total cpu time spent up to now is       36.6 secs

     total energy              =     100.64112058 Ry
     Harris-Foulkes estimate   =    -968.36621042 Ry
     estimated scf accuracy    <      41.21990219 Ry

     iteration # 61     ecut=    30.00 Ry     beta=0.70
     Davidson diagonalization with overlap
     ethr =  1.00E-02,  avg # of iterations = 11.0

     negative rho (up, down):  4.410E-01 0.000E+00

     total cpu time spent up to now is       36.7 secs

     total energy              =      20.79799709 Ry
     Harris-Foulkes estimate   =    -180.18782917 Ry
     estimated scf accuracy    <      21.39027876 Ry

     iteration # 62     ecut=    30.00 Ry     beta=0.70
     Davidson diagonalization with overlap
     ethr =  1.00E-02,  avg # of iterations =  6.0

     negative rho (up, down):  4.182E-01 0.000E+00

     total cpu time spent up to now is       36.8 secs

     total energy              =      35.71645623 Ry
     Harris-Foulkes estimate   =   -1394.37805389 Ry
     estimated scf accuracy    <      34.05234330 Ry

     iteration # 63     ecut=    30.00 Ry     beta=0.70
     Davidson diagonalization with overlap
     ethr =  1.00E-02,  avg # of iterations =  8.0

     negative rho (up, down):  1.963E-01 0.000E+00

     total cpu time spent up to now is       36.9 secs

     total energy              =    -234.85180206 Ry
     Harris-Foulkes estimate   =   -1863.35732484 Ry
     estimated scf accuracy    <      35.71639694 Ry

     iteration # 64     ecut=    30.00 Ry     beta=0.70
     Davidson diagonalization with overlap
     ethr =  1.00E-02,  avg # of iterations =  7.0

     negative rho (up, down):  1.835E-01 0.000E+00

     total cpu time spent up to now is       36.9 secs

     total energy              =      85.94772566 Ry
     Harris-Foulkes estimate   =  -12797.34381838 Ry
     estimated scf accuracy    <      27.34252645 Ry

     iteration # 65     ecut=    30.00 Ry     beta=0.70
     Davidson diagonalization with overlap
     ethr =  1.00E-02,  avg # of iterations =  9.0

     negative rho (up, down):  2.447E-01 0.000E+00

     total cpu time spent up to now is       37.0 secs

     total energy              =    -322.17560760 Ry
     Harris-Foulkes estimate   =   -1085.46051225 Ry
     estimated scf accuracy    <      27.29908489 Ry

     iteration # 66     ecut=    30.00 Ry     beta=0.70
     Davidson diagonalization with overlap
     ethr =  1.00E-02,  avg # of iterations = 12.0

     negative rho (up, down):  2.904E-01 0.000E+00

     total cpu time spent up to now is       37.1 secs

     total energy              =    -149.44526711 Ry
     Harris-Foulkes estimate   =   -3484.80623794 Ry
     estimated scf accuracy    <      17.41793259 Ry

     iteration # 67     ecut=    30.00 Ry     beta=0.70
     Davidson diagonalization with overlap
     ethr =  1.00E-02,  avg # of iterations =  5.0

     negative rho (up, down):  4.077E-01 0.000E+00

     total cpu time spent up to now is       37.2 secs

     total energy              =     -92.64427811 Ry
     Harris-Foulkes estimate   =   -3262.14256321 Ry
     estimated scf accuracy    <      23.89031465 Ry

     iteration # 68     ecut=    30.00 Ry     beta=0.70
     Davidson diagonalization with overlap
     ethr =  1.00E-02,  avg # of iterations =  9.0

     negative rho (up, down):  5.326E-01 0.000E+00

     total cpu time spent up to now is       37.3 secs

     total energy              =   -1513.70174819 Ry
     Harris-Foulkes estimate   =   -1792.68719316 Ry
     estimated scf accuracy    <      34.58502387 Ry

     iteration # 69     ecut=    30.00 Ry     beta=0.70
     Davidson diagonalization with overlap
     ethr =  1.00E-02,  avg # of iterations =  7.0

     negative rho (up, down):  5.305E-01 0.000E+00

     total cpu time spent up to now is       37.3 secs

     total energy              =   -3453.27510059 Ry
     Harris-Foulkes estimate   =   -4494.10594605 Ry
     estimated scf accuracy    <      36.57811981 Ry

     iteration # 70     ecut=    30.00 Ry     beta=0.70
     Davidson diagonalization with overlap
     ethr =  1.00E-02,  avg # of iterations =  4.0

     negative rho (up, down):  8.261E-01 0.000E+00

     total cpu time spent up to now is       37.4 secs

     total energy              =     107.42603507 Ry
     Harris-Foulkes estimate   =  -14320.43269825 Ry
     estimated scf accuracy    <      32.00705251 Ry

     iteration # 71     ecut=    30.00 Ry     beta=0.70
     Davidson diagonalization with overlap
     ethr =  1.00E-02,  avg # of iterations =  6.0

     negative rho (up, down):  6.456E-01 0.000E+00

     total cpu time spent up to now is       37.5 secs

     total energy              =      58.77779842 Ry
     Harris-Foulkes estimate   =    -171.14076950 Ry
     estimated scf accuracy    <      21.52703886 Ry

     iteration # 72     ecut=    30.00 Ry     beta=0.70
     Davidson diagonalization with overlap
     ethr =  1.00E-02,  avg # of iterations =  8.0

     negative rho (up, down):  1.534E-01 0.000E+00

     total cpu time spent up to now is       37.6 secs

     total energy              =      67.65895860 Ry
     Harris-Foulkes estimate   =    -232.50649285 Ry
     estimated scf accuracy    <      12.28055958 Ry

     iteration # 73     ecut=    30.00 Ry     beta=0.70
     Davidson diagonalization with overlap
     ethr =  1.00E-02,  avg # of iterations =  6.0

     negative rho (up, down):  9.289E-02 0.000E+00

     total cpu time spent up to now is       37.6 secs

     total energy              =      14.66213649 Ry
     Harris-Foulkes estimate   =    -354.30478546 Ry
     estimated scf accuracy    <      23.95164120 Ry

     iteration # 74     ecut=    30.00 Ry     beta=0.70
     Davidson diagonalization with overlap
     ethr =  1.00E-02,  avg # of iterations =  4.0

     negative rho (up, down):  1.574E-01 0.000E+00

     total cpu time spent up to now is       37.7 secs

     total energy              =   58146.71649243 Ry
     Harris-Foulkes estimate   =    -854.39294300 Ry
     estimated scf accuracy    <      20.73308138 Ry

     iteration # 75     ecut=    30.00 Ry     beta=0.70
     Davidson diagonalization with overlap
     ethr =  1.00E-02,  avg # of iterations =  5.0

     negative rho (up, down):  1.062E-01 0.000E+00

     total cpu time spent up to now is       37.8 secs

     total energy              =      -7.85786867 Ry
     Harris-Foulkes estimate   =    -390.86738869 Ry
     estimated scf accuracy    <      12.92375794 Ry

     iteration # 76     ecut=    30.00 Ry     beta=0.70
     Davidson diagonalization with overlap
     ethr =  1.00E-02,  avg # of iterations =  4.0

     negative rho (up, down):  4.375E-02 0.000E+00

     total cpu time spent up to now is       37.9 secs

     total energy              =   -1009.87032940 Ry
     Harris-Foulkes estimate   =    -615.85331597 Ry
     estimated scf accuracy    <      14.04258330 Ry

     iteration # 77     ecut=    30.00 Ry     beta=0.70
     Davidson diagonalization with overlap
     ethr =  1.00E-02,  avg # of iterations =  7.0

     negative rho (up, down):  8.813E-02 0.000E+00

     total cpu time spent up to now is       37.9 secs

     total energy              =      76.86467887 Ry
     Harris-Foulkes estimate   =   -3510.79729598 Ry
     estimated scf accuracy    <      16.39340371 Ry

     iteration # 78     ecut=    30.00 Ry     beta=0.70
     Davidson diagonalization with overlap
     ethr =  1.00E-02,  avg # of iterations =  5.0

     negative rho (up, down):  1.263E-01 0.000E+00

     total cpu time spent up to now is       38.0 secs

     total energy              =    -123.54576850 Ry
     Harris-Foulkes estimate   =    -969.29154647 Ry
     estimated scf accuracy    <      20.50969172 Ry

     iteration # 79     ecut=    30.00 Ry     beta=0.70
     Davidson diagonalization with overlap
     ethr =  1.00E-02,  avg # of iterations =  4.0

     negative rho (up, down):  3.651E-02 0.000E+00

     total cpu time spent up to now is       38.1 secs

     total energy              =      36.29445789 Ry
     Harris-Foulkes estimate   =    -491.81062806 Ry
     estimated scf accuracy    <      18.22431897 Ry

     iteration # 80     ecut=    30.00 Ry     beta=0.70
     Davidson diagonalization with overlap
     ethr =  1.00E-02,  avg # of iterations =  4.0

     negative rho (up, down):  1.177E-01 0.000E+00

     total cpu time spent up to now is       38.1 secs

     total energy              =     -16.77375915 Ry
     Harris-Foulkes estimate   =    -518.04721340 Ry
     estimated scf accuracy    <      28.93899040 Ry

     iteration # 81     ecut=    30.00 Ry     beta=0.70
     Davidson diagonalization with overlap
     ethr =  1.00E-02,  avg # of iterations =  6.0

     negative rho (up, down):  2.087E-01 0.000E+00

     total cpu time spent up to now is       38.2 secs

     total energy              =     126.50661830 Ry
     Harris-Foulkes estimate   =   -4143.14320643 Ry
     estimated scf accuracy    <      45.73759903 Ry

     iteration # 82     ecut=    30.00 Ry     beta=0.70
     Davidson diagonalization with overlap
     ethr =  1.00E-02,  avg # of iterations =  5.0

     negative rho (up, down):  7.016E-03 0.000E+00

     total cpu time spent up to now is       38.3 secs

     total energy              =     -19.06587257 Ry
     Harris-Foulkes estimate   =    -108.85040989 Ry
     estimated scf accuracy    <      28.68782340 Ry

     iteration # 83     ecut=    30.00 Ry     beta=0.70
     Davidson diagonalization with overlap
     ethr =  1.00E-02,  avg # of iterations =  3.0

     negative rho (up, down):  1.706E-02 0.000E+00

     total cpu time spent up to now is       38.3 secs

     total energy              =     -62.97118123 Ry
     Harris-Foulkes estimate   =     -63.96230500 Ry
     estimated scf accuracy    <      44.20774551 Ry

     iteration # 84     ecut=    30.00 Ry     beta=0.70
     Davidson diagonalization with overlap
     ethr =  1.00E-02,  avg # of iterations =  4.0

     negative rho (up, down):  3.284E-01 0.000E+00

     total cpu time spent up to now is       38.4 secs

     total energy              =    -988.01332359 Ry
     Harris-Foulkes estimate   =    -645.86018585 Ry
     estimated scf accuracy    <      20.37203187 Ry

     iteration # 85     ecut=    30.00 Ry     beta=0.70
     Davidson diagonalization with overlap
     ethr =  1.00E-02,  avg # of iterations =  6.0

     negative rho (up, down):  3.374E-01 0.000E+00

     total cpu time spent up to now is       38.5 secs

     total energy              =      27.85843924 Ry
     Harris-Foulkes estimate   =  -36906.91258244 Ry
     estimated scf accuracy    <      20.59822709 Ry

     iteration # 86     ecut=    30.00 Ry     beta=0.70
     Davidson diagonalization with overlap
     ethr =  1.00E-02,  avg # of iterations =  7.0

     negative rho (up, down):  2.387E-01 0.000E+00

     total cpu time spent up to now is       38.5 secs

     total energy              =      46.33544190 Ry
     Harris-Foulkes estimate   =   -1774.18478778 Ry
     estimated scf accuracy    <      32.19062244 Ry

     iteration # 87     ecut=    30.00 Ry     beta=0.70
     Davidson diagonalization with overlap
     ethr =  1.00E-02,  avg # of iterations = 10.0

     negative rho (up, down):  9.856E-02 0.000E+00

     total cpu time spent up to now is       38.7 secs

     total energy              =      22.48219154 Ry
     Harris-Foulkes estimate   =    -644.30684021 Ry
     estimated scf accuracy    <      38.29373755 Ry

     iteration # 88     ecut=    30.00 Ry     beta=0.70
     Davidson diagonalization with overlap
     ethr =  1.00E-02,  avg # of iterations =  9.0

     negative rho (up, down):  7.959E-02 0.000E+00

     total cpu time spent up to now is       38.7 secs

     total energy              =     837.29406557 Ry
     Harris-Foulkes estimate   =   -1639.12150570 Ry
     estimated scf accuracy    <      21.28486102 Ry

     iteration # 89     ecut=    30.00 Ry     beta=0.70
     Davidson diagonalization with overlap
     ethr =  1.00E-02,  avg # of iterations =  9.0

     negative rho (up, down):  3.100E-02 0.000E+00

     total cpu time spent up to now is       38.8 secs

     total energy              =      69.92915430 Ry
     Harris-Foulkes estimate   =    -714.15483851 Ry
     estimated scf accuracy    <      20.23621462 Ry

     iteration # 90     ecut=    30.00 Ry     beta=0.70
     Davidson diagonalization with overlap
     ethr =  1.00E-02,  avg # of iterations =  9.0

     negative rho (up, down):  1.443E-04 0.000E+00

     total cpu time spent up to now is       38.9 secs

     total energy              =      29.03212942 Ry
     Harris-Foulkes estimate   =    -121.16193909 Ry
     estimated scf accuracy    <      19.94255972 Ry

     iteration # 91     ecut=    30.00 Ry     beta=0.70
     Davidson diagonalization with overlap
     ethr =  1.00E-02,  avg # of iterations =  4.0

     negative rho (up, down):  9.152E-03 0.000E+00

     total cpu time spent up to now is       39.0 secs

     total energy              =     -22.02074241 Ry
     Harris-Foulkes estimate   =     -82.89132899 Ry
     estimated scf accuracy    <      19.79909663 Ry

     iteration # 92     ecut=    30.00 Ry     beta=0.70
     Davidson diagonalization with overlap
     ethr =  1.00E-02,  avg # of iterations =  3.0

     negative rho (up, down):  4.580E-02 0.000E+00

     total cpu time spent up to now is       39.1 secs

     total energy              =    -145.70449783 Ry
     Harris-Foulkes estimate   =    -152.40321467 Ry
     estimated scf accuracy    <      37.42441664 Ry

     iteration # 93     ecut=    30.00 Ry     beta=0.70
     Davidson diagonalization with overlap
     ethr =  1.00E-02,  avg # of iterations =  5.0

     negative rho (up, down):  1.247E-01 0.000E+00

     total cpu time spent up to now is       39.2 secs

     total energy              =      11.28106506 Ry
     Harris-Foulkes estimate   =    -674.16482153 Ry
     estimated scf accuracy    <      32.12768644 Ry

     iteration # 94     ecut=    30.00 Ry     beta=0.70
     Davidson diagonalization with overlap
     ethr =  1.00E-02,  avg # of iterations =  5.0

     negative rho (up, down):  2.051E-01 0.000E+00

     total cpu time spent up to now is       39.2 secs

     total energy              =     -17.49234508 Ry
     Harris-Foulkes estimate   =    -151.32297986 Ry
     estimated scf accuracy    <      34.19767267 Ry

     iteration # 95     ecut=    30.00 Ry     beta=0.70
     Davidson diagonalization with overlap
     ethr =  1.00E-02,  avg # of iterations =  5.0

     negative rho (up, down):  1.779E-01 0.000E+00

     total cpu time spent up to now is       39.3 secs

     total energy              =     -82.08811600 Ry
     Harris-Foulkes estimate   =    -390.85493016 Ry
     estimated scf accuracy    <      15.62433046 Ry

     iteration # 96     ecut=    30.00 Ry     beta=0.70
     Davidson diagonalization with overlap
     ethr =  1.00E-02,  avg # of iterations =  7.0

     negative rho (up, down):  2.906E-01 0.000E+00

     total cpu time spent up to now is       39.4 secs

     total energy              =    -974.85304632 Ry
     Harris-Foulkes estimate   =    -349.80878551 Ry
     estimated scf accuracy    <      40.36093384 Ry

     iteration # 97     ecut=    30.00 Ry     beta=0.70
     Davidson diagonalization with overlap
     ethr =  1.00E-02,  avg # of iterations =  5.0

     negative rho (up, down):  3.540E-01 0.000E+00

     total cpu time spent up to now is       39.5 secs

     total energy              =   -2646.58557039 Ry
     Harris-Foulkes estimate   =   -2645.38042789 Ry
     estimated scf accuracy    <      43.05070953 Ry

     iteration # 98     ecut=    30.00 Ry     beta=0.70
     Davidson diagonalization with overlap
     ethr =  1.00E-02,  avg # of iterations = 10.0

     negative rho (up, down):  2.636E-01 0.000E+00

     total cpu time spent up to now is       39.6 secs

     total energy              =       6.36879447 Ry
     Harris-Foulkes estimate   =   -5168.58545250 Ry
     estimated scf accuracy    <      39.92044278 Ry

     iteration # 99     ecut=    30.00 Ry     beta=0.70
     Davidson diagonalization with overlap
     ethr =  1.00E-02,  avg # of iterations =  9.0

     negative rho (up, down):  2.252E-01 0.000E+00

     total cpu time spent up to now is       39.6 secs

     total energy              =      16.67804035 Ry
     Harris-Foulkes estimate   =    -980.29807163 Ry
     estimated scf accuracy    <      21.84039819 Ry

     iteration #100     ecut=    30.00 Ry     beta=0.70
     Davidson diagonalization with overlap
     ethr =  1.00E-02,  avg # of iterations =  7.0

     negative rho (up, down):  3.267E-01 0.000E+00

     total cpu time spent up to now is       39.7 secs

     total energy              =      41.26170617 Ry
     Harris-Foulkes estimate   =   -1908.61787426 Ry
     estimated scf accuracy    <      30.42845876 Ry

     End of self-consistent calculation

     convergence NOT achieved after 100 iterations: stopping

     Writing output data file pwscf.save
 
     init_run     :      0.17s CPU      0.19s WALL (       1 calls)
     electrons    :     27.46s CPU     33.06s WALL (      17 calls)
     update_pot   :      3.57s CPU      4.50s WALL (      16 calls)
     forces       :      0.68s CPU      0.69s WALL (      16 calls)

     Called by init_run:
     wfcinit      :      0.01s CPU      0.02s WALL (       1 calls)
     potinit      :      0.05s CPU      0.05s WALL (       1 calls)

     Called by electrons:
     c_bands      :     13.27s CPU     13.91s WALL (     535 calls)
     sum_band     :      2.80s CPU      2.91s WALL (     535 calls)
     v_of_rho     :      6.56s CPU      6.86s WALL (     552 calls)
     mix_rho      :      3.77s CPU      7.16s WALL (     535 calls)

     Called by c_bands:
     init_us_2    :      0.08s CPU      0.11s WALL (    1071 calls)
     cegterg      :     13.11s CPU     13.62s WALL (     535 calls)

     Called by sum_band:

     Called by *egterg:
     h_psi        :     11.19s CPU     11.58s WALL (    2315 calls)
     g_psi        :      0.11s CPU      0.12s WALL (    1779 calls)
     cdiaghg      :      0.75s CPU      0.78s WALL (    2298 calls)

     Called by h_psi:
     h_psi:pot    :     11.13s CPU     11.51s WALL (    2315 calls)
     h_psi:calbec :      0.14s CPU      0.21s WALL (    2315 calls)
     vloc_psi     :     10.93s CPU     11.25s WALL (    2315 calls)
     add_vuspsi   :      0.03s CPU      0.03s WALL (    2315 calls)

     General routines
     calbec       :      0.21s CPU      0.29s WALL (    2394 calls)
     fft          :      3.96s CPU      4.20s WALL (    6104 calls)
     fftw         :     11.77s CPU     12.14s WALL (   28962 calls)
     davcio       :      0.61s CPU      3.03s WALL (    9200 calls)
 
     Parallel routines
     fft_scatter  :      4.91s CPU      5.30s WALL (   35066 calls)
 
     PWSCF        :    32.64s CPU        39.87s WALL

 
   This run was terminated on:  16: 4:26  13Feb2018            

=------------------------------------------------------------------------------=
   JOB DONE.
=------------------------------------------------------------------------------=
