
     Program PWSCF v.6.0 (svn rev. 13079) starts on 13Feb2018 at 16: 6:21 

     This program is part of the open-source Quantum ESPRESSO suite
     for quantum simulation of materials; please cite
         "P. Giannozzi et al., J. Phys.:Condens. Matter 21 395502 (2009);
          URL http://www.quantum-espresso.org", 
     in publications or presentations arising from this work. More details at
     http://www.quantum-espresso.org/quote

     Parallel version (MPI), running on    28 processors
     R & G space division:  proc/nbgrp/npool/nimage =      28
     Reading input from inputs/MD-H2O-round1/588.in

     Current dimensions of program PWSCF are:
     Max number of different atomic species (ntypx) = 10
     Max number of k-points (npk) =  40000
     Max angular momentum in pseudopotentials (lmaxx) =  3

     Subspace diagonalization in iterative solution of the eigenvalue problem:
     a serial algorithm will be used

 
     Parallelization info
     --------------------
     sticks:   dense  smooth     PW     G-vecs:    dense   smooth      PW
     Min         136     136     33                 6338     6338     787
     Max         137     137     34                 6341     6341     792
     Sum        3809    3809    949               177509   177509   22119
 


     bravais-lattice index     =            1
     lattice parameter (alat)  =      20.0000  a.u.
     unit-cell volume          =    8000.0000 (a.u.)^3
     number of atoms/cell      =            3
     number of atomic types    =            2
     number of electrons       =         8.00
     number of Kohn-Sham states=            8
     kinetic-energy cutoff     =      30.0000  Ry
     charge density cutoff     =     120.0000  Ry
     convergence threshold     =      1.0E-08
     mixing beta               =       0.7000
     number of iterations used =            8  plain     mixing
     Exchange-correlation      = BLYP ( 1  3  1  3 0 0)
     nstep                     =         5000


     celldm(1)=  20.000000  celldm(2)=   0.000000  celldm(3)=   0.000000
     celldm(4)=   0.000000  celldm(5)=   0.000000  celldm(6)=   0.000000

     crystal axes: (cart. coord. in units of alat)
               a(1) = (   1.000000   0.000000   0.000000 )  
               a(2) = (   0.000000   1.000000   0.000000 )  
               a(3) = (   0.000000   0.000000   1.000000 )  

     reciprocal axes: (cart. coord. in units 2 pi/alat)
               b(1) = (  1.000000  0.000000  0.000000 )  
               b(2) = (  0.000000  1.000000  0.000000 )  
               b(3) = (  0.000000  0.000000  1.000000 )  


     PseudoPot. # 1 for  H read from file:
     ./H.blyp-hgh.UPF
     MD5 check sum: c576e69559cde411e611be972c763230
     Pseudo is Norm-conserving, Zval =  1.0
     Generated in analytical, separable form
     Using radial grid of  929 points,  0 beta functions with: 

     PseudoPot. # 2 for  O read from file:
     ./O.blyp-hgh.UPF
     MD5 check sum: d0b7156309aa9befef28faac7bc56342
     Pseudo is Norm-conserving, Zval =  6.0
     Generated in analytical, separable form
     Using radial grid of 1095 points,  1 beta functions with: 
                l(1) =   0

     atomic species   valence    mass     pseudopotential
        H              1.00     1.01000      H( 1.00)
        O              6.00    16.00000      O( 1.00)

     No symmetry found



   Cartesian axes

     site n.     atom                  positions (alat units)
         1           O   tau(   1) = (   0.3299119   0.2161014   0.2852965  )
         2           H   tau(   2) = (   0.0626724   0.5085714   0.5071872  )
         3           H   tau(   3) = (   0.0862064   0.5251278   0.5477331  )

     number of k points=     1  Marzari-Vanderbilt smearing, width (Ry)=  0.0250
                       cart. coord. in units 2pi/alat
        k(    1) = (   0.0000000   0.0000000   0.0000000), wk =   2.0000000

     Dense  grid:   177509 G-vectors     FFT dimensions: (  72,  72,  72)

     Estimated max dynamical RAM per process >       6.09Mb

     Estimated total allocated dynamical RAM >     170.64Mb

     Initial potential from superposition of free atoms
     Check: negative starting charge=   -0.363981

     starting charge    7.99998, renormalised to    8.00000

     negative rho (up, down):  3.640E-01 0.000E+00
     Starting wfc are    6 randomized atomic wfcs +    2 random wfc

     total cpu time spent up to now is        0.3 secs

     per-process dynamical memory:    18.8 Mb

     Self-consistent Calculation

     iteration #  1     ecut=    30.00 Ry     beta=0.70
     Davidson diagonalization with overlap
     ethr =  1.00E-02,  avg # of iterations =  8.0

     negative rho (up, down):  9.519E-02 0.000E+00

     total cpu time spent up to now is        0.4 secs

     total energy              =     -31.50551157 Ry
     Harris-Foulkes estimate   =     -32.30983434 Ry
     estimated scf accuracy    <       0.85735064 Ry

     iteration #  2     ecut=    30.00 Ry     beta=0.70
     Davidson diagonalization with overlap
     ethr =  1.00E-02,  avg # of iterations =  2.0

     negative rho (up, down):  4.200E-02 0.000E+00

     total cpu time spent up to now is        0.5 secs

     total energy              =     -31.76012775 Ry
     Harris-Foulkes estimate   =     -31.79351011 Ry
     estimated scf accuracy    <       0.12764428 Ry

     iteration #  3     ecut=    30.00 Ry     beta=0.70
     Davidson diagonalization with overlap
     ethr =  1.60E-03,  avg # of iterations =  3.0

     negative rho (up, down):  2.202E-02 0.000E+00

     total cpu time spent up to now is        0.5 secs

     total energy              =     -31.79288397 Ry
     Harris-Foulkes estimate   =     -31.78154030 Ry
     estimated scf accuracy    <       0.03088260 Ry

     iteration #  4     ecut=    30.00 Ry     beta=0.70
     Davidson diagonalization with overlap
     ethr =  3.86E-04,  avg # of iterations =  4.0

     negative rho (up, down):  6.465E-03 0.000E+00

     total cpu time spent up to now is        0.6 secs

     total energy              =     -31.81127353 Ry
     Harris-Foulkes estimate   =     -31.79868133 Ry
     estimated scf accuracy    <       0.01725340 Ry

     iteration #  5     ecut=    30.00 Ry     beta=0.70
     Davidson diagonalization with overlap
     ethr =  2.16E-04,  avg # of iterations =  1.0

     negative rho (up, down):  5.411E-05 0.000E+00

     total cpu time spent up to now is        0.6 secs

     total energy              =     -31.81750449 Ry
     Harris-Foulkes estimate   =     -31.81258967 Ry
     estimated scf accuracy    <       0.00016310 Ry

     iteration #  6     ecut=    30.00 Ry     beta=0.70
     Davidson diagonalization with overlap
     ethr =  2.04E-06,  avg # of iterations = 16.0

     negative rho (up, down):  1.377E-05 0.000E+00

     total cpu time spent up to now is        0.7 secs

     total energy              =     -31.81753256 Ry
     Harris-Foulkes estimate   =     -31.81752741 Ry
     estimated scf accuracy    <       0.00000497 Ry

     iteration #  7     ecut=    30.00 Ry     beta=0.70
     Davidson diagonalization with overlap
     ethr =  6.21E-08,  avg # of iterations =  1.0

     total cpu time spent up to now is        0.8 secs

     total energy              =     -31.81753853 Ry
     Harris-Foulkes estimate   =     -31.81753331 Ry
     estimated scf accuracy    <       0.00000175 Ry

     iteration #  8     ecut=    30.00 Ry     beta=0.70
     Davidson diagonalization with overlap
     ethr =  2.19E-08,  avg # of iterations =  2.0

     total cpu time spent up to now is        0.8 secs

     total energy              =     -31.81753922 Ry
     Harris-Foulkes estimate   =     -31.81753909 Ry
     estimated scf accuracy    <       0.00000040 Ry

     iteration #  9     ecut=    30.00 Ry     beta=0.70
     Davidson diagonalization with overlap
     ethr =  4.94E-09,  avg # of iterations =  2.0

     total cpu time spent up to now is        0.9 secs

     End of self-consistent calculation

          k = 0.0000 0.0000 0.0000 ( 22119 PWs)   bands (ev):

   -25.1026 -11.3624  -8.4064  -8.4063  -8.4060  -0.3582   0.6769   0.9071

     the Fermi energy is    -8.2832 ev

!    total energy              =     -31.81753903 Ry
     Harris-Foulkes estimate   =     -31.81753931 Ry
     estimated scf accuracy    <          5.8E-09 Ry

     convergence has been achieved in   9 iterations

     Forces acting on atoms (Ry/au):

     atom    1 type  2   force =    -0.00052373   -0.00025223   -0.00014004
     atom    2 type  1   force =    -0.32776827   -0.23054628   -0.56519379
     atom    3 type  1   force =     0.32829200    0.23079851    0.56533383

     Total force =     0.980140     Total SCF correction =     0.000148

     Molecular Dynamics Calculation

     Starting temperature  =  1000.00 K

     temperature is controlled by Andersen thermostat
     Collision frequency = 1.0000/timestep
     mass H                =     1.01
     mass O                =    16.00
     Time step             =   100.00 a.u.,  4.8378 femto-seconds

     Entering Dynamics:    iteration =     1
                           time      =   0.0048 pico-seconds


     Andersen thermostat:    3 collisions

ATOMIC_POSITIONS (bohr)
O        6.591593323   4.340498765   5.726489400
H       -0.537237826   8.814521363   6.851124125
H        3.620059191  11.566857460  13.921573569


     kinetic energy (Ekin) =     0.00611491 Ry
     temperature           =   321.82226639 K 
     Ekin + Etot (const)   =   -31.81142412 Ry

     Linear momentum :    0.0000000000    0.0000000000   -0.0000000000

     Writing output data file pwscf.save
     Check: negative starting charge=   -0.363981
     NEW-OLD atomic charge density approx. for the potential
     Check: negative starting charge=   -0.349053

     negative rho (up, down):  2.866E-01 0.000E+00

     total cpu time spent up to now is        1.3 secs

     per-process dynamical memory:    20.4 Mb

     Self-consistent Calculation

     iteration #  1     ecut=    30.00 Ry     beta=0.70
     Davidson diagonalization with overlap
     c_bands:  1 eigenvalues not converged
     ethr =  1.00E-06,  avg # of iterations = 20.0

     negative rho (up, down):  8.329E-02 0.000E+00

     total cpu time spent up to now is        1.4 secs

     total energy              =     -29.27010680 Ry
     Harris-Foulkes estimate   =     -31.79099700 Ry
     estimated scf accuracy    <       3.18554219 Ry

     iteration #  2     ecut=    30.00 Ry     beta=0.70
     Davidson diagonalization with overlap
     ethr =  1.00E-02,  avg # of iterations =  5.0

     negative rho (up, down):  1.410E-02 0.000E+00

     total cpu time spent up to now is        1.5 secs

     total energy              =     -31.62081075 Ry
     Harris-Foulkes estimate   =     -38.29151984 Ry
     estimated scf accuracy    <      21.32693808 Ry

     iteration #  3     ecut=    30.00 Ry     beta=0.70
     Davidson diagonalization with overlap
     ethr =  1.00E-02,  avg # of iterations =  2.0

     negative rho (up, down):  1.530E-02 0.000E+00

     total cpu time spent up to now is        1.6 secs

     total energy              =     -30.72213736 Ry
     Harris-Foulkes estimate   =     -31.80622834 Ry
     estimated scf accuracy    <      12.14135779 Ry

     iteration #  4     ecut=    30.00 Ry     beta=0.70
     Davidson diagonalization with overlap
     ethr =  1.00E-02,  avg # of iterations =  1.0

     negative rho (up, down):  1.347E-01 0.000E+00

     total cpu time spent up to now is        1.6 secs

     total energy              =     -26.72407956 Ry
     Harris-Foulkes estimate   =     -30.73207285 Ry
     estimated scf accuracy    <      10.74428072 Ry

     iteration #  5     ecut=    30.00 Ry     beta=0.70
     Davidson diagonalization with overlap
     ethr =  1.00E-02,  avg # of iterations =  8.0

     negative rho (up, down):  5.757E-02 0.000E+00

     total cpu time spent up to now is        1.7 secs

     total energy              =     -33.98152944 Ry
     Harris-Foulkes estimate   =     -34.26338386 Ry
     estimated scf accuracy    <       7.52954723 Ry

     iteration #  6     ecut=    30.00 Ry     beta=0.70
     Davidson diagonalization with overlap
     ethr =  1.00E-02,  avg # of iterations =  1.0

     total cpu time spent up to now is        1.7 secs

     total energy              =     -32.80364698 Ry
     Harris-Foulkes estimate   =     -33.98744761 Ry
     estimated scf accuracy    <       6.94897839 Ry

     iteration #  7     ecut=    30.00 Ry     beta=0.70
     Davidson diagonalization with overlap
     ethr =  1.00E-02,  avg # of iterations =  1.0

     total cpu time spent up to now is        1.8 secs

     total energy              =     -32.24881196 Ry
     Harris-Foulkes estimate   =     -32.85748414 Ry
     estimated scf accuracy    <       4.93433522 Ry

     iteration #  8     ecut=    30.00 Ry     beta=0.70
     Davidson diagonalization with overlap
     ethr =  1.00E-02,  avg # of iterations =  1.0

     total cpu time spent up to now is        1.8 secs

     total energy              =     -31.93566831 Ry
     Harris-Foulkes estimate   =     -32.24485966 Ry
     estimated scf accuracy    <       3.97434567 Ry

     iteration #  9     ecut=    30.00 Ry     beta=0.70
     Davidson diagonalization with overlap
     ethr =  1.00E-02,  avg # of iterations =  1.0

     total cpu time spent up to now is        1.9 secs

     total energy              =     -31.63366687 Ry
     Harris-Foulkes estimate   =     -31.93809959 Ry
     estimated scf accuracy    <       3.48115976 Ry

     iteration # 10     ecut=    30.00 Ry     beta=0.70
     Davidson diagonalization with overlap
     ethr =  1.00E-02,  avg # of iterations =  1.0

     negative rho (up, down):  5.165E-03 0.000E+00

     total cpu time spent up to now is        1.9 secs

     total energy              =     -33.82302437 Ry
     Harris-Foulkes estimate   =     -31.63652358 Ry
     estimated scf accuracy    <       2.98122893 Ry

     iteration # 11     ecut=    30.00 Ry     beta=0.70
     Davidson diagonalization with overlap
     ethr =  1.00E-02,  avg # of iterations =  2.0

     negative rho (up, down):  5.085E-02 0.000E+00

     total cpu time spent up to now is        2.0 secs

     total energy              =     -29.38638274 Ry
     Harris-Foulkes estimate   =     -33.95122236 Ry
     estimated scf accuracy    <       6.65865832 Ry

     iteration # 12     ecut=    30.00 Ry     beta=0.70
     Davidson diagonalization with overlap
     ethr =  1.00E-02,  avg # of iterations =  7.0

     total cpu time spent up to now is        2.1 secs

     total energy              =     -36.05514242 Ry
     Harris-Foulkes estimate   =     -36.37281616 Ry
     estimated scf accuracy    <      19.66890452 Ry

     iteration # 13     ecut=    30.00 Ry     beta=0.70
     Davidson diagonalization with overlap
     ethr =  1.00E-02,  avg # of iterations =  1.0

     negative rho (up, down):  3.412E-03 0.000E+00

     total cpu time spent up to now is        2.1 secs

     total energy              =     -36.82614577 Ry
     Harris-Foulkes estimate   =     -36.06351958 Ry
     estimated scf accuracy    <      19.06973544 Ry

     iteration # 14     ecut=    30.00 Ry     beta=0.70
     Davidson diagonalization with overlap
     ethr =  1.00E-02,  avg # of iterations =  1.0

     negative rho (up, down):  5.969E-03 0.000E+00

     total cpu time spent up to now is        2.2 secs

     total energy              =     -36.99563836 Ry
     Harris-Foulkes estimate   =     -36.83254123 Ry
     estimated scf accuracy    <      20.19801933 Ry

     iteration # 15     ecut=    30.00 Ry     beta=0.70
     Davidson diagonalization with overlap
     ethr =  1.00E-02,  avg # of iterations =  1.0

     negative rho (up, down):  1.366E-02 0.000E+00

     total cpu time spent up to now is        2.2 secs

     total energy              =     -37.15853272 Ry
     Harris-Foulkes estimate   =     -36.99759527 Ry
     estimated scf accuracy    <      20.43463436 Ry

     iteration # 16     ecut=    30.00 Ry     beta=0.70
     Davidson diagonalization with overlap
     ethr =  1.00E-02,  avg # of iterations =  1.0

     negative rho (up, down):  1.377E-02 0.000E+00

     total cpu time spent up to now is        2.3 secs

     total energy              =     -37.15422282 Ry
     Harris-Foulkes estimate   =     -37.16017611 Ry
     estimated scf accuracy    <      20.68070023 Ry

     iteration # 17     ecut=    30.00 Ry     beta=0.70
     Davidson diagonalization with overlap
     ethr =  1.00E-02,  avg # of iterations =  1.0

     negative rho (up, down):  3.455E-02 0.000E+00

     total cpu time spent up to now is        2.3 secs

     total energy              =     -37.02698514 Ry
     Harris-Foulkes estimate   =     -37.15506390 Ry
     estimated scf accuracy    <      20.69108601 Ry

     iteration # 18     ecut=    30.00 Ry     beta=0.70
     Davidson diagonalization with overlap
     ethr =  1.00E-02,  avg # of iterations =  1.0

     negative rho (up, down):  1.607E-02 0.000E+00

     total cpu time spent up to now is        2.4 secs

     total energy              =     -36.28631725 Ry
     Harris-Foulkes estimate   =     -37.03032762 Ry
     estimated scf accuracy    <      20.41148722 Ry

     iteration # 19     ecut=    30.00 Ry     beta=0.70
     Davidson diagonalization with overlap
     ethr =  1.00E-02,  avg # of iterations =  1.0

     negative rho (up, down):  2.836E-02 0.000E+00

     total cpu time spent up to now is        2.4 secs

     total energy              =     -27.41937162 Ry
     Harris-Foulkes estimate   =     -36.29050909 Ry
     estimated scf accuracy    <      19.26280531 Ry

     iteration # 20     ecut=    30.00 Ry     beta=0.70
     Davidson diagonalization with overlap
     ethr =  1.00E-02,  avg # of iterations =  9.0

     negative rho (up, down):  4.188E-03 0.000E+00

     total cpu time spent up to now is        2.5 secs

     total energy              =     -32.74075417 Ry
     Harris-Foulkes estimate   =     -33.15338088 Ry
     estimated scf accuracy    <       5.25994335 Ry

     iteration # 21     ecut=    30.00 Ry     beta=0.70
     Davidson diagonalization with overlap
     ethr =  1.00E-02,  avg # of iterations =  1.0

     negative rho (up, down):  1.559E-03 0.000E+00

     total cpu time spent up to now is        2.5 secs

     total energy              =     -32.37477124 Ry
     Harris-Foulkes estimate   =     -32.74276955 Ry
     estimated scf accuracy    <       4.68827867 Ry

     iteration # 22     ecut=    30.00 Ry     beta=0.70
     Davidson diagonalization with overlap
     ethr =  1.00E-02,  avg # of iterations =  1.0

     negative rho (up, down):  9.950E-03 0.000E+00

     total cpu time spent up to now is        2.6 secs

     total energy              =     -30.74336725 Ry
     Harris-Foulkes estimate   =     -32.36527038 Ry
     estimated scf accuracy    <       4.11841387 Ry

     iteration # 23     ecut=    30.00 Ry     beta=0.70
     Davidson diagonalization with overlap
     ethr =  1.00E-02,  avg # of iterations =  2.0

     negative rho (up, down):  7.203E-05 0.000E+00

     total cpu time spent up to now is        2.6 secs

     total energy              =     -31.56740679 Ry
     Harris-Foulkes estimate   =     -32.34675965 Ry
     estimated scf accuracy    <       5.08464070 Ry

     iteration # 24     ecut=    30.00 Ry     beta=0.70
     Davidson diagonalization with overlap
     ethr =  1.00E-02,  avg # of iterations =  1.0

     negative rho (up, down):  5.292E-05 0.000E+00

     total cpu time spent up to now is        2.7 secs

     total energy              =     -31.71822006 Ry
     Harris-Foulkes estimate   =     -31.57811294 Ry
     estimated scf accuracy    <       4.27609472 Ry

     iteration # 25     ecut=    30.00 Ry     beta=0.70
     Davidson diagonalization with overlap
     ethr =  1.00E-02,  avg # of iterations =  1.0

     negative rho (up, down):  3.058E-04 0.000E+00

     total cpu time spent up to now is        2.7 secs

     total energy              =     -31.89217136 Ry
     Harris-Foulkes estimate   =     -31.71777116 Ry
     estimated scf accuracy    <       4.11861297 Ry

     iteration # 26     ecut=    30.00 Ry     beta=0.70
     Davidson diagonalization with overlap
     ethr =  1.00E-02,  avg # of iterations =  1.0

     negative rho (up, down):  3.222E-04 0.000E+00

     total cpu time spent up to now is        2.8 secs

     total energy              =     -31.92775121 Ry
     Harris-Foulkes estimate   =     -31.89304397 Ry
     estimated scf accuracy    <       4.39569915 Ry

     iteration # 27     ecut=    30.00 Ry     beta=0.70
     Davidson diagonalization with overlap
     ethr =  1.00E-02,  avg # of iterations =  1.0

     negative rho (up, down):  8.443E-05 0.000E+00

     total cpu time spent up to now is        2.8 secs

     total energy              =     -32.27901046 Ry
     Harris-Foulkes estimate   =     -31.92786101 Ry
     estimated scf accuracy    <       4.45195081 Ry

     iteration # 28     ecut=    30.00 Ry     beta=0.70
     Davidson diagonalization with overlap
     ethr =  1.00E-02,  avg # of iterations =  1.0

     negative rho (up, down):  5.422E-02 0.000E+00

     total cpu time spent up to now is        2.9 secs

     total energy              =     -33.47128568 Ry
     Harris-Foulkes estimate   =     -32.28196193 Ry
     estimated scf accuracy    <       5.02296495 Ry

     iteration # 29     ecut=    30.00 Ry     beta=0.70
     Davidson diagonalization with overlap
     ethr =  1.00E-02,  avg # of iterations =  2.0

     negative rho (up, down):  7.092E-03 0.000E+00

     total cpu time spent up to now is        2.9 secs

     total energy              =     -30.66371446 Ry
     Harris-Foulkes estimate   =     -33.65309258 Ry
     estimated scf accuracy    <      14.68364871 Ry

     iteration # 30     ecut=    30.00 Ry     beta=0.70
     Davidson diagonalization with overlap
     ethr =  1.00E-02,  avg # of iterations =  2.0

     total cpu time spent up to now is        3.0 secs

     total energy              =     -31.50697455 Ry
     Harris-Foulkes estimate   =     -31.62727753 Ry
     estimated scf accuracy    <       4.59201886 Ry

     iteration # 31     ecut=    30.00 Ry     beta=0.70
     Davidson diagonalization with overlap
     ethr =  1.00E-02,  avg # of iterations =  1.0

     negative rho (up, down):  6.575E-02 0.000E+00

     total cpu time spent up to now is        3.0 secs

     total energy              =     -31.19587127 Ry
     Harris-Foulkes estimate   =     -31.56556170 Ry
     estimated scf accuracy    <       1.04613063 Ry

     iteration # 32     ecut=    30.00 Ry     beta=0.70
     Davidson diagonalization with overlap
     ethr =  1.00E-02,  avg # of iterations =  2.0

     negative rho (up, down):  8.518E-04 0.000E+00

     total cpu time spent up to now is        3.1 secs

     total energy              =     -31.73186961 Ry
     Harris-Foulkes estimate   =     -32.93859274 Ry
     estimated scf accuracy    <       4.95569262 Ry

     iteration # 33     ecut=    30.00 Ry     beta=0.70
     Davidson diagonalization with overlap
     ethr =  1.00E-02,  avg # of iterations =  1.0

     negative rho (up, down):  2.619E-04 0.000E+00

     total cpu time spent up to now is        3.1 secs

     total energy              =     -31.77087278 Ry
     Harris-Foulkes estimate   =     -31.75660812 Ry
     estimated scf accuracy    <       3.05865126 Ry

     iteration # 34     ecut=    30.00 Ry     beta=0.70
     Davidson diagonalization with overlap
     ethr =  1.00E-02,  avg # of iterations =  1.0

     negative rho (up, down):  4.182E-04 0.000E+00

     total cpu time spent up to now is        3.2 secs

     total energy              =     -31.85261780 Ry
     Harris-Foulkes estimate   =     -31.77177244 Ry
     estimated scf accuracy    <       3.07738624 Ry

     iteration # 35     ecut=    30.00 Ry     beta=0.70
     Davidson diagonalization with overlap
     ethr =  1.00E-02,  avg # of iterations =  1.0

     negative rho (up, down):  8.872E-05 0.000E+00

     total cpu time spent up to now is        3.2 secs

     total energy              =     -31.83902402 Ry
     Harris-Foulkes estimate   =     -31.85285602 Ry
     estimated scf accuracy    <       3.20715429 Ry

     iteration # 36     ecut=    30.00 Ry     beta=0.70
     Davidson diagonalization with overlap
     ethr =  1.00E-02,  avg # of iterations =  1.0

     negative rho (up, down):  1.272E-07 0.000E+00

     total cpu time spent up to now is        3.3 secs

     total energy              =     -31.87078431 Ry
     Harris-Foulkes estimate   =     -31.83908987 Ry
     estimated scf accuracy    <       3.18977245 Ry

     iteration # 37     ecut=    30.00 Ry     beta=0.70
     Davidson diagonalization with overlap
     ethr =  1.00E-02,  avg # of iterations =  1.0

     negative rho (up, down):  9.950E-07 0.000E+00

     total cpu time spent up to now is        3.3 secs

     total energy              =     -31.86810988 Ry
     Harris-Foulkes estimate   =     -31.87085021 Ry
     estimated scf accuracy    <       3.24318197 Ry

     iteration # 38     ecut=    30.00 Ry     beta=0.70
     Davidson diagonalization with overlap
     ethr =  1.00E-02,  avg # of iterations =  1.0

     negative rho (up, down):  1.015E-02 0.000E+00

     total cpu time spent up to now is        3.4 secs

     total energy              =     -31.82472142 Ry
     Harris-Foulkes estimate   =     -31.86812069 Ry
     estimated scf accuracy    <       3.23778560 Ry

     iteration # 39     ecut=    30.00 Ry     beta=0.70
     Davidson diagonalization with overlap
     ethr =  1.00E-02,  avg # of iterations =  1.0

     negative rho (up, down):  7.134E-03 0.000E+00

     total cpu time spent up to now is        3.4 secs

     total energy              =     -31.82911982 Ry
     Harris-Foulkes estimate   =     -31.94811843 Ry
     estimated scf accuracy    <       1.67563573 Ry

     iteration # 40     ecut=    30.00 Ry     beta=0.70
     Davidson diagonalization with overlap
     ethr =  1.00E-02,  avg # of iterations =  1.0

     negative rho (up, down):  9.006E-02 0.000E+00

     total cpu time spent up to now is        3.5 secs

     total energy              =     -31.22853604 Ry
     Harris-Foulkes estimate   =     -31.82858211 Ry
     estimated scf accuracy    <       1.44971961 Ry

     iteration # 41     ecut=    30.00 Ry     beta=0.70
     Davidson diagonalization with overlap
     ethr =  1.00E-02,  avg # of iterations =  2.0

     total cpu time spent up to now is        3.5 secs

     total energy              =     -31.89779493 Ry
     Harris-Foulkes estimate   =     -33.01058330 Ry
     estimated scf accuracy    <       7.05635350 Ry

     iteration # 42     ecut=    30.00 Ry     beta=0.70
     Davidson diagonalization with overlap
     ethr =  1.00E-02,  avg # of iterations =  2.0

     negative rho (up, down):  1.697E-05 0.000E+00

     total cpu time spent up to now is        3.6 secs

     total energy              =     -31.77910645 Ry
     Harris-Foulkes estimate   =     -32.00434306 Ry
     estimated scf accuracy    <       4.40112748 Ry

     iteration # 43     ecut=    30.00 Ry     beta=0.70
     Davidson diagonalization with overlap
     ethr =  1.00E-02,  avg # of iterations =  1.0

     negative rho (up, down):  1.874E-05 0.000E+00

     total cpu time spent up to now is        3.6 secs

     total energy              =     -31.68382439 Ry
     Harris-Foulkes estimate   =     -31.78417137 Ry
     estimated scf accuracy    <       4.02584231 Ry

     iteration # 44     ecut=    30.00 Ry     beta=0.70
     Davidson diagonalization with overlap
     ethr =  1.00E-02,  avg # of iterations =  1.0

     total cpu time spent up to now is        3.7 secs

     total energy              =     -31.58328682 Ry
     Harris-Foulkes estimate   =     -31.68490420 Ry
     estimated scf accuracy    <       3.86829151 Ry

     iteration # 45     ecut=    30.00 Ry     beta=0.70
     Davidson diagonalization with overlap
     ethr =  1.00E-02,  avg # of iterations =  1.0

     total cpu time spent up to now is        3.7 secs

     total energy              =     -31.63430809 Ry
     Harris-Foulkes estimate   =     -31.58014891 Ry
     estimated scf accuracy    <       4.44330362 Ry

     iteration # 46     ecut=    30.00 Ry     beta=0.70
     Davidson diagonalization with overlap
     ethr =  1.00E-02,  avg # of iterations =  1.0

     total cpu time spent up to now is        3.8 secs

     total energy              =     -31.80068249 Ry
     Harris-Foulkes estimate   =     -31.63257391 Ry
     estimated scf accuracy    <       4.02999530 Ry

     iteration # 47     ecut=    30.00 Ry     beta=0.70
     Davidson diagonalization with overlap
     ethr =  1.00E-02,  avg # of iterations =  1.0

     negative rho (up, down):  1.520E-03 0.000E+00

     total cpu time spent up to now is        3.8 secs

     total energy              =     -31.78731301 Ry
     Harris-Foulkes estimate   =     -31.80259080 Ry
     estimated scf accuracy    <       4.06882218 Ry

     iteration # 48     ecut=    30.00 Ry     beta=0.70
     Davidson diagonalization with overlap
     ethr =  1.00E-02,  avg # of iterations =  1.0

     negative rho (up, down):  2.696E-02 0.000E+00

     total cpu time spent up to now is        3.9 secs

     total energy              =     -32.06960262 Ry
     Harris-Foulkes estimate   =     -31.78788673 Ry
     estimated scf accuracy    <       4.05618933 Ry

     iteration # 49     ecut=    30.00 Ry     beta=0.70
     Davidson diagonalization with overlap
     ethr =  1.00E-02,  avg # of iterations =  1.0

     negative rho (up, down):  3.472E-02 0.000E+00

     total cpu time spent up to now is        3.9 secs

     total energy              =     -30.69484969 Ry
     Harris-Foulkes estimate   =     -32.07124125 Ry
     estimated scf accuracy    <       4.47302628 Ry

     iteration # 50     ecut=    30.00 Ry     beta=0.70
     Davidson diagonalization with overlap
     ethr =  1.00E-02,  avg # of iterations =  2.0

     negative rho (up, down):  9.063E-04 0.000E+00

     total cpu time spent up to now is        4.0 secs

     total energy              =     -31.50587579 Ry
     Harris-Foulkes estimate   =     -32.24311408 Ry
     estimated scf accuracy    <       3.80065447 Ry

     iteration # 51     ecut=    30.00 Ry     beta=0.70
     Davidson diagonalization with overlap
     ethr =  1.00E-02,  avg # of iterations =  1.0

     negative rho (up, down):  9.663E-04 0.000E+00

     total cpu time spent up to now is        4.0 secs

     total energy              =     -31.54480218 Ry
     Harris-Foulkes estimate   =     -31.58932405 Ry
     estimated scf accuracy    <       1.26703166 Ry

     iteration # 52     ecut=    30.00 Ry     beta=0.70
     Davidson diagonalization with overlap
     ethr =  1.00E-02,  avg # of iterations =  1.0

     negative rho (up, down):  2.063E-04 0.000E+00

     total cpu time spent up to now is        4.1 secs

     total energy              =     -30.73731541 Ry
     Harris-Foulkes estimate   =     -31.60058024 Ry
     estimated scf accuracy    <       3.86691173 Ry

     iteration # 53     ecut=    30.00 Ry     beta=0.70
     Davidson diagonalization with overlap
     ethr =  1.00E-02,  avg # of iterations =  1.0

     total cpu time spent up to now is        4.1 secs

     total energy              =     -31.84633418 Ry
     Harris-Foulkes estimate   =     -32.23089662 Ry
     estimated scf accuracy    <       3.79631681 Ry

     iteration # 54     ecut=    30.00 Ry     beta=0.70
     Davidson diagonalization with overlap
     ethr =  1.00E-02,  avg # of iterations =  1.0

     total cpu time spent up to now is        4.2 secs

     total energy              =     -31.71432498 Ry
     Harris-Foulkes estimate   =     -31.85049993 Ry
     estimated scf accuracy    <       3.22948166 Ry

     iteration # 55     ecut=    30.00 Ry     beta=0.70
     Davidson diagonalization with overlap
     ethr =  1.00E-02,  avg # of iterations =  1.0

     total cpu time spent up to now is        4.2 secs

     total energy              =     -31.63446953 Ry
     Harris-Foulkes estimate   =     -31.71557207 Ry
     estimated scf accuracy    <       2.95149159 Ry

     iteration # 56     ecut=    30.00 Ry     beta=0.70
     Davidson diagonalization with overlap
     ethr =  1.00E-02,  avg # of iterations =  1.0

     negative rho (up, down):  2.975E-08 0.000E+00

     total cpu time spent up to now is        4.3 secs

     total energy              =     -31.72313932 Ry
     Harris-Foulkes estimate   =     -31.63721089 Ry
     estimated scf accuracy    <       2.08354878 Ry

     iteration # 57     ecut=    30.00 Ry     beta=0.70
     Davidson diagonalization with overlap
     ethr =  1.00E-02,  avg # of iterations =  1.0

     negative rho (up, down):  3.092E-06 0.000E+00

     total cpu time spent up to now is        4.3 secs

     total energy              =     -31.78764357 Ry
     Harris-Foulkes estimate   =     -31.72958976 Ry
     estimated scf accuracy    <       2.98351968 Ry

     iteration # 58     ecut=    30.00 Ry     beta=0.70
     Davidson diagonalization with overlap
     ethr =  1.00E-02,  avg # of iterations =  1.0

     negative rho (up, down):  3.117E-06 0.000E+00

     total cpu time spent up to now is        4.4 secs

     total energy              =     -31.70338339 Ry
     Harris-Foulkes estimate   =     -31.78802160 Ry
     estimated scf accuracy    <       3.11033866 Ry

     iteration # 59     ecut=    30.00 Ry     beta=0.70
     Davidson diagonalization with overlap
     ethr =  1.00E-02,  avg # of iterations =  1.0

     negative rho (up, down):  8.492E-06 0.000E+00

     total cpu time spent up to now is        4.4 secs

     total energy              =     -31.66144941 Ry
     Harris-Foulkes estimate   =     -31.70360635 Ry
     estimated scf accuracy    <       2.95964837 Ry

     iteration # 60     ecut=    30.00 Ry     beta=0.70
     Davidson diagonalization with overlap
     ethr =  1.00E-02,  avg # of iterations =  1.0

     negative rho (up, down):  3.121E-05 0.000E+00

     total cpu time spent up to now is        4.5 secs

     total energy              =     -31.76483381 Ry
     Harris-Foulkes estimate   =     -31.66148193 Ry
     estimated scf accuracy    <       2.89261465 Ry

     iteration # 61     ecut=    30.00 Ry     beta=0.70
     Davidson diagonalization with overlap
     ethr =  1.00E-02,  avg # of iterations =  1.0

     negative rho (up, down):  1.310E-02 0.000E+00

     total cpu time spent up to now is        4.5 secs

     total energy              =     -30.73201116 Ry
     Harris-Foulkes estimate   =     -31.76531913 Ry
     estimated scf accuracy    <       2.87619316 Ry

     iteration # 62     ecut=    30.00 Ry     beta=0.70
     Davidson diagonalization with overlap
     ethr =  1.00E-02,  avg # of iterations =  2.0

     negative rho (up, down):  3.340E-07 0.000E+00

     total cpu time spent up to now is        4.6 secs

     total energy              =     -32.37815664 Ry
     Harris-Foulkes estimate   =     -32.83819688 Ry
     estimated scf accuracy    <       6.19609229 Ry

     iteration # 63     ecut=    30.00 Ry     beta=0.70
     Davidson diagonalization with overlap
     ethr =  1.00E-02,  avg # of iterations =  1.0

     total cpu time spent up to now is        4.6 secs

     total energy              =     -31.95224848 Ry
     Harris-Foulkes estimate   =     -32.38907074 Ry
     estimated scf accuracy    <       4.98669300 Ry

     iteration # 64     ecut=    30.00 Ry     beta=0.70
     Davidson diagonalization with overlap
     ethr =  1.00E-02,  avg # of iterations =  1.0

     total cpu time spent up to now is        4.7 secs

     total energy              =     -31.68921834 Ry
     Harris-Foulkes estimate   =     -31.96106682 Ry
     estimated scf accuracy    <       4.29117979 Ry

     iteration # 65     ecut=    30.00 Ry     beta=0.70
     Davidson diagonalization with overlap
     ethr =  1.00E-02,  avg # of iterations =  1.0

     total cpu time spent up to now is        4.7 secs

     total energy              =     -31.60101556 Ry
     Harris-Foulkes estimate   =     -31.69281409 Ry
     estimated scf accuracy    <       3.86273658 Ry

     iteration # 66     ecut=    30.00 Ry     beta=0.70
     Davidson diagonalization with overlap
     ethr =  1.00E-02,  avg # of iterations =  1.0

     total cpu time spent up to now is        4.8 secs

     total energy              =     -31.61038295 Ry
     Harris-Foulkes estimate   =     -31.60039039 Ry
     estimated scf accuracy    <       4.23333108 Ry

     iteration # 67     ecut=    30.00 Ry     beta=0.70
     Davidson diagonalization with overlap
     ethr =  1.00E-02,  avg # of iterations =  1.0

     negative rho (up, down):  2.978E-07 0.000E+00

     total cpu time spent up to now is        4.8 secs

     total energy              =     -31.65734238 Ry
     Harris-Foulkes estimate   =     -31.61030236 Ry
     estimated scf accuracy    <       4.05702544 Ry

     iteration # 68     ecut=    30.00 Ry     beta=0.70
     Davidson diagonalization with overlap
     ethr =  1.00E-02,  avg # of iterations =  1.0

     total cpu time spent up to now is        4.9 secs

     total energy              =     -31.63900550 Ry
     Harris-Foulkes estimate   =     -31.65616509 Ry
     estimated scf accuracy    <       3.81365797 Ry

     iteration # 69     ecut=    30.00 Ry     beta=0.70
     Davidson diagonalization with overlap
     ethr =  1.00E-02,  avg # of iterations =  1.0

     total cpu time spent up to now is        4.9 secs

     total energy              =     -31.67011379 Ry
     Harris-Foulkes estimate   =     -31.63897399 Ry
     estimated scf accuracy    <       3.83415342 Ry

     iteration # 70     ecut=    30.00 Ry     beta=0.70
     Davidson diagonalization with overlap
     ethr =  1.00E-02,  avg # of iterations =  1.0

     negative rho (up, down):  1.902E-02 0.000E+00

     total cpu time spent up to now is        5.0 secs

     total energy              =     -32.08526407 Ry
     Harris-Foulkes estimate   =     -31.66997484 Ry
     estimated scf accuracy    <       3.82662544 Ry

     iteration # 71     ecut=    30.00 Ry     beta=0.70
     Davidson diagonalization with overlap
     ethr =  1.00E-02,  avg # of iterations =  1.0

     negative rho (up, down):  1.273E-02 0.000E+00

     total cpu time spent up to now is        5.0 secs

     total energy              =     -32.14540193 Ry
     Harris-Foulkes estimate   =     -32.09108504 Ry
     estimated scf accuracy    <       4.49848399 Ry

     iteration # 72     ecut=    30.00 Ry     beta=0.70
     Davidson diagonalization with overlap
     ethr =  1.00E-02,  avg # of iterations =  1.0

     negative rho (up, down):  3.734E-02 0.000E+00

     total cpu time spent up to now is        5.1 secs

     total energy              =     -32.64344744 Ry
     Harris-Foulkes estimate   =     -32.14613043 Ry
     estimated scf accuracy    <       4.58852487 Ry

     iteration # 73     ecut=    30.00 Ry     beta=0.70
     Davidson diagonalization with overlap
     ethr =  1.00E-02,  avg # of iterations =  1.0

     negative rho (up, down):  1.822E-03 0.000E+00

     total cpu time spent up to now is        5.1 secs

     total energy              =     -32.12381686 Ry
     Harris-Foulkes estimate   =     -32.65288070 Ry
     estimated scf accuracy    <       5.49634826 Ry

     iteration # 74     ecut=    30.00 Ry     beta=0.70
     Davidson diagonalization with overlap
     ethr =  1.00E-02,  avg # of iterations =  1.0

     negative rho (up, down):  2.563E-03 0.000E+00

     total cpu time spent up to now is        5.2 secs

     total energy              =     -32.13725230 Ry
     Harris-Foulkes estimate   =     -32.13196205 Ry
     estimated scf accuracy    <       4.65182058 Ry

     iteration # 75     ecut=    30.00 Ry     beta=0.70
     Davidson diagonalization with overlap
     ethr =  1.00E-02,  avg # of iterations =  1.0

     negative rho (up, down):  2.178E-02 0.000E+00

     total cpu time spent up to now is        5.2 secs

     total energy              =     -31.70479730 Ry
     Harris-Foulkes estimate   =     -32.13836538 Ry
     estimated scf accuracy    <       4.63430922 Ry

     iteration # 76     ecut=    30.00 Ry     beta=0.70
     Davidson diagonalization with overlap
     ethr =  1.00E-02,  avg # of iterations =  1.0

     negative rho (up, down):  3.224E-01 0.000E+00

     total cpu time spent up to now is        5.3 secs

     total energy              =     -28.64789412 Ry
     Harris-Foulkes estimate   =     -31.70787421 Ry
     estimated scf accuracy    <       3.76745243 Ry

     iteration # 77     ecut=    30.00 Ry     beta=0.70
     Davidson diagonalization with overlap
     ethr =  1.00E-02,  avg # of iterations =  3.0

     negative rho (up, down):  1.471E-02 0.000E+00

     total cpu time spent up to now is        5.3 secs

     total energy              =     -33.85580952 Ry
     Harris-Foulkes estimate   =     -37.27865288 Ry
     estimated scf accuracy    <      11.21772125 Ry

     iteration # 78     ecut=    30.00 Ry     beta=0.70
     Davidson diagonalization with overlap
     ethr =  1.00E-02,  avg # of iterations =  1.0

     negative rho (up, down):  4.574E-07 0.000E+00

     total cpu time spent up to now is        5.4 secs

     total energy              =     -31.72172262 Ry
     Harris-Foulkes estimate   =     -33.94801819 Ry
     estimated scf accuracy    <       6.41565800 Ry

     iteration # 79     ecut=    30.00 Ry     beta=0.70
     Davidson diagonalization with overlap
     ethr =  1.00E-02,  avg # of iterations =  4.0

     negative rho (up, down):  9.674E-05 0.000E+00

     total cpu time spent up to now is        5.4 secs

     total energy              =     -31.56079898 Ry
     Harris-Foulkes estimate   =     -31.79720281 Ry
     estimated scf accuracy    <       3.05739421 Ry

     iteration # 80     ecut=    30.00 Ry     beta=0.70
     Davidson diagonalization with overlap
     ethr =  1.00E-02,  avg # of iterations =  1.0

     negative rho (up, down):  3.223E-04 0.000E+00

     total cpu time spent up to now is        5.5 secs

     total energy              =     -31.33943249 Ry
     Harris-Foulkes estimate   =     -31.56335752 Ry
     estimated scf accuracy    <       2.65850879 Ry

     iteration # 81     ecut=    30.00 Ry     beta=0.70
     Davidson diagonalization with overlap
     ethr =  1.00E-02,  avg # of iterations =  1.0

     negative rho (up, down):  9.728E-06 0.000E+00

     total cpu time spent up to now is        5.5 secs

     total energy              =     -31.51250130 Ry
     Harris-Foulkes estimate   =     -31.48577206 Ry
     estimated scf accuracy    <       0.76579132 Ry

     iteration # 82     ecut=    30.00 Ry     beta=0.70
     Davidson diagonalization with overlap
     ethr =  9.57E-03,  avg # of iterations =  4.0

     negative rho (up, down):  3.059E-06 0.000E+00

     total cpu time spent up to now is        5.6 secs

     total energy              =     -31.60419138 Ry
     Harris-Foulkes estimate   =     -31.59626528 Ry
     estimated scf accuracy    <       2.65690486 Ry

     iteration # 83     ecut=    30.00 Ry     beta=0.70
     Davidson diagonalization with overlap
     ethr =  9.57E-03,  avg # of iterations =  1.0

     negative rho (up, down):  2.405E-06 0.000E+00

     total cpu time spent up to now is        5.6 secs

     total energy              =     -31.55338281 Ry
     Harris-Foulkes estimate   =     -31.60494362 Ry
     estimated scf accuracy    <       2.40611847 Ry

     iteration # 84     ecut=    30.00 Ry     beta=0.70
     Davidson diagonalization with overlap
     ethr =  9.57E-03,  avg # of iterations =  1.0

     negative rho (up, down):  1.420E-04 0.000E+00

     total cpu time spent up to now is        5.7 secs

     total energy              =     -31.53480153 Ry
     Harris-Foulkes estimate   =     -31.57864978 Ry
     estimated scf accuracy    <       0.75669162 Ry

     iteration # 85     ecut=    30.00 Ry     beta=0.70
     Davidson diagonalization with overlap
     ethr =  9.46E-03,  avg # of iterations =  1.0

     negative rho (up, down):  2.870E-05 0.000E+00

     total cpu time spent up to now is        5.7 secs

     total energy              =     -33.36957858 Ry
     Harris-Foulkes estimate   =     -32.03128053 Ry
     estimated scf accuracy    <       3.41709548 Ry

     iteration # 86     ecut=    30.00 Ry     beta=0.70
     Davidson diagonalization with overlap
     ethr =  9.46E-03,  avg # of iterations =  2.0

     negative rho (up, down):  7.343E-06 0.000E+00

     total cpu time spent up to now is        5.8 secs

     total energy              =     -31.56144032 Ry
     Harris-Foulkes estimate   =     -33.41575792 Ry
     estimated scf accuracy    <       5.45304954 Ry

     iteration # 87     ecut=    30.00 Ry     beta=0.70
     Davidson diagonalization with overlap
     ethr =  9.46E-03,  avg # of iterations =  1.0

     negative rho (up, down):  6.512E-07 0.000E+00

     total cpu time spent up to now is        5.8 secs

     total energy              =     -31.90560146 Ry
     Harris-Foulkes estimate   =     -32.29085706 Ry
     estimated scf accuracy    <       2.19071468 Ry

     iteration # 88     ecut=    30.00 Ry     beta=0.70
     Davidson diagonalization with overlap
     ethr =  9.46E-03,  avg # of iterations =  1.0

     negative rho (up, down):  1.504E-07 0.000E+00

     total cpu time spent up to now is        5.9 secs

     total energy              =     -31.62068496 Ry
     Harris-Foulkes estimate   =     -31.91125987 Ry
     estimated scf accuracy    <       1.57697574 Ry

     iteration # 89     ecut=    30.00 Ry     beta=0.70
     Davidson diagonalization with overlap
     ethr =  9.46E-03,  avg # of iterations =  1.0

     total cpu time spent up to now is        5.9 secs

     total energy              =     -31.48013521 Ry
     Harris-Foulkes estimate   =     -31.62093925 Ry
     estimated scf accuracy    <       1.31091090 Ry

     iteration # 90     ecut=    30.00 Ry     beta=0.70
     Davidson diagonalization with overlap
     ethr =  9.46E-03,  avg # of iterations =  1.0

     negative rho (up, down):  7.039E-08 0.000E+00

     total cpu time spent up to now is        6.0 secs

     total energy              =     -31.46256568 Ry
     Harris-Foulkes estimate   =     -31.66033815 Ry
     estimated scf accuracy    <       2.89116941 Ry

     iteration # 91     ecut=    30.00 Ry     beta=0.70
     Davidson diagonalization with overlap
     ethr =  9.46E-03,  avg # of iterations =  1.0

     negative rho (up, down):  2.234E-07 0.000E+00

     total cpu time spent up to now is        6.1 secs

     total energy              =     -31.50906597 Ry
     Harris-Foulkes estimate   =     -31.49868740 Ry
     estimated scf accuracy    <       0.33348881 Ry

     iteration # 92     ecut=    30.00 Ry     beta=0.70
     Davidson diagonalization with overlap
     ethr =  4.17E-03,  avg # of iterations =  1.0

     total cpu time spent up to now is        6.1 secs

     total energy              =     -31.42792330 Ry
     Harris-Foulkes estimate   =     -31.52148173 Ry
     estimated scf accuracy    <       1.18882652 Ry

     iteration # 93     ecut=    30.00 Ry     beta=0.70
     Davidson diagonalization with overlap
     ethr =  4.17E-03,  avg # of iterations =  1.0

     negative rho (up, down):  5.886E-08 0.000E+00

     total cpu time spent up to now is        6.2 secs

     total energy              =     -31.62589367 Ry
     Harris-Foulkes estimate   =     -31.63403901 Ry
     estimated scf accuracy    <       2.84843277 Ry

     iteration # 94     ecut=    30.00 Ry     beta=0.70
     Davidson diagonalization with overlap
     ethr =  4.17E-03,  avg # of iterations =  1.0

     negative rho (up, down):  1.929E-07 0.000E+00

     total cpu time spent up to now is        6.2 secs

     total energy              =     -31.60125357 Ry
     Harris-Foulkes estimate   =     -31.62596429 Ry
     estimated scf accuracy    <       2.82797031 Ry

     iteration # 95     ecut=    30.00 Ry     beta=0.70
     Davidson diagonalization with overlap
     ethr =  4.17E-03,  avg # of iterations =  1.0

     total cpu time spent up to now is        6.3 secs

     total energy              =     -31.55128215 Ry
     Harris-Foulkes estimate   =     -31.60668515 Ry
     estimated scf accuracy    <       1.66192866 Ry

     iteration # 96     ecut=    30.00 Ry     beta=0.70
     Davidson diagonalization with overlap
     ethr =  4.17E-03,  avg # of iterations =  1.0

     total cpu time spent up to now is        6.3 secs

     total energy              =     -31.50983526 Ry
     Harris-Foulkes estimate   =     -31.55373736 Ry
     estimated scf accuracy    <       0.98900170 Ry

     iteration # 97     ecut=    30.00 Ry     beta=0.70
     Davidson diagonalization with overlap
     ethr =  4.17E-03,  avg # of iterations =  1.0

     total cpu time spent up to now is        6.4 secs

     total energy              =     -31.50269294 Ry
     Harris-Foulkes estimate   =     -31.51047346 Ry
     estimated scf accuracy    <       0.73872983 Ry

     iteration # 98     ecut=    30.00 Ry     beta=0.70
     Davidson diagonalization with overlap
     ethr =  4.17E-03,  avg # of iterations =  1.0

     total cpu time spent up to now is        6.4 secs

     total energy              =     -31.48530736 Ry
     Harris-Foulkes estimate   =     -31.50303279 Ry
     estimated scf accuracy    <       0.58895903 Ry

     iteration # 99     ecut=    30.00 Ry     beta=0.70
     Davidson diagonalization with overlap
     ethr =  4.17E-03,  avg # of iterations =  1.0

     total cpu time spent up to now is        6.5 secs

     total energy              =     -31.48996062 Ry
     Harris-Foulkes estimate   =     -31.49242827 Ry
     estimated scf accuracy    <       0.10786162 Ry

     iteration #100     ecut=    30.00 Ry     beta=0.70
     Davidson diagonalization with overlap
     ethr =  1.35E-03,  avg # of iterations =  1.0

     total cpu time spent up to now is        6.5 secs

     total energy              =     -31.49527910 Ry
     Harris-Foulkes estimate   =     -31.49143693 Ry
     estimated scf accuracy    <       0.01107615 Ry

     End of self-consistent calculation

     convergence NOT achieved after 100 iterations: stopping

     Writing output data file pwscf.save
 
     init_run     :      0.17s CPU      0.19s WALL (       1 calls)
     electrons    :      4.89s CPU      5.89s WALL (       2 calls)
     update_pot   :      0.12s CPU      0.18s WALL (       1 calls)
     forces       :      0.04s CPU      0.04s WALL (       1 calls)

     Called by init_run:
     wfcinit      :      0.01s CPU      0.02s WALL (       1 calls)
     potinit      :      0.05s CPU      0.05s WALL (       1 calls)

     Called by electrons:
     c_bands      :      2.09s CPU      2.24s WALL (     109 calls)
     sum_band     :      0.56s CPU      0.58s WALL (     109 calls)
     v_of_rho     :      1.23s CPU      1.27s WALL (     111 calls)
     mix_rho      :      0.86s CPU      1.53s WALL (     109 calls)

     Called by c_bands:
     init_us_2    :      0.02s CPU      0.02s WALL (     219 calls)
     cegterg      :      2.06s CPU      2.17s WALL (     109 calls)

     Called by sum_band:

     Called by *egterg:
     h_psi        :      1.80s CPU      1.85s WALL (     312 calls)
     g_psi        :      0.02s CPU      0.02s WALL (     202 calls)
     cdiaghg      :      0.09s CPU      0.09s WALL (     310 calls)

     Called by h_psi:
     h_psi:pot    :      1.79s CPU      1.84s WALL (     312 calls)
     h_psi:calbec :      0.01s CPU      0.03s WALL (     312 calls)
     vloc_psi     :      1.77s CPU      1.80s WALL (     312 calls)
     add_vuspsi   :      0.00s CPU      0.00s WALL (     312 calls)

     General routines
     calbec       :      0.01s CPU      0.03s WALL (     316 calls)
     fft          :      0.93s CPU      0.97s WALL (    1223 calls)
     fftw         :      1.96s CPU      2.01s WALL (    4932 calls)
     davcio       :      0.15s CPU      0.60s WALL (    2016 calls)
 
     Parallel routines
     fft_scatter  :      0.99s CPU      1.04s WALL (    6155 calls)
 
     PWSCF        :     5.41s CPU         6.63s WALL

 
   This run was terminated on:  16: 6:28  13Feb2018            

=------------------------------------------------------------------------------=
   JOB DONE.
=------------------------------------------------------------------------------=
