
     Program PWSCF v.6.0 (svn rev. 13079) starts on 13Feb2018 at 16:11:35 

     This program is part of the open-source Quantum ESPRESSO suite
     for quantum simulation of materials; please cite
         "P. Giannozzi et al., J. Phys.:Condens. Matter 21 395502 (2009);
          URL http://www.quantum-espresso.org", 
     in publications or presentations arising from this work. More details at
     http://www.quantum-espresso.org/quote

     Parallel version (MPI), running on    28 processors
     R & G space division:  proc/nbgrp/npool/nimage =      28
     Reading input from inputs/MD-H2O-round1/604.in

     Current dimensions of program PWSCF are:
     Max number of different atomic species (ntypx) = 10
     Max number of k-points (npk) =  40000
     Max angular momentum in pseudopotentials (lmaxx) =  3

     Subspace diagonalization in iterative solution of the eigenvalue problem:
     a serial algorithm will be used

 
     Parallelization info
     --------------------
     sticks:   dense  smooth     PW     G-vecs:    dense   smooth      PW
     Min         136     136     33                 6338     6338     787
     Max         137     137     34                 6341     6341     792
     Sum        3809    3809    949               177509   177509   22119
 


     bravais-lattice index     =            1
     lattice parameter (alat)  =      20.0000  a.u.
     unit-cell volume          =    8000.0000 (a.u.)^3
     number of atoms/cell      =            3
     number of atomic types    =            2
     number of electrons       =         8.00
     number of Kohn-Sham states=            8
     kinetic-energy cutoff     =      30.0000  Ry
     charge density cutoff     =     120.0000  Ry
     convergence threshold     =      1.0E-08
     mixing beta               =       0.7000
     number of iterations used =            8  plain     mixing
     Exchange-correlation      = BLYP ( 1  3  1  3 0 0)
     nstep                     =         5000


     celldm(1)=  20.000000  celldm(2)=   0.000000  celldm(3)=   0.000000
     celldm(4)=   0.000000  celldm(5)=   0.000000  celldm(6)=   0.000000

     crystal axes: (cart. coord. in units of alat)
               a(1) = (   1.000000   0.000000   0.000000 )  
               a(2) = (   0.000000   1.000000   0.000000 )  
               a(3) = (   0.000000   0.000000   1.000000 )  

     reciprocal axes: (cart. coord. in units 2 pi/alat)
               b(1) = (  1.000000  0.000000  0.000000 )  
               b(2) = (  0.000000  1.000000  0.000000 )  
               b(3) = (  0.000000  0.000000  1.000000 )  


     PseudoPot. # 1 for  H read from file:
     ./H.blyp-hgh.UPF
     MD5 check sum: c576e69559cde411e611be972c763230
     Pseudo is Norm-conserving, Zval =  1.0
     Generated in analytical, separable form
     Using radial grid of  929 points,  0 beta functions with: 

     PseudoPot. # 2 for  O read from file:
     ./O.blyp-hgh.UPF
     MD5 check sum: d0b7156309aa9befef28faac7bc56342
     Pseudo is Norm-conserving, Zval =  6.0
     Generated in analytical, separable form
     Using radial grid of 1095 points,  1 beta functions with: 
                l(1) =   0

     atomic species   valence    mass     pseudopotential
        H              1.00     1.01000      H( 1.00)
        O              6.00    16.00000      O( 1.00)

     No symmetry found



   Cartesian axes

     site n.     atom                  positions (alat units)
         1           O   tau(   1) = (   0.8309864   0.2255778   0.9355111  )
         2           H   tau(   2) = (   0.6486516   0.4386573   0.4861845  )
         3           H   tau(   3) = (   0.7763317   0.2832382  -0.0526085  )

     number of k points=     1  Marzari-Vanderbilt smearing, width (Ry)=  0.0250
                       cart. coord. in units 2pi/alat
        k(    1) = (   0.0000000   0.0000000   0.0000000), wk =   2.0000000

     Dense  grid:   177509 G-vectors     FFT dimensions: (  72,  72,  72)

     Estimated max dynamical RAM per process >       6.09Mb

     Estimated total allocated dynamical RAM >     170.64Mb

     Initial potential from superposition of free atoms
     Check: negative starting charge=   -0.350940

     starting charge    7.99998, renormalised to    8.00000

     negative rho (up, down):  3.509E-01 0.000E+00
     Starting wfc are    6 randomized atomic wfcs +    2 random wfc

     total cpu time spent up to now is        0.4 secs

     per-process dynamical memory:    18.8 Mb

     Self-consistent Calculation

     iteration #  1     ecut=    30.00 Ry     beta=0.70
     Davidson diagonalization with overlap
     ethr =  1.00E-02,  avg # of iterations =  8.0

     negative rho (up, down):  9.446E-02 0.000E+00

     total cpu time spent up to now is        0.4 secs

     total energy              =     -31.56379536 Ry
     Harris-Foulkes estimate   =     -32.07267298 Ry
     estimated scf accuracy    <       0.54057950 Ry

     iteration #  2     ecut=    30.00 Ry     beta=0.70
     Davidson diagonalization with overlap
     ethr =  6.76E-03,  avg # of iterations =  2.0

     negative rho (up, down):  7.307E-02 0.000E+00

     total cpu time spent up to now is        0.5 secs

     total energy              =     -31.71328359 Ry
     Harris-Foulkes estimate   =     -32.38514519 Ry
     estimated scf accuracy    <       2.26894706 Ry

     iteration #  3     ecut=    30.00 Ry     beta=0.70
     Davidson diagonalization with overlap
     ethr =  6.76E-03,  avg # of iterations =  2.0

     negative rho (up, down):  2.665E-02 0.000E+00

     total cpu time spent up to now is        0.5 secs

     total energy              =     -31.71812056 Ry
     Harris-Foulkes estimate   =     -31.79748080 Ry
     estimated scf accuracy    <       0.49138915 Ry

     iteration #  4     ecut=    30.00 Ry     beta=0.70
     Davidson diagonalization with overlap
     ethr =  6.14E-03,  avg # of iterations =  1.0

     negative rho (up, down):  9.572E-03 0.000E+00

     total cpu time spent up to now is        0.6 secs

     total energy              =     -31.66070512 Ry
     Harris-Foulkes estimate   =     -31.96669326 Ry
     estimated scf accuracy    <       1.41493488 Ry

     iteration #  5     ecut=    30.00 Ry     beta=0.70
     Davidson diagonalization with overlap
     ethr =  6.14E-03,  avg # of iterations =  1.0

     negative rho (up, down):  6.267E-04 0.000E+00

     total cpu time spent up to now is        0.6 secs

     total energy              =     -31.87280625 Ry
     Harris-Foulkes estimate   =     -31.96709516 Ry
     estimated scf accuracy    <       1.03264956 Ry

     iteration #  6     ecut=    30.00 Ry     beta=0.70
     Davidson diagonalization with overlap
     ethr =  6.14E-03,  avg # of iterations =  1.0

     negative rho (up, down):  6.461E-04 0.000E+00

     total cpu time spent up to now is        0.7 secs

     total energy              =     -31.81072557 Ry
     Harris-Foulkes estimate   =     -31.87355084 Ry
     estimated scf accuracy    <       0.87903161 Ry

     iteration #  7     ecut=    30.00 Ry     beta=0.70
     Davidson diagonalization with overlap
     ethr =  6.14E-03,  avg # of iterations =  1.0

     negative rho (up, down):  3.922E-04 0.000E+00

     total cpu time spent up to now is        0.7 secs

     total energy              =     -31.85163959 Ry
     Harris-Foulkes estimate   =     -31.84997524 Ry
     estimated scf accuracy    <       0.57749033 Ry

     iteration #  8     ecut=    30.00 Ry     beta=0.70
     Davidson diagonalization with overlap
     ethr =  6.14E-03,  avg # of iterations =  1.0

     negative rho (up, down):  1.222E-04 0.000E+00

     total cpu time spent up to now is        0.8 secs

     total energy              =     -31.83445250 Ry
     Harris-Foulkes estimate   =     -31.85176012 Ry
     estimated scf accuracy    <       0.70540660 Ry

     iteration #  9     ecut=    30.00 Ry     beta=0.70
     Davidson diagonalization with overlap
     ethr =  6.14E-03,  avg # of iterations =  1.0

     negative rho (up, down):  8.546E-06 0.000E+00

     total cpu time spent up to now is        0.8 secs

     total energy              =     -31.84267643 Ry
     Harris-Foulkes estimate   =     -31.84257094 Ry
     estimated scf accuracy    <       0.00116454 Ry

     iteration # 10     ecut=    30.00 Ry     beta=0.70
     Davidson diagonalization with overlap
     ethr =  1.46E-05,  avg # of iterations = 12.0

     negative rho (up, down):  2.786E-07 0.000E+00

     total cpu time spent up to now is        0.9 secs

     total energy              =     -31.84073312 Ry
     Harris-Foulkes estimate   =     -31.84284585 Ry
     estimated scf accuracy    <       0.02156202 Ry

     iteration # 11     ecut=    30.00 Ry     beta=0.70
     Davidson diagonalization with overlap
     ethr =  1.46E-05,  avg # of iterations =  1.0

     total cpu time spent up to now is        0.9 secs

     total energy              =     -31.84824835 Ry
     Harris-Foulkes estimate   =     -31.84478764 Ry
     estimated scf accuracy    <       0.14959433 Ry

     iteration # 12     ecut=    30.00 Ry     beta=0.70
     Davidson diagonalization with overlap
     ethr =  1.46E-05,  avg # of iterations =  1.0

     negative rho (up, down):  1.215E-08 0.000E+00

     total cpu time spent up to now is        1.0 secs

     total energy              =     -31.83512565 Ry
     Harris-Foulkes estimate   =     -31.84934304 Ry
     estimated scf accuracy    <       0.39262459 Ry

     iteration # 13     ecut=    30.00 Ry     beta=0.70
     Davidson diagonalization with overlap
     ethr =  1.46E-05,  avg # of iterations =  2.0

     total cpu time spent up to now is        1.0 secs

     total energy              =     -31.84263684 Ry
     Harris-Foulkes estimate   =     -31.84275042 Ry
     estimated scf accuracy    <       0.01366992 Ry

     iteration # 14     ecut=    30.00 Ry     beta=0.70
     Davidson diagonalization with overlap
     ethr =  1.46E-05,  avg # of iterations =  1.0

     total cpu time spent up to now is        1.1 secs

     total energy              =     -31.84262362 Ry
     Harris-Foulkes estimate   =     -31.84265552 Ry
     estimated scf accuracy    <       0.00638612 Ry

     iteration # 15     ecut=    30.00 Ry     beta=0.70
     Davidson diagonalization with overlap
     ethr =  1.46E-05,  avg # of iterations =  1.0

     total cpu time spent up to now is        1.1 secs

     total energy              =     -31.84258016 Ry
     Harris-Foulkes estimate   =     -31.84262675 Ry
     estimated scf accuracy    <       0.00416152 Ry

     iteration # 16     ecut=    30.00 Ry     beta=0.70
     Davidson diagonalization with overlap
     ethr =  1.46E-05,  avg # of iterations =  1.0

     total cpu time spent up to now is        1.2 secs

     total energy              =     -31.84256472 Ry
     Harris-Foulkes estimate   =     -31.84259017 Ry
     estimated scf accuracy    <       0.00133207 Ry

     iteration # 17     ecut=    30.00 Ry     beta=0.70
     Davidson diagonalization with overlap
     ethr =  1.46E-05,  avg # of iterations =  1.0

     total cpu time spent up to now is        1.2 secs

     total energy              =     -31.84257139 Ry
     Harris-Foulkes estimate   =     -31.84257423 Ry
     estimated scf accuracy    <       0.00008587 Ry

     iteration # 18     ecut=    30.00 Ry     beta=0.70
     Davidson diagonalization with overlap
     ethr =  1.07E-06,  avg # of iterations =  1.0

     total cpu time spent up to now is        1.3 secs

     total energy              =     -31.84257248 Ry
     Harris-Foulkes estimate   =     -31.84257286 Ry
     estimated scf accuracy    <       0.00000195 Ry

     iteration # 19     ecut=    30.00 Ry     beta=0.70
     Davidson diagonalization with overlap
     ethr =  2.44E-08,  avg # of iterations =  1.0

     total cpu time spent up to now is        1.3 secs

     total energy              =     -31.84257252 Ry
     Harris-Foulkes estimate   =     -31.84257257 Ry
     estimated scf accuracy    <       0.00000128 Ry

     iteration # 20     ecut=    30.00 Ry     beta=0.70
     Davidson diagonalization with overlap
     ethr =  1.60E-08,  avg # of iterations =  1.0

     total cpu time spent up to now is        1.4 secs

     total energy              =     -31.84257254 Ry
     Harris-Foulkes estimate   =     -31.84257262 Ry
     estimated scf accuracy    <       0.00000283 Ry

     iteration # 21     ecut=    30.00 Ry     beta=0.70
     Davidson diagonalization with overlap
     ethr =  1.60E-08,  avg # of iterations =  1.0

     total cpu time spent up to now is        1.4 secs

     total energy              =     -31.84257250 Ry
     Harris-Foulkes estimate   =     -31.84257255 Ry
     estimated scf accuracy    <       0.00000026 Ry

     iteration # 22     ecut=    30.00 Ry     beta=0.70
     Davidson diagonalization with overlap
     ethr =  3.29E-09,  avg # of iterations =  1.0

     total cpu time spent up to now is        1.5 secs

     End of self-consistent calculation

          k = 0.0000 0.0000 0.0000 ( 22119 PWs)   bands (ev):

   -26.1747 -11.0931  -7.1820  -7.1807  -7.0371  -0.4603   0.5200   0.7408

     the Fermi energy is    -7.0093 ev

!    total energy              =     -31.84257249 Ry
     Harris-Foulkes estimate   =     -31.84257251 Ry
     estimated scf accuracy    <          3.9E-10 Ry

     convergence has been achieved in  22 iterations

     Forces acting on atoms (Ry/au):

     atom    1 type  2   force =     0.41430891   -0.43720884   -0.09015732
     atom    2 type  1   force =     0.00037135   -0.00037846   -0.00023245
     atom    3 type  1   force =    -0.41468026    0.43758729    0.09038977

     Total force =     0.861710     Total SCF correction =     0.000013

     Molecular Dynamics Calculation

     Starting temperature  =  1000.00 K

     temperature is controlled by Andersen thermostat
     Collision frequency = 1.0000/timestep
     mass H                =     1.01
     mass O                =    16.00
     Time step             =   100.00 a.u.,  4.8378 femto-seconds

     Entering Dynamics:    iteration =     1
                           time      =   0.0048 pico-seconds


     Andersen thermostat:    3 collisions

ATOMIC_POSITIONS (bohr)
O       16.749269747   4.354222198  18.657578184
H       12.976581691   8.951543583   9.625092467
H       13.470937815   7.978767245  -0.119627869


     kinetic energy (Ekin) =     0.01337019 Ry
     temperature           =   703.66124461 K 
     Ekin + Etot (const)   =   -31.82920230 Ry

     Linear momentum :   -0.0000000000   -0.0000000000   -0.0000000000

     Writing output data file pwscf.save
     Check: negative starting charge=   -0.350940
     NEW-OLD atomic charge density approx. for the potential
     Check: negative starting charge=   -0.342092

     negative rho (up, down):  4.202E-01 0.000E+00

     total cpu time spent up to now is        1.9 secs

     per-process dynamical memory:    20.4 Mb

     Self-consistent Calculation

     iteration #  1     ecut=    30.00 Ry     beta=0.70
     Davidson diagonalization with overlap
     ethr =  1.00E-06,  avg # of iterations = 15.0

     negative rho (up, down):  1.020E-01 0.000E+00

     total cpu time spent up to now is        2.0 secs

     total energy              =     -13.62511721 Ry
     Harris-Foulkes estimate   =     -36.82371670 Ry
     estimated scf accuracy    <      10.64319655 Ry

     iteration #  2     ecut=    30.00 Ry     beta=0.70
     Davidson diagonalization with overlap
     ethr =  1.00E-02,  avg # of iterations =  6.0

     negative rho (up, down):  7.078E-02 0.000E+00

     total cpu time spent up to now is        2.1 secs

     total energy              =     -33.26227327 Ry
     Harris-Foulkes estimate   =     -41.71478025 Ry
     estimated scf accuracy    <      18.93312225 Ry

     iteration #  3     ecut=    30.00 Ry     beta=0.70
     Davidson diagonalization with overlap
     ethr =  1.00E-02,  avg # of iterations =  3.0

     negative rho (up, down):  4.985E-02 0.000E+00

     total cpu time spent up to now is        2.2 secs

     total energy              =     -31.66619548 Ry
     Harris-Foulkes estimate   =     -33.80393355 Ry
     estimated scf accuracy    <       6.46048533 Ry

     iteration #  4     ecut=    30.00 Ry     beta=0.70
     Davidson diagonalization with overlap
     ethr =  1.00E-02,  avg # of iterations =  4.0

     negative rho (up, down):  4.561E-02 0.000E+00

     total cpu time spent up to now is        2.2 secs

     total energy              =     -31.64527259 Ry
     Harris-Foulkes estimate   =     -31.96347069 Ry
     estimated scf accuracy    <       2.02303036 Ry

     iteration #  5     ecut=    30.00 Ry     beta=0.70
     Davidson diagonalization with overlap
     ethr =  1.00E-02,  avg # of iterations =  1.0

     negative rho (up, down):  1.606E-02 0.000E+00

     total cpu time spent up to now is        2.3 secs

     total energy              =     -31.03542887 Ry
     Harris-Foulkes estimate   =     -32.05911626 Ry
     estimated scf accuracy    <       3.30694257 Ry

     iteration #  6     ecut=    30.00 Ry     beta=0.70
     Davidson diagonalization with overlap
     ethr =  1.00E-02,  avg # of iterations =  2.0

     negative rho (up, down):  2.506E-02 0.000E+00

     total cpu time spent up to now is        2.3 secs

     total energy              =     -31.44385584 Ry
     Harris-Foulkes estimate   =     -32.16632923 Ry
     estimated scf accuracy    <       4.48576858 Ry

     iteration #  7     ecut=    30.00 Ry     beta=0.70
     Davidson diagonalization with overlap
     ethr =  1.00E-02,  avg # of iterations =  1.0

     negative rho (up, down):  2.373E-02 0.000E+00

     total cpu time spent up to now is        2.5 secs

     total energy              =     -31.61876294 Ry
     Harris-Foulkes estimate   =     -31.63234607 Ry
     estimated scf accuracy    <       0.98013233 Ry

     iteration #  8     ecut=    30.00 Ry     beta=0.70
     Davidson diagonalization with overlap
     ethr =  1.00E-02,  avg # of iterations =  1.0

     negative rho (up, down):  2.112E-02 0.000E+00

     total cpu time spent up to now is        2.5 secs

     total energy              =     -31.58870924 Ry
     Harris-Foulkes estimate   =     -31.63911274 Ry
     estimated scf accuracy    <       1.02504465 Ry

     iteration #  9     ecut=    30.00 Ry     beta=0.70
     Davidson diagonalization with overlap
     ethr =  1.00E-02,  avg # of iterations =  1.0

     negative rho (up, down):  1.367E-02 0.000E+00

     total cpu time spent up to now is        2.6 secs

     total energy              =     -31.50184159 Ry
     Harris-Foulkes estimate   =     -31.59779122 Ry
     estimated scf accuracy    <       0.76065827 Ry

     iteration # 10     ecut=    30.00 Ry     beta=0.70
     Davidson diagonalization with overlap
     ethr =  9.51E-03,  avg # of iterations =  1.0

     negative rho (up, down):  3.383E-04 0.000E+00

     total cpu time spent up to now is        2.6 secs

     total energy              =     -31.52879099 Ry
     Harris-Foulkes estimate   =     -31.65208628 Ry
     estimated scf accuracy    <       2.53740891 Ry

     iteration # 11     ecut=    30.00 Ry     beta=0.70
     Davidson diagonalization with overlap
     ethr =  9.51E-03,  avg # of iterations =  1.0

     negative rho (up, down):  7.492E-05 0.000E+00

     total cpu time spent up to now is        2.6 secs

     total energy              =     -31.63145516 Ry
     Harris-Foulkes estimate   =     -31.64395842 Ry
     estimated scf accuracy    <       1.22285181 Ry

     iteration # 12     ecut=    30.00 Ry     beta=0.70
     Davidson diagonalization with overlap
     ethr =  9.51E-03,  avg # of iterations =  1.0

     negative rho (up, down):  1.415E-04 0.000E+00

     total cpu time spent up to now is        2.7 secs

     total energy              =     -31.51161012 Ry
     Harris-Foulkes estimate   =     -31.67998925 Ry
     estimated scf accuracy    <       1.95849110 Ry

     iteration # 13     ecut=    30.00 Ry     beta=0.70
     Davidson diagonalization with overlap
     ethr =  9.51E-03,  avg # of iterations =  1.0

     negative rho (up, down):  5.531E-05 0.000E+00

     total cpu time spent up to now is        2.7 secs

     total energy              =     -31.57441553 Ry
     Harris-Foulkes estimate   =     -31.59270749 Ry
     estimated scf accuracy    <       0.42876595 Ry

     iteration # 14     ecut=    30.00 Ry     beta=0.70
     Davidson diagonalization with overlap
     ethr =  5.36E-03,  avg # of iterations =  1.0

     negative rho (up, down):  2.405E-04 0.000E+00

     total cpu time spent up to now is        2.8 secs

     total energy              =     -31.52929981 Ry
     Harris-Foulkes estimate   =     -31.58113251 Ry
     estimated scf accuracy    <       0.84588527 Ry

     iteration # 15     ecut=    30.00 Ry     beta=0.70
     Davidson diagonalization with overlap
     ethr =  5.36E-03,  avg # of iterations =  1.0

     negative rho (up, down):  6.081E-06 0.000E+00

     total cpu time spent up to now is        2.8 secs

     total energy              =     -31.50178064 Ry
     Harris-Foulkes estimate   =     -31.57924148 Ry
     estimated scf accuracy    <       1.21100302 Ry

     iteration # 16     ecut=    30.00 Ry     beta=0.70
     Davidson diagonalization with overlap
     ethr =  5.36E-03,  avg # of iterations =  1.0

     negative rho (up, down):  2.829E-07 0.000E+00

     total cpu time spent up to now is        2.9 secs

     total energy              =     -31.54844018 Ry
     Harris-Foulkes estimate   =     -31.56474098 Ry
     estimated scf accuracy    <       1.12904920 Ry

     iteration # 17     ecut=    30.00 Ry     beta=0.70
     Davidson diagonalization with overlap
     ethr =  5.36E-03,  avg # of iterations =  1.0

     negative rho (up, down):  1.425E-06 0.000E+00

     total cpu time spent up to now is        2.9 secs

     total energy              =     -31.54681355 Ry
     Harris-Foulkes estimate   =     -31.55292570 Ry
     estimated scf accuracy    <       0.20936710 Ry

     iteration # 18     ecut=    30.00 Ry     beta=0.70
     Davidson diagonalization with overlap
     ethr =  2.62E-03,  avg # of iterations =  1.0

     total cpu time spent up to now is        3.0 secs

     total energy              =     -31.54950080 Ry
     Harris-Foulkes estimate   =     -31.55058716 Ry
     estimated scf accuracy    <       0.01045662 Ry

     iteration # 19     ecut=    30.00 Ry     beta=0.70
     Davidson diagonalization with overlap
     ethr =  1.31E-04,  avg # of iterations =  4.0

     total cpu time spent up to now is        3.0 secs

     total energy              =     -31.54981670 Ry
     Harris-Foulkes estimate   =     -31.55123202 Ry
     estimated scf accuracy    <       0.06576821 Ry

     iteration # 20     ecut=    30.00 Ry     beta=0.70
     Davidson diagonalization with overlap
     ethr =  1.31E-04,  avg # of iterations =  1.0

     total cpu time spent up to now is        3.1 secs

     total energy              =     -31.55035158 Ry
     Harris-Foulkes estimate   =     -31.55041832 Ry
     estimated scf accuracy    <       0.00138671 Ry

     iteration # 21     ecut=    30.00 Ry     beta=0.70
     Davidson diagonalization with overlap
     ethr =  1.73E-05,  avg # of iterations =  4.0

     total cpu time spent up to now is        3.1 secs

     total energy              =     -31.55035803 Ry
     Harris-Foulkes estimate   =     -31.55041216 Ry
     estimated scf accuracy    <       0.00162291 Ry

     iteration # 22     ecut=    30.00 Ry     beta=0.70
     Davidson diagonalization with overlap
     ethr =  1.73E-05,  avg # of iterations =  1.0

     total cpu time spent up to now is        3.2 secs

     total energy              =     -31.55037091 Ry
     Harris-Foulkes estimate   =     -31.55039714 Ry
     estimated scf accuracy    <       0.00050950 Ry

     iteration # 23     ecut=    30.00 Ry     beta=0.70
     Davidson diagonalization with overlap
     ethr =  6.37E-06,  avg # of iterations =  1.0

     total cpu time spent up to now is        3.2 secs

     total energy              =     -31.55038376 Ry
     Harris-Foulkes estimate   =     -31.55038475 Ry
     estimated scf accuracy    <       0.00001767 Ry

     iteration # 24     ecut=    30.00 Ry     beta=0.70
     Davidson diagonalization with overlap
     ethr =  2.21E-07,  avg # of iterations =  9.0

     total cpu time spent up to now is        3.3 secs

     total energy              =     -31.55038386 Ry
     Harris-Foulkes estimate   =     -31.55038447 Ry
     estimated scf accuracy    <       0.00001689 Ry

     iteration # 25     ecut=    30.00 Ry     beta=0.70
     Davidson diagonalization with overlap
     ethr =  2.11E-07,  avg # of iterations =  1.0

     total cpu time spent up to now is        3.3 secs

     total energy              =     -31.55038418 Ry
     Harris-Foulkes estimate   =     -31.55038420 Ry
     estimated scf accuracy    <       0.00000003 Ry

     iteration # 26     ecut=    30.00 Ry     beta=0.70
     Davidson diagonalization with overlap
     ethr =  3.45E-10,  avg # of iterations =  1.0

     total cpu time spent up to now is        3.4 secs

     End of self-consistent calculation

          k = 0.0000 0.0000 0.0000 ( 22119 PWs)   bands (ev):

   -23.6457  -7.6393  -6.9872  -6.9867  -6.8613  -6.4958  -0.1487   0.5494

     the Fermi energy is    -6.8287 ev

!    total energy              =     -31.55038418 Ry
     Harris-Foulkes estimate   =     -31.55038418 Ry
     estimated scf accuracy    <          2.4E-09 Ry

     convergence has been achieved in  26 iterations

     Forces acting on atoms (Ry/au):

     atom    1 type  2   force =    -0.03465477    0.03791948    0.01408593
     atom    2 type  1   force =    -0.00028862    0.00027591   -0.00038494
     atom    3 type  1   force =     0.03494339   -0.03819538   -0.01370099

     Total force =     0.075533     Total SCF correction =     0.000011

     Entering Dynamics:    iteration =     2
                           time      =   0.0097 pico-seconds


     Andersen thermostat:    3 collisions

ATOMIC_POSITIONS (bohr)
O       16.728015705   4.364546009  18.663139951
H       13.017242504   8.828995923   9.765041107
H       13.766974706   7.937769380  -0.347683707


     kinetic energy (Ekin) =     0.00671505 Ry
     temperature           =   353.40711265 K 
     Ekin + Etot (const)   =   -31.54366913 Ry
     Message from routine dynamics:
     Total linear momentum <> 0

     Linear momentum :    0.0316409203    0.3676783473    0.1781879288

     Writing output data file pwscf.save

     first order wave-functions extrapolation
     Check: negative starting charge=   -0.342092
     first order charge density extrapolation
     Check: negative starting charge=   -0.340989

     negative rho (up, down):  4.380E-01 0.000E+00

     total cpu time spent up to now is        3.8 secs

     per-process dynamical memory:    20.4 Mb

     Self-consistent Calculation

     iteration #  1     ecut=    30.00 Ry     beta=0.70
     Davidson diagonalization with overlap
     ethr =  1.00E-06,  avg # of iterations =  8.0

     negative rho (up, down):  8.732E-02 0.000E+00

     total cpu time spent up to now is        3.9 secs

     total energy              =      73.27931521 Ry
     Harris-Foulkes estimate   =    -618.02263831 Ry
     estimated scf accuracy    <      24.96589446 Ry

     iteration #  2     ecut=    30.00 Ry     beta=0.70
     Davidson diagonalization with overlap
     ethr =  1.00E-02,  avg # of iterations =  7.0

     negative rho (up, down):  5.027E-02 0.000E+00

     total cpu time spent up to now is        4.0 secs

     total energy              =     -33.53911531 Ry
     Harris-Foulkes estimate   =     -45.72339804 Ry
     estimated scf accuracy    <      22.25956854 Ry

     iteration #  3     ecut=    30.00 Ry     beta=0.70
     Davidson diagonalization with overlap
     ethr =  1.00E-02,  avg # of iterations =  4.0

     negative rho (up, down):  4.098E-02 0.000E+00

     total cpu time spent up to now is        4.0 secs

     total energy              =     -33.79231443 Ry
     Harris-Foulkes estimate   =     -36.12316316 Ry
     estimated scf accuracy    <       8.52322543 Ry

     iteration #  4     ecut=    30.00 Ry     beta=0.70
     Davidson diagonalization with overlap
     ethr =  1.00E-02,  avg # of iterations =  2.0

     negative rho (up, down):  3.901E-02 0.000E+00

     total cpu time spent up to now is        4.1 secs

     total energy              =     -33.78475987 Ry
     Harris-Foulkes estimate   =     -34.22360150 Ry
     estimated scf accuracy    <       5.56832548 Ry

     iteration #  5     ecut=    30.00 Ry     beta=0.70
     Davidson diagonalization with overlap
     ethr =  1.00E-02,  avg # of iterations =  1.0

     negative rho (up, down):  2.683E-02 0.000E+00

     total cpu time spent up to now is        4.1 secs

     total energy              =     -32.39792646 Ry
     Harris-Foulkes estimate   =     -33.79971952 Ry
     estimated scf accuracy    <       4.09548705 Ry

     iteration #  6     ecut=    30.00 Ry     beta=0.70
     Davidson diagonalization with overlap
     ethr =  1.00E-02,  avg # of iterations =  1.0

     negative rho (up, down):  2.021E-02 0.000E+00

     total cpu time spent up to now is        4.2 secs

     total energy              =     -31.81191781 Ry
     Harris-Foulkes estimate   =     -32.46555911 Ry
     estimated scf accuracy    <       2.75658225 Ry

     iteration #  7     ecut=    30.00 Ry     beta=0.70
     Davidson diagonalization with overlap
     ethr =  1.00E-02,  avg # of iterations =  1.0

     negative rho (up, down):  1.388E-02 0.000E+00

     total cpu time spent up to now is        4.2 secs

     total energy              =     -31.63459799 Ry
     Harris-Foulkes estimate   =     -31.97403082 Ry
     estimated scf accuracy    <       1.59347942 Ry

     iteration #  8     ecut=    30.00 Ry     beta=0.70
     Davidson diagonalization with overlap
     ethr =  1.00E-02,  avg # of iterations =  1.0

     negative rho (up, down):  1.307E-02 0.000E+00

     total cpu time spent up to now is        4.3 secs

     total energy              =     -31.58712834 Ry
     Harris-Foulkes estimate   =     -31.69653311 Ry
     estimated scf accuracy    <       1.14915134 Ry

     iteration #  9     ecut=    30.00 Ry     beta=0.70
     Davidson diagonalization with overlap
     ethr =  1.00E-02,  avg # of iterations =  1.0

     negative rho (up, down):  1.280E-02 0.000E+00

     total cpu time spent up to now is        4.3 secs

     total energy              =     -31.62189217 Ry
     Harris-Foulkes estimate   =     -31.71791009 Ry
     estimated scf accuracy    <       3.59284453 Ry

     iteration # 10     ecut=    30.00 Ry     beta=0.70
     Davidson diagonalization with overlap
     ethr =  1.00E-02,  avg # of iterations =  1.0

     negative rho (up, down):  1.161E-04 0.000E+00

     total cpu time spent up to now is        4.4 secs

     total energy              =     -31.47781554 Ry
     Harris-Foulkes estimate   =     -31.65223952 Ry
     estimated scf accuracy    <       0.70951737 Ry

     iteration # 11     ecut=    30.00 Ry     beta=0.70
     Davidson diagonalization with overlap
     ethr =  8.87E-03,  avg # of iterations =  1.0

     negative rho (up, down):  2.636E-05 0.000E+00

     total cpu time spent up to now is        4.4 secs

     total energy              =     -31.67710424 Ry
     Harris-Foulkes estimate   =     -31.68657383 Ry
     estimated scf accuracy    <       3.06079616 Ry

     iteration # 12     ecut=    30.00 Ry     beta=0.70
     Davidson diagonalization with overlap
     ethr =  8.87E-03,  avg # of iterations =  1.0

     negative rho (up, down):  1.753E-05 0.000E+00

     total cpu time spent up to now is        4.5 secs

     total energy              =     -31.58175219 Ry
     Harris-Foulkes estimate   =     -31.68191366 Ry
     estimated scf accuracy    <       2.98501519 Ry

     iteration # 13     ecut=    30.00 Ry     beta=0.70
     Davidson diagonalization with overlap
     ethr =  8.87E-03,  avg # of iterations =  1.0

     negative rho (up, down):  2.430E-04 0.000E+00

     total cpu time spent up to now is        4.5 secs

     total energy              =     -31.68975746 Ry
     Harris-Foulkes estimate   =     -31.60773655 Ry
     estimated scf accuracy    <       1.49167499 Ry

     iteration # 14     ecut=    30.00 Ry     beta=0.70
     Davidson diagonalization with overlap
     ethr =  8.87E-03,  avg # of iterations =  1.0

     negative rho (up, down):  5.952E-04 0.000E+00

     total cpu time spent up to now is        4.6 secs

     total energy              =     -31.56483353 Ry
     Harris-Foulkes estimate   =     -31.72510912 Ry
     estimated scf accuracy    <       2.93458735 Ry

     iteration # 15     ecut=    30.00 Ry     beta=0.70
     Davidson diagonalization with overlap
     ethr =  8.87E-03,  avg # of iterations =  1.0

     negative rho (up, down):  8.470E-05 0.000E+00

     total cpu time spent up to now is        4.6 secs

     total energy              =     -31.57938949 Ry
     Harris-Foulkes estimate   =     -31.58835362 Ry
     estimated scf accuracy    <       0.40280676 Ry

     iteration # 16     ecut=    30.00 Ry     beta=0.70
     Davidson diagonalization with overlap
     ethr =  5.04E-03,  avg # of iterations =  1.0

     negative rho (up, down):  1.253E-05 0.000E+00

     total cpu time spent up to now is        4.7 secs

     total energy              =     -31.59496716 Ry
     Harris-Foulkes estimate   =     -31.64300375 Ry
     estimated scf accuracy    <       0.80670757 Ry

     iteration # 17     ecut=    30.00 Ry     beta=0.70
     Davidson diagonalization with overlap
     ethr =  5.04E-03,  avg # of iterations =  1.0

     negative rho (up, down):  3.947E-05 0.000E+00

     total cpu time spent up to now is        4.7 secs

     total energy              =     -31.60085930 Ry
     Harris-Foulkes estimate   =     -31.60226742 Ry
     estimated scf accuracy    <       0.73324103 Ry

     iteration # 18     ecut=    30.00 Ry     beta=0.70
     Davidson diagonalization with overlap
     ethr =  5.04E-03,  avg # of iterations =  1.0

     negative rho (up, down):  1.845E-05 0.000E+00

     total cpu time spent up to now is        4.8 secs

     total energy              =     -31.54180661 Ry
     Harris-Foulkes estimate   =     -31.60161443 Ry
     estimated scf accuracy    <       0.78596651 Ry

     iteration # 19     ecut=    30.00 Ry     beta=0.70
     Davidson diagonalization with overlap
     ethr =  5.04E-03,  avg # of iterations =  1.0

     negative rho (up, down):  2.775E-07 0.000E+00

     total cpu time spent up to now is        4.8 secs

     total energy              =     -31.55165255 Ry
     Harris-Foulkes estimate   =     -31.57494165 Ry
     estimated scf accuracy    <       0.46679072 Ry

     iteration # 20     ecut=    30.00 Ry     beta=0.70
     Davidson diagonalization with overlap
     ethr =  5.04E-03,  avg # of iterations =  1.0

     negative rho (up, down):  5.902E-08 0.000E+00

     total cpu time spent up to now is        4.9 secs

     total energy              =     -31.56131485 Ry
     Harris-Foulkes estimate   =     -31.57578143 Ry
     estimated scf accuracy    <       0.42115628 Ry

     iteration # 21     ecut=    30.00 Ry     beta=0.70
     Davidson diagonalization with overlap
     ethr =  5.04E-03,  avg # of iterations =  1.0

     total cpu time spent up to now is        4.9 secs

     total energy              =     -31.56838821 Ry
     Harris-Foulkes estimate   =     -31.56928677 Ry
     estimated scf accuracy    <       0.01930946 Ry

     iteration # 22     ecut=    30.00 Ry     beta=0.70
     Davidson diagonalization with overlap
     ethr =  2.41E-04,  avg # of iterations =  5.0

     total cpu time spent up to now is        5.0 secs

     total energy              =     -31.56890291 Ry
     Harris-Foulkes estimate   =     -31.56918996 Ry
     estimated scf accuracy    <       0.01327396 Ry

     iteration # 23     ecut=    30.00 Ry     beta=0.70
     Davidson diagonalization with overlap
     ethr =  1.66E-04,  avg # of iterations =  1.0

     total cpu time spent up to now is        5.0 secs

     total energy              =     -31.56901230 Ry
     Harris-Foulkes estimate   =     -31.56902818 Ry
     estimated scf accuracy    <       0.00024649 Ry

     iteration # 24     ecut=    30.00 Ry     beta=0.70
     Davidson diagonalization with overlap
     ethr =  3.08E-06,  avg # of iterations = 18.0

     total cpu time spent up to now is        5.1 secs

     total energy              =     -31.56902028 Ry
     Harris-Foulkes estimate   =     -31.56902652 Ry
     estimated scf accuracy    <       0.00024401 Ry

     iteration # 25     ecut=    30.00 Ry     beta=0.70
     Davidson diagonalization with overlap
     ethr =  3.05E-06,  avg # of iterations =  1.0

     total cpu time spent up to now is        5.1 secs

     total energy              =     -31.56902341 Ry
     Harris-Foulkes estimate   =     -31.56902335 Ry
     estimated scf accuracy    <       0.00000063 Ry

     iteration # 26     ecut=    30.00 Ry     beta=0.70
     Davidson diagonalization with overlap
     ethr =  7.85E-09,  avg # of iterations =  1.0

     total cpu time spent up to now is        5.2 secs

     total energy              =     -31.56902335 Ry
     Harris-Foulkes estimate   =     -31.56902361 Ry
     estimated scf accuracy    <       0.00001394 Ry

     iteration # 27     ecut=    30.00 Ry     beta=0.70
     Davidson diagonalization with overlap
     ethr =  7.85E-09,  avg # of iterations =  1.0

     total cpu time spent up to now is        5.2 secs

     total energy              =     -31.56902353 Ry
     Harris-Foulkes estimate   =     -31.56902350 Ry
     estimated scf accuracy    <       0.00000008 Ry

     iteration # 28     ecut=    30.00 Ry     beta=0.70
     Davidson diagonalization with overlap
     ethr =  9.56E-10,  avg # of iterations =  1.0

     total cpu time spent up to now is        5.3 secs

     total energy              =     -31.56902355 Ry
     Harris-Foulkes estimate   =     -31.56902353 Ry
     estimated scf accuracy    <       0.00000001 Ry

     iteration # 29     ecut=    30.00 Ry     beta=0.70
     Davidson diagonalization with overlap
     ethr =  1.39E-10,  avg # of iterations =  1.0

     total cpu time spent up to now is        5.3 secs

     End of self-consistent calculation

          k = 0.0000 0.0000 0.0000 ( 22119 PWs)   bands (ev):

   -23.6317  -7.7933  -6.9557  -6.9550  -6.8227  -6.3585  -0.1413   0.5641

     the Fermi energy is    -6.7893 ev

!    total energy              =     -31.56902354 Ry
     Harris-Foulkes estimate   =     -31.56902355 Ry
     estimated scf accuracy    <          4.9E-11 Ry

     convergence has been achieved in  29 iterations

     Forces acting on atoms (Ry/au):

     atom    1 type  2   force =    -0.04554339    0.05498920    0.01664304
     atom    2 type  1   force =    -0.00030545    0.00029621   -0.00054780
     atom    3 type  1   force =     0.04584884   -0.05528541   -0.01609524

     Total force =     0.103890     Total SCF correction =     0.000056

     Entering Dynamics:    iteration =     3
                           time      =   0.0145 pico-seconds


     Andersen thermostat:    3 collisions

ATOMIC_POSITIONS (bohr)
O       16.681503763   4.408660910  18.672434144
H       13.141895791   8.918375421  10.048729272
H       14.379144257   7.149539962  -0.778606605


     kinetic energy (Ekin) =     0.03220916 Ry
     temperature           =  1695.13925755 K 
     Ekin + Etot (const)   =   -31.53681438 Ry
     Message from routine dynamics:
     Total linear momentum <> 0

     Linear momentum :    0.3679424336   -0.4059240373    0.0655390169

     Writing output data file pwscf.save

     second order wave-functions extrapolation
     Check: negative starting charge=   -0.340989
     second order charge density extrapolation
     Check: negative starting charge=   -0.341795

     negative rho (up, down):  1.141E-01 0.000E+00

     total cpu time spent up to now is        5.8 secs

     per-process dynamical memory:    20.4 Mb

     Self-consistent Calculation

     iteration #  1     ecut=    30.00 Ry     beta=0.70
     Davidson diagonalization with overlap
     ethr =  1.00E-06,  avg # of iterations = 13.0

     negative rho (up, down):  1.453E-02 0.000E+00

     total cpu time spent up to now is        6.0 secs

     total energy              =      31.61676226 Ry
     Harris-Foulkes estimate   =    -100.51403769 Ry
     estimated scf accuracy    <      21.89314897 Ry

     iteration #  2     ecut=    30.00 Ry     beta=0.70
     Davidson diagonalization with overlap
     ethr =  1.00E-02,  avg # of iterations =  4.0

     negative rho (up, down):  9.073E-03 0.000E+00

     total cpu time spent up to now is        6.1 secs

     total energy              =     -34.05349936 Ry
     Harris-Foulkes estimate   =     -44.73753805 Ry
     estimated scf accuracy    <      20.27793533 Ry

     iteration #  3     ecut=    30.00 Ry     beta=0.70
     Davidson diagonalization with overlap
     ethr =  1.00E-02,  avg # of iterations =  3.0

     negative rho (up, down):  7.176E-03 0.000E+00

     total cpu time spent up to now is        6.2 secs

     total energy              =     -33.86126055 Ry
     Harris-Foulkes estimate   =     -35.71987809 Ry
     estimated scf accuracy    <       6.91426768 Ry

     iteration #  4     ecut=    30.00 Ry     beta=0.70
     Davidson diagonalization with overlap
     ethr =  1.00E-02,  avg # of iterations =  1.0

     negative rho (up, down):  5.267E-03 0.000E+00

     total cpu time spent up to now is        6.2 secs

     total energy              =     -32.61385912 Ry
     Harris-Foulkes estimate   =     -34.22055423 Ry
     estimated scf accuracy    <       5.65808999 Ry

     iteration #  5     ecut=    30.00 Ry     beta=0.70
     Davidson diagonalization with overlap
     ethr =  1.00E-02,  avg # of iterations =  1.0

     negative rho (up, down):  4.913E-03 0.000E+00

     total cpu time spent up to now is        6.2 secs

     total energy              =     -32.75554008 Ry
     Harris-Foulkes estimate   =     -32.95272359 Ry
     estimated scf accuracy    <       2.89435171 Ry

     iteration #  6     ecut=    30.00 Ry     beta=0.70
     Davidson diagonalization with overlap
     ethr =  1.00E-02,  avg # of iterations =  1.0

     negative rho (up, down):  2.358E-03 0.000E+00

     total cpu time spent up to now is        6.3 secs

     total energy              =     -31.57760044 Ry
     Harris-Foulkes estimate   =     -32.75928825 Ry
     estimated scf accuracy    <       2.59804273 Ry

     iteration #  7     ecut=    30.00 Ry     beta=0.70
     Davidson diagonalization with overlap
     ethr =  1.00E-02,  avg # of iterations =  3.0

     negative rho (up, down):  2.239E-03 0.000E+00

     total cpu time spent up to now is        6.3 secs

     total energy              =     -31.98320319 Ry
     Harris-Foulkes estimate   =     -32.09519466 Ry
     estimated scf accuracy    <       2.07859941 Ry

     iteration #  8     ecut=    30.00 Ry     beta=0.70
     Davidson diagonalization with overlap
     ethr =  1.00E-02,  avg # of iterations =  1.0

     negative rho (up, down):  1.629E-03 0.000E+00

     total cpu time spent up to now is        6.4 secs

     total energy              =     -31.72066483 Ry
     Harris-Foulkes estimate   =     -31.98353213 Ry
     estimated scf accuracy    <       1.95148661 Ry

     iteration #  9     ecut=    30.00 Ry     beta=0.70
     Davidson diagonalization with overlap
     ethr =  1.00E-02,  avg # of iterations =  1.0

     negative rho (up, down):  2.290E-03 0.000E+00

     total cpu time spent up to now is        6.4 secs

     total energy              =     -31.86414973 Ry
     Harris-Foulkes estimate   =     -31.74377110 Ry
     estimated scf accuracy    <       0.43842289 Ry

     iteration # 10     ecut=    30.00 Ry     beta=0.70
     Davidson diagonalization with overlap
     ethr =  5.48E-03,  avg # of iterations =  1.0

     negative rho (up, down):  6.938E-07 0.000E+00

     total cpu time spent up to now is        6.5 secs

     total energy              =     -31.49913512 Ry
     Harris-Foulkes estimate   =     -32.00331351 Ry
     estimated scf accuracy    <       1.55655512 Ry

     iteration # 11     ecut=    30.00 Ry     beta=0.70
     Davidson diagonalization with overlap
     ethr =  5.48E-03,  avg # of iterations =  2.0

     negative rho (up, down):  2.754E-05 0.000E+00

     total cpu time spent up to now is        6.5 secs

     total energy              =     -31.60979376 Ry
     Harris-Foulkes estimate   =     -31.80933387 Ry
     estimated scf accuracy    <       1.00818147 Ry

     iteration # 12     ecut=    30.00 Ry     beta=0.70
     Davidson diagonalization with overlap
     ethr =  5.48E-03,  avg # of iterations =  1.0

     negative rho (up, down):  1.785E-05 0.000E+00

     total cpu time spent up to now is        6.6 secs

     total energy              =     -31.74145590 Ry
     Harris-Foulkes estimate   =     -31.91060201 Ry
     estimated scf accuracy    <       2.33998105 Ry

     iteration # 13     ecut=    30.00 Ry     beta=0.70
     Davidson diagonalization with overlap
     ethr =  5.48E-03,  avg # of iterations =  1.0

     negative rho (up, down):  3.779E-05 0.000E+00

     total cpu time spent up to now is        6.6 secs

     total energy              =     -31.70397658 Ry
     Harris-Foulkes estimate   =     -31.74629637 Ry
     estimated scf accuracy    <       0.75307516 Ry

     iteration # 14     ecut=    30.00 Ry     beta=0.70
     Davidson diagonalization with overlap
     ethr =  5.48E-03,  avg # of iterations =  1.0

     negative rho (up, down):  4.330E-04 0.000E+00

     total cpu time spent up to now is        6.7 secs

     total energy              =     -31.68940462 Ry
     Harris-Foulkes estimate   =     -31.74468467 Ry
     estimated scf accuracy    <       0.82962242 Ry

     iteration # 15     ecut=    30.00 Ry     beta=0.70
     Davidson diagonalization with overlap
     ethr =  5.48E-03,  avg # of iterations =  1.0

     negative rho (up, down):  4.849E-02 0.000E+00

     total cpu time spent up to now is        6.7 secs

     total energy              =     -31.91444448 Ry
     Harris-Foulkes estimate   =     -31.71994646 Ry
     estimated scf accuracy    <       0.73023200 Ry

     iteration # 16     ecut=    30.00 Ry     beta=0.70
     Davidson diagonalization with overlap
     ethr =  5.48E-03,  avg # of iterations =  2.0

     negative rho (up, down):  1.149E-02 0.000E+00

     total cpu time spent up to now is        6.8 secs

     total energy              =     -32.01801225 Ry
     Harris-Foulkes estimate   =     -32.08562369 Ry
     estimated scf accuracy    <       1.95657151 Ry

     iteration # 17     ecut=    30.00 Ry     beta=0.70
     Davidson diagonalization with overlap
     ethr =  5.48E-03,  avg # of iterations =  1.0

     negative rho (up, down):  2.568E-04 0.000E+00

     total cpu time spent up to now is        6.8 secs

     total energy              =     -32.03278969 Ry
     Harris-Foulkes estimate   =     -32.01921667 Ry
     estimated scf accuracy    <       1.86904381 Ry

     iteration # 18     ecut=    30.00 Ry     beta=0.70
     Davidson diagonalization with overlap
     ethr =  5.48E-03,  avg # of iterations =  1.0

     negative rho (up, down):  8.416E-07 0.000E+00

     total cpu time spent up to now is        6.9 secs

     total energy              =     -31.63446518 Ry
     Harris-Foulkes estimate   =     -32.04010345 Ry
     estimated scf accuracy    <       2.14681350 Ry

     iteration # 19     ecut=    30.00 Ry     beta=0.70
     Davidson diagonalization with overlap
     ethr =  5.48E-03,  avg # of iterations =  1.0

     negative rho (up, down):  1.395E-08 0.000E+00

     total cpu time spent up to now is        6.9 secs

     total energy              =     -31.68807419 Ry
     Harris-Foulkes estimate   =     -31.68616939 Ry
     estimated scf accuracy    <       0.04791465 Ry

     iteration # 20     ecut=    30.00 Ry     beta=0.70
     Davidson diagonalization with overlap
     ethr =  5.99E-04,  avg # of iterations =  1.0

     total cpu time spent up to now is        7.0 secs

     total energy              =     -31.72063447 Ry
     Harris-Foulkes estimate   =     -31.69636537 Ry
     estimated scf accuracy    <       0.60374021 Ry

     iteration # 21     ecut=    30.00 Ry     beta=0.70
     Davidson diagonalization with overlap
     ethr =  5.99E-04,  avg # of iterations =  1.0

     total cpu time spent up to now is        7.0 secs

     total energy              =     -31.73601333 Ry
     Harris-Foulkes estimate   =     -31.72507271 Ry
     estimated scf accuracy    <       0.97865023 Ry

     iteration # 22     ecut=    30.00 Ry     beta=0.70
     Davidson diagonalization with overlap
     ethr =  5.99E-04,  avg # of iterations =  1.0

     total cpu time spent up to now is        7.1 secs

     total energy              =     -31.73863071 Ry
     Harris-Foulkes estimate   =     -31.73604460 Ry
     estimated scf accuracy    <       0.99682678 Ry

     iteration # 23     ecut=    30.00 Ry     beta=0.70
     Davidson diagonalization with overlap
     ethr =  5.99E-04,  avg # of iterations =  1.0

     total cpu time spent up to now is        7.1 secs

     total energy              =     -31.64577024 Ry
     Harris-Foulkes estimate   =     -31.73863413 Ry
     estimated scf accuracy    <       1.00150243 Ry

     iteration # 24     ecut=    30.00 Ry     beta=0.70
     Davidson diagonalization with overlap
     ethr =  5.99E-04,  avg # of iterations =  1.0

     total cpu time spent up to now is        7.2 secs

     total energy              =     -31.63822771 Ry
     Harris-Foulkes estimate   =     -31.69721543 Ry
     estimated scf accuracy    <       0.91246527 Ry

     iteration # 25     ecut=    30.00 Ry     beta=0.70
     Davidson diagonalization with overlap
     ethr =  5.99E-04,  avg # of iterations =  1.0

     total cpu time spent up to now is        7.2 secs

     total energy              =     -31.68551396 Ry
     Harris-Foulkes estimate   =     -31.70654923 Ry
     estimated scf accuracy    <       0.83775260 Ry

     iteration # 26     ecut=    30.00 Ry     beta=0.70
     Davidson diagonalization with overlap
     ethr =  5.99E-04,  avg # of iterations =  1.0

     total cpu time spent up to now is        7.3 secs

     total energy              =     -31.68469941 Ry
     Harris-Foulkes estimate   =     -31.68900896 Ry
     estimated scf accuracy    <       0.26700909 Ry

     iteration # 27     ecut=    30.00 Ry     beta=0.70
     Davidson diagonalization with overlap
     ethr =  5.99E-04,  avg # of iterations =  1.0

     total cpu time spent up to now is        7.3 secs

     total energy              =     -31.68331381 Ry
     Harris-Foulkes estimate   =     -31.68575029 Ry
     estimated scf accuracy    <       0.06313173 Ry

     iteration # 28     ecut=    30.00 Ry     beta=0.70
     Davidson diagonalization with overlap
     ethr =  5.99E-04,  avg # of iterations =  1.0

     total cpu time spent up to now is        7.4 secs

     total energy              =     -31.68509735 Ry
     Harris-Foulkes estimate   =     -31.68506521 Ry
     estimated scf accuracy    <       0.01428614 Ry

     iteration # 29     ecut=    30.00 Ry     beta=0.70
     Davidson diagonalization with overlap
     ethr =  1.79E-04,  avg # of iterations =  1.0

     total cpu time spent up to now is        7.4 secs

     total energy              =     -31.68477621 Ry
     Harris-Foulkes estimate   =     -31.68509967 Ry
     estimated scf accuracy    <       0.01706161 Ry

     iteration # 30     ecut=    30.00 Ry     beta=0.70
     Davidson diagonalization with overlap
     ethr =  1.79E-04,  avg # of iterations =  1.0

     total cpu time spent up to now is        7.4 secs

     total energy              =     -31.68488067 Ry
     Harris-Foulkes estimate   =     -31.68489617 Ry
     estimated scf accuracy    <       0.00106095 Ry

     iteration # 31     ecut=    30.00 Ry     beta=0.70
     Davidson diagonalization with overlap
     ethr =  1.33E-05,  avg # of iterations = 11.0

     total cpu time spent up to now is        7.5 secs

     total energy              =     -31.68488018 Ry
     Harris-Foulkes estimate   =     -31.68488510 Ry
     estimated scf accuracy    <       0.00019224 Ry

     iteration # 32     ecut=    30.00 Ry     beta=0.70
     Davidson diagonalization with overlap
     ethr =  2.40E-06,  avg # of iterations =  2.0

     total cpu time spent up to now is        7.6 secs

     total energy              =     -31.68488255 Ry
     Harris-Foulkes estimate   =     -31.68488256 Ry
     estimated scf accuracy    <       0.00000003 Ry

     iteration # 33     ecut=    30.00 Ry     beta=0.70
     Davidson diagonalization with overlap
     ethr =  3.68E-10,  avg # of iterations =  2.0

     total cpu time spent up to now is        7.6 secs

     total energy              =     -31.68488256 Ry
     Harris-Foulkes estimate   =     -31.68488255 Ry
     estimated scf accuracy    <       0.00000003 Ry

     iteration # 34     ecut=    30.00 Ry     beta=0.70
     Davidson diagonalization with overlap
     ethr =  3.27E-10,  avg # of iterations =  1.0

     total cpu time spent up to now is        7.7 secs

     total energy              =     -31.68488253 Ry
     Harris-Foulkes estimate   =     -31.68488259 Ry
     estimated scf accuracy    <       0.00000287 Ry

     iteration # 35     ecut=    30.00 Ry     beta=0.70
     Davidson diagonalization with overlap
     ethr =  3.27E-10,  avg # of iterations =  1.0

     total cpu time spent up to now is        7.7 secs

     total energy              =     -31.68488256 Ry
     Harris-Foulkes estimate   =     -31.68488256 Ry
     estimated scf accuracy    <       0.00000001 Ry

     iteration # 36     ecut=    30.00 Ry     beta=0.70
     Davidson diagonalization with overlap
     ethr =  1.39E-10,  avg # of iterations =  1.0

     total cpu time spent up to now is        7.7 secs

     End of self-consistent calculation

          k = 0.0000 0.0000 0.0000 ( 22119 PWs)   bands (ev):

   -23.6140  -8.4866  -6.9294  -6.9279  -6.7934  -5.0172  -0.1054   0.6445

     the Fermi energy is    -6.7597 ev

!    total energy              =     -31.68488256 Ry
     Harris-Foulkes estimate   =     -31.68488256 Ry
     estimated scf accuracy    <          5.8E-10 Ry

     convergence has been achieved in  36 iterations

     Forces acting on atoms (Ry/au):

     atom    1 type  2   force =    -0.09327157    0.11094617    0.02411369
     atom    2 type  1   force =     0.00003328    0.00020320   -0.00095280
     atom    3 type  1   force =     0.09323828   -0.11114937   -0.02316090

     Total force =     0.207786     Total SCF correction =     0.000004

     Entering Dynamics:    iteration =     4
                           time      =   0.0194 pico-seconds


     Andersen thermostat:    3 collisions

ATOMIC_POSITIONS (bohr)
O       16.585065130   4.465385067  18.711594759
H       13.035938705   8.683118721   9.833866817
H       16.012842068   6.486196154  -1.184110337


     kinetic energy (Ekin) =     0.07321906 Ry
     temperature           =  3853.45402003 K 
     Ekin + Etot (const)   =   -31.61166349 Ry
     Message from routine dynamics:
     Total linear momentum <> 0

     Linear momentum :    0.2868737536    0.0527050046   -0.2617939527

     Writing output data file pwscf.save

     second order wave-functions extrapolation
     Check: negative starting charge=   -0.341795
     second order charge density extrapolation
     Check: negative starting charge=   -0.348373

     negative rho (up, down):  3.614E-01 0.000E+00

     total cpu time spent up to now is        8.2 secs

     per-process dynamical memory:    20.4 Mb

     Self-consistent Calculation

     iteration #  1     ecut=    30.00 Ry     beta=0.70
     Davidson diagonalization with overlap
     ethr =  1.00E-06,  avg # of iterations = 11.0

     negative rho (up, down):  4.517E-02 0.000E+00

     total cpu time spent up to now is        8.4 secs

     total energy              =      10.43649507 Ry
     Harris-Foulkes estimate   =    -124.00978580 Ry
     estimated scf accuracy    <      13.14593226 Ry

     iteration #  2     ecut=    30.00 Ry     beta=0.70
     Davidson diagonalization with overlap
     ethr =  1.00E-02,  avg # of iterations =  4.0

     negative rho (up, down):  2.873E-02 0.000E+00

     total cpu time spent up to now is        8.4 secs

     total energy              =     -32.61624838 Ry
     Harris-Foulkes estimate   =     -39.07464930 Ry
     estimated scf accuracy    <      12.69891163 Ry

     iteration #  3     ecut=    30.00 Ry     beta=0.70
     Davidson diagonalization with overlap
     ethr =  1.00E-02,  avg # of iterations =  3.0

     negative rho (up, down):  2.280E-02 0.000E+00

     total cpu time spent up to now is        8.5 secs

     total energy              =     -32.90027432 Ry
     Harris-Foulkes estimate   =     -34.17644404 Ry
     estimated scf accuracy    <       4.64358106 Ry

     iteration #  4     ecut=    30.00 Ry     beta=0.70
     Davidson diagonalization with overlap
     ethr =  1.00E-02,  avg # of iterations =  1.0

     negative rho (up, down):  1.672E-02 0.000E+00

     total cpu time spent up to now is        8.5 secs

     total energy              =     -32.40567768 Ry
     Harris-Foulkes estimate   =     -33.22843773 Ry
     estimated scf accuracy    <       3.34003306 Ry

     iteration #  5     ecut=    30.00 Ry     beta=0.70
     Davidson diagonalization with overlap
     ethr =  1.00E-02,  avg # of iterations =  1.0

     negative rho (up, down):  1.438E-02 0.000E+00

     total cpu time spent up to now is        8.6 secs

     total energy              =     -32.36659848 Ry
     Harris-Foulkes estimate   =     -32.60379766 Ry
     estimated scf accuracy    <       2.17456604 Ry

     iteration #  6     ecut=    30.00 Ry     beta=0.70
     Davidson diagonalization with overlap
     ethr =  1.00E-02,  avg # of iterations =  1.0

     negative rho (up, down):  9.187E-03 0.000E+00

     total cpu time spent up to now is        8.6 secs

     total energy              =     -31.99695936 Ry
     Harris-Foulkes estimate   =     -32.36757968 Ry
     estimated scf accuracy    <       1.36394517 Ry

     iteration #  7     ecut=    30.00 Ry     beta=0.70
     Davidson diagonalization with overlap
     ethr =  1.00E-02,  avg # of iterations =  1.0

     negative rho (up, down):  5.728E-03 0.000E+00

     total cpu time spent up to now is        8.7 secs

     total energy              =     -31.99235394 Ry
     Harris-Foulkes estimate   =     -32.18758552 Ry
     estimated scf accuracy    <       1.59334589 Ry

     iteration #  8     ecut=    30.00 Ry     beta=0.70
     Davidson diagonalization with overlap
     ethr =  1.00E-02,  avg # of iterations =  1.0

     negative rho (up, down):  5.324E-03 0.000E+00

     total cpu time spent up to now is        8.7 secs

     total energy              =     -31.87629263 Ry
     Harris-Foulkes estimate   =     -32.00046045 Ry
     estimated scf accuracy    <       1.05098988 Ry

     iteration #  9     ecut=    30.00 Ry     beta=0.70
     Davidson diagonalization with overlap
     ethr =  1.00E-02,  avg # of iterations =  1.0

     negative rho (up, down):  1.231E-03 0.000E+00

     total cpu time spent up to now is        8.8 secs

     total energy              =     -32.02180425 Ry
     Harris-Foulkes estimate   =     -32.11305063 Ry
     estimated scf accuracy    <       1.43218129 Ry

     iteration # 10     ecut=    30.00 Ry     beta=0.70
     Davidson diagonalization with overlap
     ethr =  1.00E-02,  avg # of iterations =  1.0

     negative rho (up, down):  1.683E-07 0.000E+00

     total cpu time spent up to now is        8.8 secs

     total energy              =     -32.06816113 Ry
     Harris-Foulkes estimate   =     -32.03099753 Ry
     estimated scf accuracy    <       1.29463348 Ry

     iteration # 11     ecut=    30.00 Ry     beta=0.70
     Davidson diagonalization with overlap
     ethr =  1.00E-02,  avg # of iterations =  1.0

     negative rho (up, down):  9.491E-07 0.000E+00

     total cpu time spent up to now is        8.9 secs

     total energy              =     -32.11288955 Ry
     Harris-Foulkes estimate   =     -32.07101489 Ry
     estimated scf accuracy    <       1.37105256 Ry

     iteration # 12     ecut=    30.00 Ry     beta=0.70
     Davidson diagonalization with overlap
     ethr =  1.00E-02,  avg # of iterations =  1.0

     negative rho (up, down):  1.702E-05 0.000E+00

     total cpu time spent up to now is        8.9 secs

     total energy              =     -32.11470704 Ry
     Harris-Foulkes estimate   =     -32.11327914 Ry
     estimated scf accuracy    <       1.43910236 Ry

     iteration # 13     ecut=    30.00 Ry     beta=0.70
     Davidson diagonalization with overlap
     ethr =  1.00E-02,  avg # of iterations =  1.0

     negative rho (up, down):  1.124E-03 0.000E+00

     total cpu time spent up to now is        9.0 secs

     total energy              =     -32.04620372 Ry
     Harris-Foulkes estimate   =     -32.11475403 Ry
     estimated scf accuracy    <       1.44380450 Ry

     iteration # 14     ecut=    30.00 Ry     beta=0.70
     Davidson diagonalization with overlap
     ethr =  1.00E-02,  avg # of iterations =  1.0

     negative rho (up, down):  7.833E-04 0.000E+00

     total cpu time spent up to now is        9.0 secs

     total energy              =     -31.90002531 Ry
     Harris-Foulkes estimate   =     -32.04658692 Ry
     estimated scf accuracy    <       1.33899992 Ry

     iteration # 15     ecut=    30.00 Ry     beta=0.70
     Davidson diagonalization with overlap
     ethr =  1.00E-02,  avg # of iterations =  1.0

     negative rho (up, down):  6.347E-03 0.000E+00

     total cpu time spent up to now is        9.1 secs

     total energy              =     -31.92193226 Ry
     Harris-Foulkes estimate   =     -31.95510838 Ry
     estimated scf accuracy    <       0.60385365 Ry

     iteration # 16     ecut=    30.00 Ry     beta=0.70
     Davidson diagonalization with overlap
     ethr =  7.55E-03,  avg # of iterations =  1.0

     negative rho (up, down):  2.163E-03 0.000E+00

     total cpu time spent up to now is        9.1 secs

     total energy              =     -31.98157978 Ry
     Harris-Foulkes estimate   =     -31.94408416 Ry
     estimated scf accuracy    <       0.26764070 Ry

     iteration # 17     ecut=    30.00 Ry     beta=0.70
     Davidson diagonalization with overlap
     ethr =  3.35E-03,  avg # of iterations =  1.0

     negative rho (up, down):  7.575E-04 0.000E+00

     total cpu time spent up to now is        9.2 secs

     total energy              =     -31.97560243 Ry
     Harris-Foulkes estimate   =     -32.02216208 Ry
     estimated scf accuracy    <       1.31537680 Ry

     iteration # 18     ecut=    30.00 Ry     beta=0.70
     Davidson diagonalization with overlap
     ethr =  3.35E-03,  avg # of iterations =  1.0

     negative rho (up, down):  1.237E-05 0.000E+00

     total cpu time spent up to now is        9.2 secs

     total energy              =     -32.14620529 Ry
     Harris-Foulkes estimate   =     -31.97311585 Ry
     estimated scf accuracy    <       1.60124329 Ry

     iteration # 19     ecut=    30.00 Ry     beta=0.70
     Davidson diagonalization with overlap
     ethr =  3.35E-03,  avg # of iterations =  1.0

     negative rho (up, down):  2.611E-07 0.000E+00

     total cpu time spent up to now is        9.2 secs

     total energy              =     -32.02547667 Ry
     Harris-Foulkes estimate   =     -32.12971383 Ry
     estimated scf accuracy    <       1.46250989 Ry

     iteration # 20     ecut=    30.00 Ry     beta=0.70
     Davidson diagonalization with overlap
     ethr =  3.35E-03,  avg # of iterations =  1.0

     total cpu time spent up to now is        9.3 secs

     total energy              =     -31.89261005 Ry
     Harris-Foulkes estimate   =     -32.02641507 Ry
     estimated scf accuracy    <       1.29107406 Ry

     iteration # 21     ecut=    30.00 Ry     beta=0.70
     Davidson diagonalization with overlap
     ethr =  3.35E-03,  avg # of iterations =  1.0

     total cpu time spent up to now is        9.3 secs

     total energy              =     -31.93581458 Ry
     Harris-Foulkes estimate   =     -31.96072940 Ry
     estimated scf accuracy    <       0.77106640 Ry

     iteration # 22     ecut=    30.00 Ry     beta=0.70
     Davidson diagonalization with overlap
     ethr =  3.35E-03,  avg # of iterations =  1.0

     total cpu time spent up to now is        9.4 secs

     total energy              =     -31.94109423 Ry
     Harris-Foulkes estimate   =     -31.94305756 Ry
     estimated scf accuracy    <       0.05581777 Ry

     iteration # 23     ecut=    30.00 Ry     beta=0.70
     Davidson diagonalization with overlap
     ethr =  6.98E-04,  avg # of iterations =  1.0

     total cpu time spent up to now is        9.4 secs

     total energy              =     -31.94202900 Ry
     Harris-Foulkes estimate   =     -31.94237758 Ry
     estimated scf accuracy    <       0.00600060 Ry

     iteration # 24     ecut=    30.00 Ry     beta=0.70
     Davidson diagonalization with overlap
     ethr =  7.50E-05,  avg # of iterations =  6.0

     total cpu time spent up to now is        9.5 secs

     total energy              =     -31.94180388 Ry
     Harris-Foulkes estimate   =     -31.94240095 Ry
     estimated scf accuracy    <       0.00815543 Ry

     iteration # 25     ecut=    30.00 Ry     beta=0.70
     Davidson diagonalization with overlap
     ethr =  7.50E-05,  avg # of iterations =  1.0

     total cpu time spent up to now is        9.5 secs

     total energy              =     -31.94281964 Ry
     Harris-Foulkes estimate   =     -31.94267592 Ry
     estimated scf accuracy    <       0.02977677 Ry

     iteration # 26     ecut=    30.00 Ry     beta=0.70
     Davidson diagonalization with overlap
     ethr =  7.50E-05,  avg # of iterations =  1.0

     total cpu time spent up to now is        9.6 secs

     total energy              =     -31.94258625 Ry
     Harris-Foulkes estimate   =     -31.94283390 Ry
     estimated scf accuracy    <       0.04243943 Ry

     iteration # 27     ecut=    30.00 Ry     beta=0.70
     Davidson diagonalization with overlap
     ethr =  7.50E-05,  avg # of iterations =  1.0

     total cpu time spent up to now is        9.6 secs

     total energy              =     -31.94235070 Ry
     Harris-Foulkes estimate   =     -31.94261447 Ry
     estimated scf accuracy    <       0.02511423 Ry

     iteration # 28     ecut=    30.00 Ry     beta=0.70
     Davidson diagonalization with overlap
     ethr =  7.50E-05,  avg # of iterations =  1.0

     total cpu time spent up to now is        9.7 secs

     total energy              =     -31.94207520 Ry
     Harris-Foulkes estimate   =     -31.94240484 Ry
     estimated scf accuracy    <       0.00860680 Ry

     iteration # 29     ecut=    30.00 Ry     beta=0.70
     Davidson diagonalization with overlap
     ethr =  7.50E-05,  avg # of iterations =  1.0

     total cpu time spent up to now is        9.7 secs

     total energy              =     -31.94229565 Ry
     Harris-Foulkes estimate   =     -31.94232103 Ry
     estimated scf accuracy    <       0.00206500 Ry

     iteration # 30     ecut=    30.00 Ry     beta=0.70
     Davidson diagonalization with overlap
     ethr =  2.58E-05,  avg # of iterations =  1.0

     total cpu time spent up to now is        9.8 secs

     total energy              =     -31.94228321 Ry
     Harris-Foulkes estimate   =     -31.94230125 Ry
     estimated scf accuracy    <       0.00061288 Ry

     iteration # 31     ecut=    30.00 Ry     beta=0.70
     Davidson diagonalization with overlap
     ethr =  7.66E-06,  avg # of iterations =  1.0

     total cpu time spent up to now is        9.8 secs

     total energy              =     -31.94229212 Ry
     Harris-Foulkes estimate   =     -31.94229254 Ry
     estimated scf accuracy    <       0.00000434 Ry

     iteration # 32     ecut=    30.00 Ry     beta=0.70
     Davidson diagonalization with overlap
     ethr =  5.42E-08,  avg # of iterations = 16.0

     total cpu time spent up to now is        9.9 secs

     total energy              =     -31.94229202 Ry
     Harris-Foulkes estimate   =     -31.94229215 Ry
     estimated scf accuracy    <       0.00000089 Ry

     iteration # 33     ecut=    30.00 Ry     beta=0.70
     Davidson diagonalization with overlap
     ethr =  1.11E-08,  avg # of iterations =  1.0

     total cpu time spent up to now is        9.9 secs

     total energy              =     -31.94229197 Ry
     Harris-Foulkes estimate   =     -31.94229203 Ry
     estimated scf accuracy    <       0.00000027 Ry

     iteration # 34     ecut=    30.00 Ry     beta=0.70
     Davidson diagonalization with overlap
     ethr =  3.34E-09,  avg # of iterations =  1.0

     total cpu time spent up to now is       10.0 secs

     total energy              =     -31.94229197 Ry
     Harris-Foulkes estimate   =     -31.94229198 Ry
     estimated scf accuracy    <       0.00000010 Ry

     iteration # 35     ecut=    30.00 Ry     beta=0.70
     Davidson diagonalization with overlap
     ethr =  1.23E-09,  avg # of iterations =  1.0

     total cpu time spent up to now is       10.0 secs

     total energy              =     -31.94229195 Ry
     Harris-Foulkes estimate   =     -31.94229197 Ry
     estimated scf accuracy    <       0.00000002 Ry

     iteration # 36     ecut=    30.00 Ry     beta=0.70
     Davidson diagonalization with overlap
     ethr =  1.98E-10,  avg # of iterations =  1.0

     total cpu time spent up to now is       10.1 secs

     End of self-consistent calculation

          k = 0.0000 0.0000 0.0000 ( 22119 PWs)   bands (ev):

   -24.5441 -10.4762  -7.0357  -7.0345  -6.8962  -0.8676   0.2678   0.7471

     the Fermi energy is    -6.8649 ev

!    total energy              =     -31.94229195 Ry
     Harris-Foulkes estimate   =     -31.94229195 Ry
     estimated scf accuracy    <          3.9E-10 Ry

     convergence has been achieved in  36 iterations

     Forces acting on atoms (Ry/au):

     atom    1 type  2   force =    -0.02233453    0.07565923    0.00444350
     atom    2 type  1   force =     0.00037679   -0.00026956   -0.00029865
     atom    3 type  1   force =     0.02195773   -0.07538967   -0.00414485

     Total force =     0.111473     Total SCF correction =     0.000046

     Entering Dynamics:    iteration =     5
                           time      =   0.0242 pico-seconds


     Andersen thermostat:    3 collisions

ATOMIC_POSITIONS (bohr)
O       16.568822432   4.518165015  18.748637853
H       12.597110830   8.830178511   9.481310458
H       16.708980014   5.503018380  -1.418375273


     kinetic energy (Ekin) =     0.05122758 Ry
     temperature           =  2696.06175339 K 
     Ekin + Etot (const)   =   -31.89106437 Ry
     Message from routine dynamics:
     Total linear momentum <> 0

     Linear momentum :   -0.1210900472    0.3090709673    0.1362435771

     Writing output data file pwscf.save

     second order wave-functions extrapolation
     Check: negative starting charge=   -0.348373
     second order charge density extrapolation
     Check: negative starting charge=   -0.354621

     negative rho (up, down):  2.433E-01 0.000E+00

     total cpu time spent up to now is       10.6 secs

     per-process dynamical memory:    20.4 Mb

     Self-consistent Calculation

     iteration #  1     ecut=    30.00 Ry     beta=0.70
     Davidson diagonalization with overlap
     c_bands:  1 eigenvalues not converged
     ethr =  1.00E-06,  avg # of iterations = 20.0

     negative rho (up, down):  5.917E-02 0.000E+00

     total cpu time spent up to now is       10.8 secs

     total energy              =     -29.43398737 Ry
     Harris-Foulkes estimate   =     -30.73782718 Ry
     estimated scf accuracy    <       1.68479797 Ry

     iteration #  2     ecut=    30.00 Ry     beta=0.70
     Davidson diagonalization with overlap
     ethr =  1.00E-02,  avg # of iterations =  4.0

     negative rho (up, down):  1.291E-02 0.000E+00

     total cpu time spent up to now is       10.8 secs

     total energy              =     -28.96925697 Ry
     Harris-Foulkes estimate   =     -33.06562982 Ry
     estimated scf accuracy    <      13.82975020 Ry

     iteration #  3     ecut=    30.00 Ry     beta=0.70
     Davidson diagonalization with overlap
     ethr =  1.00E-02,  avg # of iterations =  5.0

     negative rho (up, down):  1.238E-02 0.000E+00

     total cpu time spent up to now is       10.9 secs

     total energy              =     -30.39228716 Ry
     Harris-Foulkes estimate   =     -30.57578079 Ry
     estimated scf accuracy    <       1.72261896 Ry

     iteration #  4     ecut=    30.00 Ry     beta=0.70
     Davidson diagonalization with overlap
     ethr =  1.00E-02,  avg # of iterations =  5.0

     negative rho (up, down):  5.163E-03 0.000E+00

     total cpu time spent up to now is       10.9 secs

     total energy              =     -30.44267762 Ry
     Harris-Foulkes estimate   =     -30.47085684 Ry
     estimated scf accuracy    <       0.12570059 Ry

     iteration #  5     ecut=    30.00 Ry     beta=0.70
     Davidson diagonalization with overlap
     ethr =  1.57E-03,  avg # of iterations =  1.0

     negative rho (up, down):  2.969E-04 0.000E+00

     total cpu time spent up to now is       11.0 secs

     total energy              =     -30.40270628 Ry
     Harris-Foulkes estimate   =     -30.46546023 Ry
     estimated scf accuracy    <       0.48902867 Ry

     iteration #  6     ecut=    30.00 Ry     beta=0.70
     Davidson diagonalization with overlap
     ethr =  1.57E-03,  avg # of iterations =  1.0

     negative rho (up, down):  1.912E-05 0.000E+00

     total cpu time spent up to now is       11.0 secs

     total energy              =     -30.46754637 Ry
     Harris-Foulkes estimate   =     -30.53425417 Ry
     estimated scf accuracy    <       1.42650302 Ry

     iteration #  7     ecut=    30.00 Ry     beta=0.70
     Davidson diagonalization with overlap
     ethr =  1.57E-03,  avg # of iterations =  1.0

     negative rho (up, down):  6.946E-03 0.000E+00

     total cpu time spent up to now is       11.1 secs

     total energy              =     -30.43332591 Ry
     Harris-Foulkes estimate   =     -30.46943209 Ry
     estimated scf accuracy    <       0.66264363 Ry

     iteration #  8     ecut=    30.00 Ry     beta=0.70
     Davidson diagonalization with overlap
     ethr =  1.57E-03,  avg # of iterations =  1.0

     total cpu time spent up to now is       11.1 secs

     total energy              =     -30.45147133 Ry
     Harris-Foulkes estimate   =     -30.47315938 Ry
     estimated scf accuracy    <       0.55219038 Ry

     iteration #  9     ecut=    30.00 Ry     beta=0.70
     Davidson diagonalization with overlap
     ethr =  1.57E-03,  avg # of iterations =  1.0

     negative rho (up, down):  1.063E-04 0.000E+00

     total cpu time spent up to now is       11.2 secs

     total energy              =     -30.45985377 Ry
     Harris-Foulkes estimate   =     -30.46074255 Ry
     estimated scf accuracy    <       0.00687002 Ry

     iteration # 10     ecut=    30.00 Ry     beta=0.70
     Davidson diagonalization with overlap
     ethr =  8.59E-05,  avg # of iterations =  7.0

     total cpu time spent up to now is       11.2 secs

     total energy              =     -30.45997605 Ry
     Harris-Foulkes estimate   =     -30.46041800 Ry
     estimated scf accuracy    <       0.00583695 Ry

     iteration # 11     ecut=    30.00 Ry     beta=0.70
     Davidson diagonalization with overlap
     ethr =  7.30E-05,  avg # of iterations =  1.0

     total cpu time spent up to now is       11.3 secs

     total energy              =     -30.45996303 Ry
     Harris-Foulkes estimate   =     -30.46061661 Ry
     estimated scf accuracy    <       0.02235894 Ry

     iteration # 12     ecut=    30.00 Ry     beta=0.70
     Davidson diagonalization with overlap
     ethr =  7.30E-05,  avg # of iterations =  1.0

     total cpu time spent up to now is       11.3 secs

     total energy              =     -30.46033398 Ry
     Harris-Foulkes estimate   =     -30.46035231 Ry
     estimated scf accuracy    <       0.00070809 Ry

     iteration # 13     ecut=    30.00 Ry     beta=0.70
     Davidson diagonalization with overlap
     ethr =  8.85E-06,  avg # of iterations =  1.0

     total cpu time spent up to now is       11.4 secs

     total energy              =     -30.46034202 Ry
     Harris-Foulkes estimate   =     -30.46034179 Ry
     estimated scf accuracy    <       0.00001599 Ry

     iteration # 14     ecut=    30.00 Ry     beta=0.70
     Davidson diagonalization with overlap
     ethr =  2.00E-07,  avg # of iterations = 10.0

     total cpu time spent up to now is       11.4 secs

     total energy              =     -30.46034183 Ry
     Harris-Foulkes estimate   =     -30.46034209 Ry
     estimated scf accuracy    <       0.00003623 Ry

     iteration # 15     ecut=    30.00 Ry     beta=0.70
     Davidson diagonalization with overlap
     ethr =  2.00E-07,  avg # of iterations =  1.0

     total cpu time spent up to now is       11.5 secs

     total energy              =     -30.46034171 Ry
     Harris-Foulkes estimate   =     -30.46034190 Ry
     estimated scf accuracy    <       0.00001450 Ry

     iteration # 16     ecut=    30.00 Ry     beta=0.70
     Davidson diagonalization with overlap
     ethr =  1.81E-07,  avg # of iterations =  1.0

     total cpu time spent up to now is       11.5 secs

     total energy              =     -30.46034168 Ry
     Harris-Foulkes estimate   =     -30.46034176 Ry
     estimated scf accuracy    <       0.00000314 Ry

     iteration # 17     ecut=    30.00 Ry     beta=0.70
     Davidson diagonalization with overlap
     ethr =  3.93E-08,  avg # of iterations =  1.0

     total cpu time spent up to now is       11.6 secs

     End of self-consistent calculation

          k = 0.0000 0.0000 0.0000 ( 22119 PWs)   bands (ev):

   -30.0477 -11.8286  -7.3814  -7.3805  -7.2283  -0.3442   0.5724   0.7566

     the Fermi energy is    -7.2061 ev

!    total energy              =     -30.46034172 Ry
     Harris-Foulkes estimate   =     -30.46034173 Ry
     estimated scf accuracy    <          4.5E-09 Ry

     convergence has been achieved in  17 iterations

     Forces acting on atoms (Ry/au):

     atom    1 type  2   force =    -0.83291723   -5.84361628    0.99147799
     atom    2 type  1   force =     0.00021237   -0.00113944   -0.00008831
     atom    3 type  1   force =     0.83270485    5.84475572   -0.99138968

     Total force =     8.465344     Total SCF correction =     0.000017

     Entering Dynamics:    iteration =     6
                           time      =   0.0290 pico-seconds


     Andersen thermostat:    3 collisions

ATOMIC_POSITIONS (bohr)
O       16.010326429   0.499764105  19.421855072
H       12.256644311   8.723803298   9.814919073
H       25.896907961  69.267229788 -12.416811113


     kinetic energy (Ekin) =    52.75013071 Ry
     temperature           = ************** K 
     Ekin + Etot (const)   =    22.28978899 Ry
     Message from routine dynamics:
     Total linear momentum <> 0

[...]
     estimated scf accuracy    <      13.77079254 Ry

     iteration # 58     ecut=    30.00 Ry     beta=0.70
     Davidson diagonalization with overlap
     ethr =  1.00E-02,  avg # of iterations =  4.0

     negative rho (up, down):  6.363E-03 0.000E+00

     total cpu time spent up to now is       16.9 secs

     total energy              =      -8.86813121 Ry
     Harris-Foulkes estimate   =     -60.22903307 Ry
     estimated scf accuracy    <      11.37227075 Ry

     iteration # 59     ecut=    30.00 Ry     beta=0.70
     Davidson diagonalization with overlap
     ethr =  1.00E-02,  avg # of iterations =  6.0

     negative rho (up, down):  8.518E-04 0.000E+00

     total cpu time spent up to now is       17.0 secs

     total energy              =      15.16736492 Ry
     Harris-Foulkes estimate   =     -92.25533920 Ry
     estimated scf accuracy    <       8.80888263 Ry

     iteration # 60     ecut=    30.00 Ry     beta=0.70
     Davidson diagonalization with overlap
     ethr =  1.00E-02,  avg # of iterations =  5.0

     negative rho (up, down):  6.353E-04 0.000E+00

     total cpu time spent up to now is       17.1 secs

     total energy              =      -4.89454714 Ry
     Harris-Foulkes estimate   =     -64.45897837 Ry
     estimated scf accuracy    <      10.16680071 Ry

     iteration # 61     ecut=    30.00 Ry     beta=0.70
     Davidson diagonalization with overlap
     ethr =  1.00E-02,  avg # of iterations =  4.0

     negative rho (up, down):  5.978E-03 0.000E+00

     total cpu time spent up to now is       17.1 secs

     total energy              =     -34.39498619 Ry
     Harris-Foulkes estimate   =     -35.91417639 Ry
     estimated scf accuracy    <       7.98355287 Ry

     iteration # 62     ecut=    30.00 Ry     beta=0.70
     Davidson diagonalization with overlap
     ethr =  1.00E-02,  avg # of iterations =  6.0

     total cpu time spent up to now is       17.2 secs

     total energy              =      38.42169064 Ry
     Harris-Foulkes estimate   =    -128.27636389 Ry
     estimated scf accuracy    <      18.13427754 Ry

     iteration # 63     ecut=    30.00 Ry     beta=0.70
     Davidson diagonalization with overlap
     ethr =  1.00E-02,  avg # of iterations =  4.0

     negative rho (up, down):  2.173E-03 0.000E+00

     total cpu time spent up to now is       17.3 secs

     total energy              =     -34.86792126 Ry
     Harris-Foulkes estimate   =     -36.75109651 Ry
     estimated scf accuracy    <      11.00187591 Ry

     iteration # 64     ecut=    30.00 Ry     beta=0.70
     Davidson diagonalization with overlap
     ethr =  1.00E-02,  avg # of iterations =  4.0

     negative rho (up, down):  2.044E-03 0.000E+00

     total cpu time spent up to now is       17.3 secs

     total energy              =     -22.90201998 Ry
     Harris-Foulkes estimate   =     -36.08455602 Ry
     estimated scf accuracy    <       5.41923829 Ry

     iteration # 65     ecut=    30.00 Ry     beta=0.70
     Davidson diagonalization with overlap
     ethr =  1.00E-02,  avg # of iterations =  4.0

     negative rho (up, down):  2.887E-03 0.000E+00

     total cpu time spent up to now is       17.4 secs

     total energy              =     -16.94396503 Ry
     Harris-Foulkes estimate   =     -38.28336330 Ry
     estimated scf accuracy    <       6.58274061 Ry

     iteration # 66     ecut=    30.00 Ry     beta=0.70
     Davidson diagonalization with overlap
     ethr =  1.00E-02,  avg # of iterations =  4.0

     total cpu time spent up to now is       17.5 secs

     total energy              =       7.55980509 Ry
     Harris-Foulkes estimate   =     -62.29659388 Ry
     estimated scf accuracy    <       8.39777520 Ry

     iteration # 67     ecut=    30.00 Ry     beta=0.70
     Davidson diagonalization with overlap
     ethr =  1.00E-02,  avg # of iterations =  4.0

     negative rho (up, down):  6.532E-04 0.000E+00

     total cpu time spent up to now is       17.5 secs

     total energy              =     -34.65473855 Ry
     Harris-Foulkes estimate   =     -34.95584372 Ry
     estimated scf accuracy    <       6.19897871 Ry

     iteration # 68     ecut=    30.00 Ry     beta=0.70
     Davidson diagonalization with overlap
     ethr =  1.00E-02,  avg # of iterations =  1.0

     negative rho (up, down):  2.006E-02 0.000E+00

     total cpu time spent up to now is       17.6 secs

     total energy              =     -33.63400697 Ry
     Harris-Foulkes estimate   =     -34.75807071 Ry
     estimated scf accuracy    <       8.47820036 Ry

     iteration # 69     ecut=    30.00 Ry     beta=0.70
     Davidson diagonalization with overlap
     ethr =  1.00E-02,  avg # of iterations =  6.0

     negative rho (up, down):  3.906E-03 0.000E+00

     total cpu time spent up to now is       17.6 secs

     total energy              =      40.98895944 Ry
     Harris-Foulkes estimate   =    -217.74249138 Ry
     estimated scf accuracy    <      13.35331075 Ry

     iteration # 70     ecut=    30.00 Ry     beta=0.70
     Davidson diagonalization with overlap
     ethr =  1.00E-02,  avg # of iterations =  5.0

     negative rho (up, down):  3.688E-03 0.000E+00

     total cpu time spent up to now is       17.7 secs

     total energy              =     -33.34738768 Ry
     Harris-Foulkes estimate   =     -33.99215233 Ry
     estimated scf accuracy    <       5.00687591 Ry

     iteration # 71     ecut=    30.00 Ry     beta=0.70
     Davidson diagonalization with overlap
     ethr =  1.00E-02,  avg # of iterations =  4.0

     negative rho (up, down):  6.879E-03 0.000E+00

     total cpu time spent up to now is       17.8 secs

     total energy              =      -6.80246091 Ry
     Harris-Foulkes estimate   =    -123.47671175 Ry
     estimated scf accuracy    <       7.63499794 Ry

     iteration # 72     ecut=    30.00 Ry     beta=0.70
     Davidson diagonalization with overlap
     ethr =  1.00E-02,  avg # of iterations =  4.0

     negative rho (up, down):  4.929E-02 0.000E+00

     total cpu time spent up to now is       17.8 secs

     total energy              =     -33.13436806 Ry
     Harris-Foulkes estimate   =     -33.11638192 Ry
     estimated scf accuracy    <       3.20881283 Ry

     iteration # 73     ecut=    30.00 Ry     beta=0.70
     Davidson diagonalization with overlap
     ethr =  1.00E-02,  avg # of iterations =  4.0

     negative rho (up, down):  4.267E-02 0.000E+00

     total cpu time spent up to now is       17.9 secs

     total energy              =       0.52280238 Ry
     Harris-Foulkes estimate   =    -139.82061982 Ry
     estimated scf accuracy    <       7.43976220 Ry

     iteration # 74     ecut=    30.00 Ry     beta=0.70
     Davidson diagonalization with overlap
     ethr =  1.00E-02,  avg # of iterations =  4.0

     negative rho (up, down):  1.259E-02 0.000E+00

     total cpu time spent up to now is       18.0 secs

     total energy              =       5.02456002 Ry
     Harris-Foulkes estimate   =     -43.05426168 Ry
     estimated scf accuracy    <      12.28459271 Ry

     iteration # 75     ecut=    30.00 Ry     beta=0.70
     Davidson diagonalization with overlap
     ethr =  1.00E-02,  avg # of iterations =  5.0

     negative rho (up, down):  3.969E-02 0.000E+00

     total cpu time spent up to now is       18.0 secs

     total energy              =      -8.89313933 Ry
     Harris-Foulkes estimate   =     -63.25442878 Ry
     estimated scf accuracy    <       6.48824594 Ry

     iteration # 76     ecut=    30.00 Ry     beta=0.70
     Davidson diagonalization with overlap
     ethr =  1.00E-02,  avg # of iterations =  6.0

     negative rho (up, down):  7.437E-02 0.000E+00

     total cpu time spent up to now is       18.1 secs

     total energy              =     -32.04983489 Ry
     Harris-Foulkes estimate   =     -32.53649009 Ry
     estimated scf accuracy    <       4.21529668 Ry

     iteration # 77     ecut=    30.00 Ry     beta=0.70
     Davidson diagonalization with overlap
     ethr =  1.00E-02,  avg # of iterations =  7.0

     negative rho (up, down):  7.607E-02 0.000E+00

     total cpu time spent up to now is       18.1 secs

     total energy              =      -5.14405083 Ry
     Harris-Foulkes estimate   =     -46.42544354 Ry
     estimated scf accuracy    <      19.32677239 Ry

     iteration # 78     ecut=    30.00 Ry     beta=0.70
     Davidson diagonalization with overlap
     ethr =  1.00E-02,  avg # of iterations =  4.0

     negative rho (up, down):  1.467E-02 0.000E+00

     total cpu time spent up to now is       18.2 secs

     total energy              =       8.67805836 Ry
     Harris-Foulkes estimate   =    -187.18344709 Ry
     estimated scf accuracy    <      11.05914018 Ry

     iteration # 79     ecut=    30.00 Ry     beta=0.70
     Davidson diagonalization with overlap
     ethr =  1.00E-02,  avg # of iterations =  4.0

     negative rho (up, down):  4.572E-05 0.000E+00

     total cpu time spent up to now is       18.3 secs

     total energy              =     -31.95972688 Ry
     Harris-Foulkes estimate   =     -32.67075335 Ry
     estimated scf accuracy    <       4.76106425 Ry

     iteration # 80     ecut=    30.00 Ry     beta=0.70
     Davidson diagonalization with overlap
     ethr =  1.00E-02,  avg # of iterations =  1.0

     negative rho (up, down):  1.014E-02 0.000E+00

     total cpu time spent up to now is       18.3 secs

     total energy              =     -31.97647560 Ry
     Harris-Foulkes estimate   =     -32.07358939 Ry
     estimated scf accuracy    <       1.53880082 Ry

     iteration # 81     ecut=    30.00 Ry     beta=0.70
     Davidson diagonalization with overlap
     ethr =  1.00E-02,  avg # of iterations =  2.0

     negative rho (up, down):  3.275E-04 0.000E+00

     total cpu time spent up to now is       18.4 secs

     total energy              =     -31.16481469 Ry
     Harris-Foulkes estimate   =     -32.42321725 Ry
     estimated scf accuracy    <       1.94560360 Ry

     iteration # 82     ecut=    30.00 Ry     beta=0.70
     Davidson diagonalization with overlap
     ethr =  1.00E-02,  avg # of iterations =  3.0

     negative rho (up, down):  5.720E-03 0.000E+00

     total cpu time spent up to now is       18.4 secs

     total energy              =     -31.91450037 Ry
     Harris-Foulkes estimate   =     -31.96278348 Ry
     estimated scf accuracy    <       1.47979489 Ry

     iteration # 83     ecut=    30.00 Ry     beta=0.70
     Davidson diagonalization with overlap
     ethr =  1.00E-02,  avg # of iterations =  1.0

     negative rho (up, down):  9.042E-03 0.000E+00

     total cpu time spent up to now is       18.5 secs

     total energy              =     -31.85477349 Ry
     Harris-Foulkes estimate   =     -31.97549302 Ry
     estimated scf accuracy    <       1.93575166 Ry

     iteration # 84     ecut=    30.00 Ry     beta=0.70
     Davidson diagonalization with overlap
     ethr =  1.00E-02,  avg # of iterations =  4.0

     negative rho (up, down):  2.182E-03 0.000E+00

     total cpu time spent up to now is       18.5 secs

     total energy              =      -1.39810985 Ry
     Harris-Foulkes estimate   =     -96.76851912 Ry
     estimated scf accuracy    <       5.74990045 Ry

     iteration # 85     ecut=    30.00 Ry     beta=0.70
     Davidson diagonalization with overlap
     ethr =  1.00E-02,  avg # of iterations =  4.0

     negative rho (up, down):  3.346E-07 0.000E+00

     total cpu time spent up to now is       18.6 secs

     total energy              =     -31.77280065 Ry
     Harris-Foulkes estimate   =     -31.80924298 Ry
     estimated scf accuracy    <       1.13612034 Ry

     iteration # 86     ecut=    30.00 Ry     beta=0.70
     Davidson diagonalization with overlap
     ethr =  1.00E-02,  avg # of iterations =  1.0

     negative rho (up, down):  3.892E-04 0.000E+00

     total cpu time spent up to now is       18.6 secs

     total energy              =     -31.62943645 Ry
     Harris-Foulkes estimate   =     -31.90679181 Ry
     estimated scf accuracy    <       2.97279645 Ry

     iteration # 87     ecut=    30.00 Ry     beta=0.70
     Davidson diagonalization with overlap
     ethr =  1.00E-02,  avg # of iterations =  2.0

     negative rho (up, down):  1.100E-02 0.000E+00

     total cpu time spent up to now is       18.7 secs

     total energy              =     -31.56862507 Ry
     Harris-Foulkes estimate   =     -31.65486566 Ry
     estimated scf accuracy    <       0.72014109 Ry

     iteration # 88     ecut=    30.00 Ry     beta=0.70
     Davidson diagonalization with overlap
     ethr =  9.00E-03,  avg # of iterations =  5.0

     negative rho (up, down):  3.761E-04 0.000E+00

     total cpu time spent up to now is       18.7 secs

     total energy              =     -18.46826191 Ry
     Harris-Foulkes estimate   =     -38.07650057 Ry
     estimated scf accuracy    <       5.30973134 Ry

     iteration # 89     ecut=    30.00 Ry     beta=0.70
     Davidson diagonalization with overlap
     ethr =  9.00E-03,  avg # of iterations =  4.0

     negative rho (up, down):  9.541E-04 0.000E+00

     total cpu time spent up to now is       18.8 secs

     total energy              =     -31.59588122 Ry
     Harris-Foulkes estimate   =     -31.58422466 Ry
     estimated scf accuracy    <       0.40210433 Ry

     iteration # 90     ecut=    30.00 Ry     beta=0.70
     Davidson diagonalization with overlap
     ethr =  5.03E-03,  avg # of iterations =  2.0

     negative rho (up, down):  5.318E-03 0.000E+00

     total cpu time spent up to now is       18.8 secs

     total energy              =     -31.47912146 Ry
     Harris-Foulkes estimate   =     -31.61834782 Ry
     estimated scf accuracy    <       0.43988065 Ry

     iteration # 91     ecut=    30.00 Ry     beta=0.70
     Davidson diagonalization with overlap
     ethr =  5.03E-03,  avg # of iterations =  2.0

     negative rho (up, down):  2.418E-03 0.000E+00

     total cpu time spent up to now is       18.9 secs

     total energy              =     -31.58037423 Ry
     Harris-Foulkes estimate   =     -31.60150056 Ry
     estimated scf accuracy    <       0.37225780 Ry

     iteration # 92     ecut=    30.00 Ry     beta=0.70
     Davidson diagonalization with overlap
     ethr =  4.65E-03,  avg # of iterations =  1.0

     negative rho (up, down):  1.820E-03 0.000E+00

     total cpu time spent up to now is       18.9 secs

     total energy              =     -31.57749038 Ry
     Harris-Foulkes estimate   =     -31.59882305 Ry
     estimated scf accuracy    <       0.59899891 Ry

     iteration # 93     ecut=    30.00 Ry     beta=0.70
     Davidson diagonalization with overlap
     ethr =  4.65E-03,  avg # of iterations =  1.0

     negative rho (up, down):  1.009E-03 0.000E+00

     total cpu time spent up to now is       19.0 secs

     total energy              =     -31.58010183 Ry
     Harris-Foulkes estimate   =     -31.58743907 Ry
     estimated scf accuracy    <       0.29038414 Ry

     iteration # 94     ecut=    30.00 Ry     beta=0.70
     Davidson diagonalization with overlap
     ethr =  3.63E-03,  avg # of iterations =  4.0

     total cpu time spent up to now is       19.1 secs

     total energy              =     -10.37950720 Ry
     Harris-Foulkes estimate   =     -45.30531299 Ry
     estimated scf accuracy    <       6.46517425 Ry

     iteration # 95     ecut=    30.00 Ry     beta=0.70
     Davidson diagonalization with overlap
     ethr =  3.63E-03,  avg # of iterations =  5.0

     total cpu time spent up to now is       19.1 secs

     total energy              =     -31.58581885 Ry
     Harris-Foulkes estimate   =     -31.58990411 Ry
     estimated scf accuracy    <       0.55386279 Ry

     iteration # 96     ecut=    30.00 Ry     beta=0.70
     Davidson diagonalization with overlap
     ethr =  3.63E-03,  avg # of iterations =  1.0

     total cpu time spent up to now is       19.2 secs

     total energy              =     -31.55971512 Ry
     Harris-Foulkes estimate   =     -31.63698587 Ry
     estimated scf accuracy    <       1.47334851 Ry

     iteration # 97     ecut=    30.00 Ry     beta=0.70
     Davidson diagonalization with overlap
     ethr =  3.63E-03,  avg # of iterations =  1.0

     total cpu time spent up to now is       19.2 secs

     total energy              =     -31.53523972 Ry
     Harris-Foulkes estimate   =     -31.58017742 Ry
     estimated scf accuracy    <       0.24417659 Ry

     iteration # 98     ecut=    30.00 Ry     beta=0.70
     Davidson diagonalization with overlap
     ethr =  3.05E-03,  avg # of iterations =  1.0

     negative rho (up, down):  1.951E-05 0.000E+00

     total cpu time spent up to now is       19.3 secs

     total energy              =     -31.51474646 Ry
     Harris-Foulkes estimate   =     -31.53879500 Ry
     estimated scf accuracy    <       0.21076567 Ry

     iteration # 99     ecut=    30.00 Ry     beta=0.70
     Davidson diagonalization with overlap
     ethr =  2.63E-03,  avg # of iterations =  1.0

     negative rho (up, down):  2.834E-06 0.000E+00

     total cpu time spent up to now is       19.3 secs

     total energy              =     -31.51476169 Ry
     Harris-Foulkes estimate   =     -31.51919181 Ry
     estimated scf accuracy    <       0.17062102 Ry

     iteration #100     ecut=    30.00 Ry     beta=0.70
     Davidson diagonalization with overlap
     ethr =  2.13E-03,  avg # of iterations =  1.0

     total cpu time spent up to now is       19.4 secs

     total energy              =     -31.51128318 Ry
     Harris-Foulkes estimate   =     -31.51566628 Ry
     estimated scf accuracy    <       0.14012414 Ry

     End of self-consistent calculation

     convergence NOT achieved after 100 iterations: stopping

     Writing output data file pwscf.save
 
     init_run     :      0.17s CPU      0.19s WALL (       1 calls)
     electrons    :     13.87s CPU     16.65s WALL (       7 calls)
     update_pot   :      1.26s CPU      1.69s WALL (       6 calls)
     forces       :      0.26s CPU      0.26s WALL (       6 calls)

     Called by init_run:
     wfcinit      :      0.01s CPU      0.02s WALL (       1 calls)
     potinit      :      0.05s CPU      0.05s WALL (       1 calls)

     Called by electrons:
     c_bands      :      6.96s CPU      7.34s WALL (     266 calls)
     sum_band     :      1.35s CPU      1.41s WALL (     266 calls)
     v_of_rho     :      3.17s CPU      3.26s WALL (     273 calls)
     mix_rho      :      1.90s CPU      3.59s WALL (     266 calls)

     Called by c_bands:
     init_us_2    :      0.04s CPU      0.05s WALL (     533 calls)
     cegterg      :      6.88s CPU      7.19s WALL (     266 calls)

     Called by sum_band:

     Called by *egterg:
     h_psi        :      5.87s CPU      6.13s WALL (    1171 calls)
     g_psi        :      0.06s CPU      0.07s WALL (     904 calls)
     cdiaghg      :      0.39s CPU      0.41s WALL (    1164 calls)

     Called by h_psi:
     h_psi:pot    :      5.83s CPU      6.09s WALL (    1171 calls)
     h_psi:calbec :      0.08s CPU      0.11s WALL (    1171 calls)
     vloc_psi     :      5.73s CPU      5.95s WALL (    1171 calls)
     add_vuspsi   :      0.02s CPU      0.02s WALL (    1171 calls)

     General routines
     calbec       :      0.09s CPU      0.13s WALL (    1200 calls)
     fft          :      1.91s CPU      1.97s WALL (    3015 calls)
     fftw         :      6.07s CPU      6.33s WALL (   15424 calls)
     davcio       :      0.30s CPU      1.44s WALL (    4710 calls)
 
     Parallel routines
     fft_scatter  :      2.53s CPU      2.74s WALL (   18439 calls)
 
     PWSCF        :    15.93s CPU        19.50s WALL

 
   This run was terminated on:  16:11:54  13Feb2018            

=------------------------------------------------------------------------------=
   JOB DONE.
=------------------------------------------------------------------------------=
