
     Program PWSCF v.6.0 (svn rev. 13079) starts on 13Feb2018 at 16:12:46 

     This program is part of the open-source Quantum ESPRESSO suite
     for quantum simulation of materials; please cite
         "P. Giannozzi et al., J. Phys.:Condens. Matter 21 395502 (2009);
          URL http://www.quantum-espresso.org", 
     in publications or presentations arising from this work. More details at
     http://www.quantum-espresso.org/quote

     Parallel version (MPI), running on    28 processors
     R & G space division:  proc/nbgrp/npool/nimage =      28
     Reading input from inputs/MD-H2O-round1/607.in

     Current dimensions of program PWSCF are:
     Max number of different atomic species (ntypx) = 10
     Max number of k-points (npk) =  40000
     Max angular momentum in pseudopotentials (lmaxx) =  3

     Subspace diagonalization in iterative solution of the eigenvalue problem:
     a serial algorithm will be used

 
     Parallelization info
     --------------------
     sticks:   dense  smooth     PW     G-vecs:    dense   smooth      PW
     Min         136     136     33                 6338     6338     787
     Max         137     137     34                 6341     6341     792
     Sum        3809    3809    949               177509   177509   22119
 


     bravais-lattice index     =            1
     lattice parameter (alat)  =      20.0000  a.u.
     unit-cell volume          =    8000.0000 (a.u.)^3
     number of atoms/cell      =            3
     number of atomic types    =            2
     number of electrons       =         8.00
     number of Kohn-Sham states=            8
     kinetic-energy cutoff     =      30.0000  Ry
     charge density cutoff     =     120.0000  Ry
     convergence threshold     =      1.0E-08
     mixing beta               =       0.7000
     number of iterations used =            8  plain     mixing
     Exchange-correlation      = BLYP ( 1  3  1  3 0 0)
     nstep                     =         5000


     celldm(1)=  20.000000  celldm(2)=   0.000000  celldm(3)=   0.000000
     celldm(4)=   0.000000  celldm(5)=   0.000000  celldm(6)=   0.000000

     crystal axes: (cart. coord. in units of alat)
               a(1) = (   1.000000   0.000000   0.000000 )  
               a(2) = (   0.000000   1.000000   0.000000 )  
               a(3) = (   0.000000   0.000000   1.000000 )  

     reciprocal axes: (cart. coord. in units 2 pi/alat)
               b(1) = (  1.000000  0.000000  0.000000 )  
               b(2) = (  0.000000  1.000000  0.000000 )  
               b(3) = (  0.000000  0.000000  1.000000 )  


     PseudoPot. # 1 for  H read from file:
     ./H.blyp-hgh.UPF
     MD5 check sum: c576e69559cde411e611be972c763230
     Pseudo is Norm-conserving, Zval =  1.0
     Generated in analytical, separable form
     Using radial grid of  929 points,  0 beta functions with: 

     PseudoPot. # 2 for  O read from file:
     ./O.blyp-hgh.UPF
     MD5 check sum: d0b7156309aa9befef28faac7bc56342
     Pseudo is Norm-conserving, Zval =  6.0
     Generated in analytical, separable form
     Using radial grid of 1095 points,  1 beta functions with: 
                l(1) =   0

     atomic species   valence    mass     pseudopotential
        H              1.00     1.01000      H( 1.00)
        O              6.00    16.00000      O( 1.00)

     No symmetry found



   Cartesian axes

     site n.     atom                  positions (alat units)
         1           O   tau(   1) = (   0.1878855   0.5785614   0.6623147  )
         2           H   tau(   2) = (  -0.0392421   0.4888266   1.0232333  )
         3           H   tau(   3) = (   0.9800100   0.5335585   0.0133703  )

     number of k points=     1  Marzari-Vanderbilt smearing, width (Ry)=  0.0250
                       cart. coord. in units 2pi/alat
        k(    1) = (   0.0000000   0.0000000   0.0000000), wk =   2.0000000

     Dense  grid:   177509 G-vectors     FFT dimensions: (  72,  72,  72)

     Estimated max dynamical RAM per process >       6.09Mb

     Estimated total allocated dynamical RAM >     170.64Mb

     Initial potential from superposition of free atoms
     Check: negative starting charge=   -0.361345

     starting charge    7.99998, renormalised to    8.00000

     negative rho (up, down):  3.613E-01 0.000E+00
     Starting wfc are    6 randomized atomic wfcs +    2 random wfc

     total cpu time spent up to now is        0.3 secs

     per-process dynamical memory:    18.8 Mb

     Self-consistent Calculation

     iteration #  1     ecut=    30.00 Ry     beta=0.70
     Davidson diagonalization with overlap
     ethr =  1.00E-02,  avg # of iterations =  7.0

     negative rho (up, down):  9.449E-02 0.000E+00

     total cpu time spent up to now is        0.4 secs

     total energy              =     -31.49686354 Ry
     Harris-Foulkes estimate   =     -32.30793700 Ry
     estimated scf accuracy    <       0.86853419 Ry

     iteration #  2     ecut=    30.00 Ry     beta=0.70
     Davidson diagonalization with overlap
     ethr =  1.00E-02,  avg # of iterations =  2.0

     negative rho (up, down):  4.037E-02 0.000E+00

     total cpu time spent up to now is        0.5 secs

     total energy              =     -31.76863643 Ry
     Harris-Foulkes estimate   =     -31.79523439 Ry
     estimated scf accuracy    <       0.11650766 Ry

     iteration #  3     ecut=    30.00 Ry     beta=0.70
     Davidson diagonalization with overlap
     ethr =  1.46E-03,  avg # of iterations =  3.0

     negative rho (up, down):  2.152E-02 0.000E+00

     total cpu time spent up to now is        0.5 secs

     total energy              =     -31.79394796 Ry
     Harris-Foulkes estimate   =     -31.78474256 Ry
     estimated scf accuracy    <       0.02706416 Ry

     iteration #  4     ecut=    30.00 Ry     beta=0.70
     Davidson diagonalization with overlap
     ethr =  3.38E-04,  avg # of iterations =  4.0

     negative rho (up, down):  1.016E-02 0.000E+00

     total cpu time spent up to now is        0.6 secs

     total energy              =     -31.80722405 Ry
     Harris-Foulkes estimate   =     -31.79914413 Ry
     estimated scf accuracy    <       0.01850999 Ry

     iteration #  5     ecut=    30.00 Ry     beta=0.70
     Davidson diagonalization with overlap
     ethr =  2.31E-04,  avg # of iterations =  1.0

     negative rho (up, down):  3.177E-07 0.000E+00

     total cpu time spent up to now is        0.6 secs

     total energy              =     -31.81704435 Ry
     Harris-Foulkes estimate   =     -31.80884643 Ry
     estimated scf accuracy    <       0.00054058 Ry

     iteration #  6     ecut=    30.00 Ry     beta=0.70
     Davidson diagonalization with overlap
     ethr =  6.76E-06,  avg # of iterations = 17.0

     negative rho (up, down):  1.612E-06 0.000E+00

     total cpu time spent up to now is        0.7 secs

     total energy              =     -31.81708837 Ry
     Harris-Foulkes estimate   =     -31.81709895 Ry
     estimated scf accuracy    <       0.00001931 Ry

     iteration #  7     ecut=    30.00 Ry     beta=0.70
     Davidson diagonalization with overlap
     ethr =  2.41E-07,  avg # of iterations =  7.0

     negative rho (up, down):  2.698E-06 0.000E+00

     total cpu time spent up to now is        0.8 secs

     total energy              =     -31.81708472 Ry
     Harris-Foulkes estimate   =     -31.81709061 Ry
     estimated scf accuracy    <       0.00000731 Ry

     iteration #  8     ecut=    30.00 Ry     beta=0.70
     Davidson diagonalization with overlap
     ethr =  9.14E-08,  avg # of iterations =  2.0

     total cpu time spent up to now is        0.8 secs

     total energy              =     -31.81708954 Ry
     Harris-Foulkes estimate   =     -31.81708630 Ry
     estimated scf accuracy    <       0.00000062 Ry

     iteration #  9     ecut=    30.00 Ry     beta=0.70
     Davidson diagonalization with overlap
     ethr =  7.70E-09,  avg # of iterations =  2.0

     total cpu time spent up to now is        0.9 secs

     total energy              =     -31.81708972 Ry
     Harris-Foulkes estimate   =     -31.81708960 Ry
     estimated scf accuracy    <       0.00000014 Ry

     iteration # 10     ecut=    30.00 Ry     beta=0.70
     Davidson diagonalization with overlap
     ethr =  1.78E-09,  avg # of iterations =  2.0

     total cpu time spent up to now is        0.9 secs

     total energy              =     -31.81708980 Ry
     Harris-Foulkes estimate   =     -31.81708973 Ry
     estimated scf accuracy    <       0.00000003 Ry

     iteration # 11     ecut=    30.00 Ry     beta=0.70
     Davidson diagonalization with overlap
     ethr =  3.32E-10,  avg # of iterations =  2.0

     total cpu time spent up to now is        1.0 secs

     End of self-consistent calculation

          k = 0.0000 0.0000 0.0000 ( 22119 PWs)   bands (ev):

   -25.1029 -11.3637  -8.4066  -8.4066  -8.4063  -0.3517   0.6751   0.8945

     the Fermi energy is    -8.2835 ev

!    total energy              =     -31.81708981 Ry
     Harris-Foulkes estimate   =     -31.81708981 Ry
     estimated scf accuracy    <          9.7E-10 Ry

     convergence has been achieved in  11 iterations

     Forces acting on atoms (Ry/au):

     atom    1 type  2   force =    -0.00008364   -0.00041800   -0.00052461
     atom    2 type  1   force =    -0.26917402   -0.62548144    0.13810643
     atom    3 type  1   force =     0.26925766    0.62589944   -0.13758182

     Total force =     0.982819     Total SCF correction =     0.000033

     Molecular Dynamics Calculation

     Starting temperature  =  1000.00 K

     temperature is controlled by Andersen thermostat
     Collision frequency = 1.0000/timestep
     mass H                =     1.01
     mass O                =    16.00
     Time step             =   100.00 a.u.,  4.8378 femto-seconds

     Entering Dynamics:    iteration =     1
                           time      =   0.0048 pico-seconds


     Andersen thermostat:    3 collisions

ATOMIC_POSITIONS (bohr)
O        3.781863232  11.576072836  13.265844550
H       -2.288651531   6.130798038  21.427883650
H       20.721385074  14.240155077  -1.005522339


     kinetic energy (Ekin) =     0.02514028 Ry
     temperature           =  1323.11073635 K 
     Ekin + Etot (const)   =   -31.79194953 Ry

     Linear momentum :    0.0000000000    0.0000000000    0.0000000000

     Writing output data file pwscf.save
     Check: negative starting charge=   -0.361345
     NEW-OLD atomic charge density approx. for the potential
     Check: negative starting charge=   -0.345610

     negative rho (up, down):  3.088E-01 0.000E+00

     total cpu time spent up to now is        1.3 secs

     per-process dynamical memory:    20.4 Mb

     Self-consistent Calculation

     iteration #  1     ecut=    30.00 Ry     beta=0.70
     Davidson diagonalization with overlap
     c_bands:  1 eigenvalues not converged
     ethr =  1.00E-06,  avg # of iterations = 20.0

     negative rho (up, down):  8.935E-02 0.000E+00

     total cpu time spent up to now is        1.5 secs

     total energy              =     -29.33948290 Ry
     Harris-Foulkes estimate   =     -31.77635760 Ry
     estimated scf accuracy    <       3.10291826 Ry

     iteration #  2     ecut=    30.00 Ry     beta=0.70
     Davidson diagonalization with overlap
     ethr =  1.00E-02,  avg # of iterations =  4.0

     negative rho (up, down):  3.153E-02 0.000E+00

     total cpu time spent up to now is        1.6 secs

     total energy              =     -31.58598225 Ry
     Harris-Foulkes estimate   =     -38.09249516 Ry
     estimated scf accuracy    <      20.71891888 Ry

     iteration #  3     ecut=    30.00 Ry     beta=0.70
     Davidson diagonalization with overlap
     ethr =  1.00E-02,  avg # of iterations =  2.0

     negative rho (up, down):  2.620E-02 0.000E+00

     total cpu time spent up to now is        1.6 secs

     total energy              =     -29.34706481 Ry
     Harris-Foulkes estimate   =     -31.75413939 Ry
     estimated scf accuracy    <      11.95074912 Ry

     iteration #  4     ecut=    30.00 Ry     beta=0.70
     Davidson diagonalization with overlap
     ethr =  1.00E-02,  avg # of iterations =  1.0

     negative rho (up, down):  6.320E-02 0.000E+00

     total cpu time spent up to now is        1.7 secs

     total energy              =     -28.60894262 Ry
     Harris-Foulkes estimate   =     -29.39151636 Ry
     estimated scf accuracy    <       8.60048782 Ry

     iteration #  5     ecut=    30.00 Ry     beta=0.70
     Davidson diagonalization with overlap
     ethr =  1.00E-02,  avg # of iterations =  8.0

     negative rho (up, down):  7.618E-02 0.000E+00

     total cpu time spent up to now is        1.8 secs

     total energy              =     -32.56962163 Ry
     Harris-Foulkes estimate   =     -32.59344923 Ry
     estimated scf accuracy    <       4.75277052 Ry

     iteration #  6     ecut=    30.00 Ry     beta=0.70
     Davidson diagonalization with overlap
     ethr =  1.00E-02,  avg # of iterations =  1.0

     negative rho (up, down):  3.372E-02 0.000E+00

     total cpu time spent up to now is        1.8 secs

     total energy              =     -32.91085915 Ry
     Harris-Foulkes estimate   =     -32.57094039 Ry
     estimated scf accuracy    <       4.61846911 Ry

     iteration #  7     ecut=    30.00 Ry     beta=0.70
     Davidson diagonalization with overlap
     ethr =  1.00E-02,  avg # of iterations =  1.0

     negative rho (up, down):  2.332E-03 0.000E+00

     total cpu time spent up to now is        1.9 secs

     total energy              =     -32.90114343 Ry
     Harris-Foulkes estimate   =     -32.91296141 Ry
     estimated scf accuracy    <       5.13787392 Ry

     iteration #  8     ecut=    30.00 Ry     beta=0.70
     Davidson diagonalization with overlap
     ethr =  1.00E-02,  avg # of iterations =  1.0

     total cpu time spent up to now is        1.9 secs

     total energy              =     -32.57266092 Ry
     Harris-Foulkes estimate   =     -32.90140146 Ry
     estimated scf accuracy    <       5.07441288 Ry

     iteration #  9     ecut=    30.00 Ry     beta=0.70
     Davidson diagonalization with overlap
     ethr =  1.00E-02,  avg # of iterations =  1.0

     total cpu time spent up to now is        1.9 secs

     total energy              =     -32.60113088 Ry
     Harris-Foulkes estimate   =     -32.57702637 Ry
     estimated scf accuracy    <       4.48833165 Ry

     iteration # 10     ecut=    30.00 Ry     beta=0.70
     Davidson diagonalization with overlap
     ethr =  1.00E-02,  avg # of iterations =  1.0

     total cpu time spent up to now is        2.0 secs

     total energy              =     -32.58505059 Ry
     Harris-Foulkes estimate   =     -32.60120980 Ry
     estimated scf accuracy    <       4.52640095 Ry

     iteration # 11     ecut=    30.00 Ry     beta=0.70
     Davidson diagonalization with overlap
     ethr =  1.00E-02,  avg # of iterations =  1.0

     total cpu time spent up to now is        2.1 secs

     total energy              =     -32.41685100 Ry
     Harris-Foulkes estimate   =     -32.58505687 Ry
     estimated scf accuracy    <       4.50097392 Ry

     iteration # 12     ecut=    30.00 Ry     beta=0.70
     Davidson diagonalization with overlap
     ethr =  1.00E-02,  avg # of iterations =  1.0

     total cpu time spent up to now is        2.1 secs

     total energy              =     -32.59499962 Ry
     Harris-Foulkes estimate   =     -32.40639780 Ry
     estimated scf accuracy    <       4.17967401 Ry

     iteration # 13     ecut=    30.00 Ry     beta=0.70
     Davidson diagonalization with overlap
     ethr =  1.00E-02,  avg # of iterations =  1.0

     negative rho (up, down):  6.069E-03 0.000E+00

     total cpu time spent up to now is        2.2 secs

     total energy              =     -29.37133861 Ry
     Harris-Foulkes estimate   =     -32.60920302 Ry
     estimated scf accuracy    <       4.52956458 Ry

     iteration # 14     ecut=    30.00 Ry     beta=0.70
     Davidson diagonalization with overlap
     ethr =  1.00E-02,  avg # of iterations =  5.0

     negative rho (up, down):  6.025E-04 0.000E+00

     total cpu time spent up to now is        2.3 secs

     total energy              =     -35.16337258 Ry
     Harris-Foulkes estimate   =     -36.93896030 Ry
     estimated scf accuracy    <      20.56914143 Ry

     iteration # 15     ecut=    30.00 Ry     beta=0.70
     Davidson diagonalization with overlap
     ethr =  1.00E-02,  avg # of iterations =  3.0

     negative rho (up, down):  1.412E-03 0.000E+00

     total cpu time spent up to now is        2.3 secs

     total energy              =     -35.29695159 Ry
     Harris-Foulkes estimate   =     -35.18932084 Ry
     estimated scf accuracy    <      17.35330057 Ry

     iteration # 16     ecut=    30.00 Ry     beta=0.70
     Davidson diagonalization with overlap
     ethr =  1.00E-02,  avg # of iterations =  1.0

     negative rho (up, down):  9.672E-04 0.000E+00

     total cpu time spent up to now is        2.4 secs

     total energy              =     -34.61303315 Ry
     Harris-Foulkes estimate   =     -35.30236582 Ry
     estimated scf accuracy    <      17.43555532 Ry

     iteration # 17     ecut=    30.00 Ry     beta=0.70
     Davidson diagonalization with overlap
     ethr =  1.00E-02,  avg # of iterations =  1.0

     negative rho (up, down):  4.995E-04 0.000E+00

     total cpu time spent up to now is        2.4 secs

     total energy              =     -33.70086037 Ry
     Harris-Foulkes estimate   =     -34.62204114 Ry
     estimated scf accuracy    <      16.32867795 Ry

     iteration # 18     ecut=    30.00 Ry     beta=0.70
     Davidson diagonalization with overlap
     ethr =  1.00E-02,  avg # of iterations =  1.0

     negative rho (up, down):  7.280E-04 0.000E+00

     total cpu time spent up to now is        2.5 secs

     total energy              =     -33.33681696 Ry
     Harris-Foulkes estimate   =     -33.70630521 Ry
     estimated scf accuracy    <      15.06533603 Ry

     iteration # 19     ecut=    30.00 Ry     beta=0.70
     Davidson diagonalization with overlap
     ethr =  1.00E-02,  avg # of iterations =  1.0

     negative rho (up, down):  8.365E-06 0.000E+00

     total cpu time spent up to now is        2.5 secs

     total energy              =     -30.68546897 Ry
     Harris-Foulkes estimate   =     -33.33877462 Ry
     estimated scf accuracy    <      14.54701500 Ry

     iteration # 20     ecut=    30.00 Ry     beta=0.70
     Davidson diagonalization with overlap
     ethr =  1.00E-02,  avg # of iterations =  6.0

     negative rho (up, down):  1.808E-05 0.000E+00

     total cpu time spent up to now is        2.6 secs

     total energy              =     -31.78692891 Ry
     Harris-Foulkes estimate   =     -31.68876777 Ry
     estimated scf accuracy    <       4.23569742 Ry

     iteration # 21     ecut=    30.00 Ry     beta=0.70
     Davidson diagonalization with overlap
     ethr =  1.00E-02,  avg # of iterations =  1.0

     negative rho (up, down):  2.620E-05 0.000E+00

     total cpu time spent up to now is        2.6 secs

     total energy              =     -30.92154024 Ry
     Harris-Foulkes estimate   =     -31.78325218 Ry
     estimated scf accuracy    <       4.37511399 Ry

     iteration # 22     ecut=    30.00 Ry     beta=0.70
     Davidson diagonalization with overlap
     ethr =  1.00E-02,  avg # of iterations =  5.0

     negative rho (up, down):  1.890E-01 0.000E+00

     total cpu time spent up to now is        2.7 secs

     total energy              =     -34.64277984 Ry
     Harris-Foulkes estimate   =     -31.50641599 Ry
     estimated scf accuracy    <       0.93497310 Ry

     iteration # 23     ecut=    30.00 Ry     beta=0.70
     Davidson diagonalization with overlap
     ethr =  1.00E-02,  avg # of iterations =  6.0

     negative rho (up, down):  3.783E-03 0.000E+00

     total cpu time spent up to now is        2.8 secs

     total energy              =     -35.42283742 Ry
     Harris-Foulkes estimate   =     -41.72189878 Ry
     estimated scf accuracy    <      17.74612157 Ry

     iteration # 24     ecut=    30.00 Ry     beta=0.70
     Davidson diagonalization with overlap
     ethr =  1.00E-02,  avg # of iterations =  2.0

     negative rho (up, down):  8.929E-06 0.000E+00

     total cpu time spent up to now is        2.9 secs

     total energy              =     -33.13506614 Ry
     Harris-Foulkes estimate   =     -35.63946970 Ry
     estimated scf accuracy    <       8.96130903 Ry

     iteration # 25     ecut=    30.00 Ry     beta=0.70
     Davidson diagonalization with overlap
     ethr =  1.00E-02,  avg # of iterations =  3.0

     total cpu time spent up to now is        2.9 secs

     total energy              =     -31.87698949 Ry
     Harris-Foulkes estimate   =     -33.20161901 Ry
     estimated scf accuracy    <       5.31996059 Ry

     iteration # 26     ecut=    30.00 Ry     beta=0.70
     Davidson diagonalization with overlap
     ethr =  1.00E-02,  avg # of iterations =  1.0

     negative rho (up, down):  6.415E-06 0.000E+00

     total cpu time spent up to now is        3.0 secs

     total energy              =     -31.58248563 Ry
     Harris-Foulkes estimate   =     -31.89999222 Ry
     estimated scf accuracy    <       3.26564857 Ry

     iteration # 27     ecut=    30.00 Ry     beta=0.70
     Davidson diagonalization with overlap
     ethr =  1.00E-02,  avg # of iterations =  1.0

     total cpu time spent up to now is        3.0 secs

     total energy              =     -31.37843800 Ry
     Harris-Foulkes estimate   =     -31.58775371 Ry
     estimated scf accuracy    <       2.61178729 Ry

     iteration # 28     ecut=    30.00 Ry     beta=0.70
     Davidson diagonalization with overlap
     ethr =  1.00E-02,  avg # of iterations =  5.0

     negative rho (up, down):  5.224E-01 0.000E+00

     total cpu time spent up to now is        3.1 secs

     total energy              =     -39.67118974 Ry
     Harris-Foulkes estimate   =     -31.59862028 Ry
     estimated scf accuracy    <       4.54424105 Ry

     iteration # 29     ecut=    30.00 Ry     beta=0.70
     Davidson diagonalization with overlap
     ethr =  1.00E-02,  avg # of iterations =  8.0

     negative rho (up, down):  1.833E-05 0.000E+00

     total cpu time spent up to now is        3.2 secs

     total energy              =     -28.40282376 Ry
     Harris-Foulkes estimate   =     -43.32452416 Ry
     estimated scf accuracy    <      45.01227680 Ry

     iteration # 30     ecut=    30.00 Ry     beta=0.70
     Davidson diagonalization with overlap
     ethr =  1.00E-02,  avg # of iterations =  3.0

     total cpu time spent up to now is        3.2 secs

     total energy              =     -30.18216062 Ry
     Harris-Foulkes estimate   =     -32.17604907 Ry
     estimated scf accuracy    <      13.13079379 Ry

     iteration # 31     ecut=    30.00 Ry     beta=0.70
     Davidson diagonalization with overlap
     ethr =  1.00E-02,  avg # of iterations =  6.0

     total cpu time spent up to now is        3.3 secs

     total energy              =     -31.39029727 Ry
     Harris-Foulkes estimate   =     -31.38588737 Ry
     estimated scf accuracy    <       3.74751230 Ry

     iteration # 32     ecut=    30.00 Ry     beta=0.70
     Davidson diagonalization with overlap
     ethr =  1.00E-02,  avg # of iterations =  1.0

     negative rho (up, down):  1.819E-07 0.000E+00

     total cpu time spent up to now is        3.3 secs

     total energy              =     -31.94721500 Ry
     Harris-Foulkes estimate   =     -31.39060047 Ry
     estimated scf accuracy    <       3.74655219 Ry

     iteration # 33     ecut=    30.00 Ry     beta=0.70
     Davidson diagonalization with overlap
     ethr =  1.00E-02,  avg # of iterations =  1.0

     negative rho (up, down):  2.183E-07 0.000E+00

     total cpu time spent up to now is        3.4 secs

     total energy              =     -32.13537036 Ry
     Harris-Foulkes estimate   =     -31.94983543 Ry
     estimated scf accuracy    <       4.60915578 Ry

     iteration # 34     ecut=    30.00 Ry     beta=0.70
     Davidson diagonalization with overlap
     ethr =  1.00E-02,  avg # of iterations =  1.0

     total cpu time spent up to now is        3.4 secs

     total energy              =     -31.52922075 Ry
     Harris-Foulkes estimate   =     -32.13672666 Ry
     estimated scf accuracy    <       4.92421062 Ry

     iteration # 35     ecut=    30.00 Ry     beta=0.70
     Davidson diagonalization with overlap
     ethr =  1.00E-02,  avg # of iterations =  4.0

     total cpu time spent up to now is        3.5 secs

     total energy              =     -31.60882414 Ry
     Harris-Foulkes estimate   =     -31.55659562 Ry
     estimated scf accuracy    <       4.70301321 Ry

     iteration # 36     ecut=    30.00 Ry     beta=0.70
     Davidson diagonalization with overlap
     ethr =  1.00E-02,  avg # of iterations =  1.0

     negative rho (up, down):  4.209E-02 0.000E+00

     total cpu time spent up to now is        3.5 secs

     total energy              =     -29.60595515 Ry
     Harris-Foulkes estimate   =     -31.60733919 Ry
     estimated scf accuracy    <       4.03500927 Ry

     iteration # 37     ecut=    30.00 Ry     beta=0.70
     Davidson diagonalization with overlap
     ethr =  1.00E-02,  avg # of iterations =  5.0

     negative rho (up, down):  1.346E-06 0.000E+00

     total cpu time spent up to now is        3.6 secs

     total energy              =     -32.83443370 Ry
     Harris-Foulkes estimate   =     -33.91804091 Ry
     estimated scf accuracy    <       6.47061658 Ry

     iteration # 38     ecut=    30.00 Ry     beta=0.70
     Davidson diagonalization with overlap
     ethr =  1.00E-02,  avg # of iterations =  1.0

     total cpu time spent up to now is        3.6 secs

     total energy              =     -31.73946846 Ry
     Harris-Foulkes estimate   =     -32.87087752 Ry
     estimated scf accuracy    <       4.84655981 Ry

     iteration # 39     ecut=    30.00 Ry     beta=0.70
     Davidson diagonalization with overlap
     ethr =  1.00E-02,  avg # of iterations =  1.0

     negative rho (up, down):  8.583E-04 0.000E+00

     total cpu time spent up to now is        3.7 secs

     total energy              =     -30.66601439 Ry
     Harris-Foulkes estimate   =     -31.76454303 Ry
     estimated scf accuracy    <       3.00689425 Ry

     iteration # 40     ecut=    30.00 Ry     beta=0.70
     Davidson diagonalization with overlap
     ethr =  1.00E-02,  avg # of iterations =  1.0

     negative rho (up, down):  2.142E-03 0.000E+00

     total cpu time spent up to now is        3.7 secs

     total energy              =     -31.17584163 Ry
     Harris-Foulkes estimate   =     -32.61305190 Ry
     estimated scf accuracy    <       5.26353205 Ry

     iteration # 41     ecut=    30.00 Ry     beta=0.70
     Davidson diagonalization with overlap
     ethr =  1.00E-02,  avg # of iterations =  2.0

     negative rho (up, down):  6.471E-03 0.000E+00

     total cpu time spent up to now is        3.8 secs

     total energy              =     -30.75001316 Ry
     Harris-Foulkes estimate   =     -31.69708860 Ry
     estimated scf accuracy    <       2.94307855 Ry

     iteration # 42     ecut=    30.00 Ry     beta=0.70
     Davidson diagonalization with overlap
     ethr =  1.00E-02,  avg # of iterations =  1.0

     negative rho (up, down):  4.517E-03 0.000E+00

     total cpu time spent up to now is        3.8 secs

     total energy              =     -32.28024836 Ry
     Harris-Foulkes estimate   =     -32.46430060 Ry
     estimated scf accuracy    <       5.00127770 Ry

     iteration # 43     ecut=    30.00 Ry     beta=0.70
     Davidson diagonalization with overlap
     ethr =  1.00E-02,  avg # of iterations =  1.0

     negative rho (up, down):  5.432E-03 0.000E+00

     total cpu time spent up to now is        3.9 secs

     total energy              =     -33.88041559 Ry
     Harris-Foulkes estimate   =     -32.28204959 Ry
     estimated scf accuracy    <       4.76813397 Ry

     iteration # 44     ecut=    30.00 Ry     beta=0.70
     Davidson diagonalization with overlap
     ethr =  1.00E-02,  avg # of iterations =  7.0

     total cpu time spent up to now is        3.9 secs

     total energy              =     -31.63031579 Ry
     Harris-Foulkes estimate   =     -34.21135119 Ry
     estimated scf accuracy    <      15.76995333 Ry

     iteration # 45     ecut=    30.00 Ry     beta=0.70
     Davidson diagonalization with overlap
     ethr =  1.00E-02,  avg # of iterations =  4.0

     total cpu time spent up to now is        4.0 secs

     total energy              =     -32.15989551 Ry
     Harris-Foulkes estimate   =     -32.24040080 Ry
     estimated scf accuracy    <       4.84960120 Ry

     iteration # 46     ecut=    30.00 Ry     beta=0.70
     Davidson diagonalization with overlap
     ethr =  1.00E-02,  avg # of iterations =  1.0

     total cpu time spent up to now is        4.0 secs

     total energy              =     -32.10560842 Ry
     Harris-Foulkes estimate   =     -32.16074253 Ry
     estimated scf accuracy    <       4.73030281 Ry

     iteration # 47     ecut=    30.00 Ry     beta=0.70
     Davidson diagonalization with overlap
     ethr =  1.00E-02,  avg # of iterations =  1.0

     total cpu time spent up to now is        4.1 secs

     total energy              =     -31.66375339 Ry
     Harris-Foulkes estimate   =     -32.10601414 Ry
     estimated scf accuracy    <       4.61702320 Ry

     iteration # 48     ecut=    30.00 Ry     beta=0.70
     Davidson diagonalization with overlap
     ethr =  1.00E-02,  avg # of iterations =  1.0

     negative rho (up, down):  1.075E-04 0.000E+00

     total cpu time spent up to now is        4.1 secs

     total energy              =     -31.22658908 Ry
     Harris-Foulkes estimate   =     -31.66838658 Ry
     estimated scf accuracy    <       3.90752209 Ry

     iteration # 49     ecut=    30.00 Ry     beta=0.70
     Davidson diagonalization with overlap
     ethr =  1.00E-02,  avg # of iterations =  1.0

     negative rho (up, down):  1.688E-05 0.000E+00

     total cpu time spent up to now is        4.2 secs

     total energy              =     -31.45697925 Ry
     Harris-Foulkes estimate   =     -31.45483303 Ry
     estimated scf accuracy    <       0.22687141 Ry

     iteration # 50     ecut=    30.00 Ry     beta=0.70
     Davidson diagonalization with overlap
     ethr =  2.84E-03,  avg # of iterations =  1.0

     negative rho (up, down):  5.419E-02 0.000E+00

     total cpu time spent up to now is        4.2 secs

     total energy              =     -31.63431786 Ry
     Harris-Foulkes estimate   =     -31.45830437 Ry
     estimated scf accuracy    <       0.34594556 Ry

     iteration # 51     ecut=    30.00 Ry     beta=0.70
     Davidson diagonalization with overlap
     ethr =  2.84E-03,  avg # of iterations =  5.0

     negative rho (up, down):  3.960E-03 0.000E+00

     total cpu time spent up to now is        4.3 secs

     total energy              =     -32.87992833 Ry
     Harris-Foulkes estimate   =     -33.52807000 Ry
     estimated scf accuracy    <       5.85240464 Ry

     iteration # 52     ecut=    30.00 Ry     beta=0.70
     Davidson diagonalization with overlap
     ethr =  2.84E-03,  avg # of iterations =  1.0

     total cpu time spent up to now is        4.4 secs

     total energy              =     -31.92802244 Ry
     Harris-Foulkes estimate   =     -32.88975269 Ry
     estimated scf accuracy    <       4.79670326 Ry

     iteration # 53     ecut=    30.00 Ry     beta=0.70
     Davidson diagonalization with overlap
     ethr =  2.84E-03,  avg # of iterations =  2.0

     negative rho (up, down):  1.311E-03 0.000E+00

     total cpu time spent up to now is        4.4 secs

     total energy              =     -32.12117664 Ry
     Harris-Foulkes estimate   =     -31.93801382 Ry
     estimated scf accuracy    <       3.27566467 Ry

     iteration # 54     ecut=    30.00 Ry     beta=0.70
     Davidson diagonalization with overlap
     ethr =  2.84E-03,  avg # of iterations =  1.0

     negative rho (up, down):  7.289E-05 0.000E+00

     total cpu time spent up to now is        4.5 secs

     total energy              =     -30.71482708 Ry
     Harris-Foulkes estimate   =     -32.12625915 Ry
     estimated scf accuracy    <       3.69561578 Ry

     iteration # 55     ecut=    30.00 Ry     beta=0.70
     Davidson diagonalization with overlap
     ethr =  2.84E-03,  avg # of iterations =  4.0

     negative rho (up, down):  1.212E-04 0.000E+00

     total cpu time spent up to now is        4.5 secs

     total energy              =     -32.43978283 Ry
     Harris-Foulkes estimate   =     -32.46422494 Ry
     estimated scf accuracy    <       5.01484828 Ry

     iteration # 56     ecut=    30.00 Ry     beta=0.70
     Davidson diagonalization with overlap
     ethr =  2.84E-03,  avg # of iterations =  1.0

     negative rho (up, down):  1.283E-05 0.000E+00

     total cpu time spent up to now is        4.6 secs

     total energy              =     -33.48160456 Ry
     Harris-Foulkes estimate   =     -32.44288394 Ry
     estimated scf accuracy    <       4.98150881 Ry

     iteration # 57     ecut=    30.00 Ry     beta=0.70
     Davidson diagonalization with overlap
     ethr =  2.84E-03,  avg # of iterations =  6.0

     total cpu time spent up to now is        4.6 secs

     total energy              =     -31.06284478 Ry
     Harris-Foulkes estimate   =     -33.57934334 Ry
     estimated scf accuracy    <      14.14151015 Ry

     iteration # 58     ecut=    30.00 Ry     beta=0.70
     Davidson diagonalization with overlap
     ethr =  2.84E-03,  avg # of iterations =  3.0

     total cpu time spent up to now is        4.7 secs

     total energy              =     -30.83354475 Ry
     Harris-Foulkes estimate   =     -31.84788875 Ry
     estimated scf accuracy    <       4.10633298 Ry

     iteration # 59     ecut=    30.00 Ry     beta=0.70
     Davidson diagonalization with overlap
     ethr =  2.84E-03,  avg # of iterations =  2.0

     total cpu time spent up to now is        4.7 secs

     total energy              =     -31.94334107 Ry
     Harris-Foulkes estimate   =     -32.06787367 Ry
     estimated scf accuracy    <       3.47602218 Ry

     iteration # 60     ecut=    30.00 Ry     beta=0.70
     Davidson diagonalization with overlap
     ethr =  2.84E-03,  avg # of iterations =  1.0

     total cpu time spent up to now is        4.8 secs

     total energy              =     -31.60986558 Ry
     Harris-Foulkes estimate   =     -31.94371095 Ry
     estimated scf accuracy    <       3.28847582 Ry

     iteration # 61     ecut=    30.00 Ry     beta=0.70
     Davidson diagonalization with overlap
     ethr =  2.84E-03,  avg # of iterations =  1.0

     total cpu time spent up to now is        4.8 secs

     total energy              =     -31.42396519 Ry
     Harris-Foulkes estimate   =     -31.61405184 Ry
     estimated scf accuracy    <       2.69832400 Ry

     iteration # 62     ecut=    30.00 Ry     beta=0.70
     Davidson diagonalization with overlap
     ethr =  2.84E-03,  avg # of iterations =  1.0

     total cpu time spent up to now is        4.9 secs

     total energy              =     -31.62823122 Ry
     Harris-Foulkes estimate   =     -31.51059227 Ry
     estimated scf accuracy    <       1.56543536 Ry

     iteration # 63     ecut=    30.00 Ry     beta=0.70
     Davidson diagonalization with overlap
     ethr =  2.84E-03,  avg # of iterations =  1.0

     total cpu time spent up to now is        4.9 secs

     total energy              =     -31.66388463 Ry
     Harris-Foulkes estimate   =     -31.69028657 Ry
     estimated scf accuracy    <       3.79601378 Ry

     iteration # 64     ecut=    30.00 Ry     beta=0.70
     Davidson diagonalization with overlap
     ethr =  2.84E-03,  avg # of iterations =  1.0

     total cpu time spent up to now is        5.0 secs

     total energy              =     -31.57730161 Ry
     Harris-Foulkes estimate   =     -31.66394312 Ry
     estimated scf accuracy    <       3.75548457 Ry

     iteration # 65     ecut=    30.00 Ry     beta=0.70
     Davidson diagonalization with overlap
     ethr =  2.84E-03,  avg # of iterations =  1.0

     total cpu time spent up to now is        5.0 secs

     total energy              =     -31.65897108 Ry
     Harris-Foulkes estimate   =     -31.57458554 Ry
     estimated scf accuracy    <       4.47614630 Ry

     iteration # 66     ecut=    30.00 Ry     beta=0.70
     Davidson diagonalization with overlap
     ethr =  2.84E-03,  avg # of iterations =  1.0

     negative rho (up, down):  4.353E-05 0.000E+00

     total cpu time spent up to now is        5.1 secs

     total energy              =     -30.49694474 Ry
     Harris-Foulkes estimate   =     -31.65366523 Ry
     estimated scf accuracy    <       3.74224193 Ry

     iteration # 67     ecut=    30.00 Ry     beta=0.70
     Davidson diagonalization with overlap
     ethr =  2.84E-03,  avg # of iterations =  3.0

     negative rho (up, down):  6.223E-04 0.000E+00

     total cpu time spent up to now is        5.1 secs

     total energy              =     -32.71510122 Ry
     Harris-Foulkes estimate   =     -32.49541367 Ry
     estimated scf accuracy    <       4.24585341 Ry

     iteration # 68     ecut=    30.00 Ry     beta=0.70
     Davidson diagonalization with overlap
     ethr =  2.84E-03,  avg # of iterations =  1.0

     negative rho (up, down):  1.233E-03 0.000E+00

     total cpu time spent up to now is        5.2 secs

     total energy              =     -32.90769847 Ry
     Harris-Foulkes estimate   =     -32.72816020 Ry
     estimated scf accuracy    <       4.57714630 Ry

     iteration # 69     ecut=    30.00 Ry     beta=0.70
     Davidson diagonalization with overlap
     ethr =  2.84E-03,  avg # of iterations =  1.0

     negative rho (up, down):  2.047E-02 0.000E+00

     total cpu time spent up to now is        5.2 secs

     total energy              =     -33.96504792 Ry
     Harris-Foulkes estimate   =     -32.90824439 Ry
     estimated scf accuracy    <       4.85186592 Ry

     iteration # 70     ecut=    30.00 Ry     beta=0.70
     Davidson diagonalization with overlap
     ethr =  2.84E-03,  avg # of iterations =  1.0

     negative rho (up, down):  1.893E-03 0.000E+00

     total cpu time spent up to now is        5.3 secs

     total energy              =     -32.66578858 Ry
     Harris-Foulkes estimate   =     -33.97691873 Ry
     estimated scf accuracy    <       6.37693454 Ry

     iteration # 71     ecut=    30.00 Ry     beta=0.70
     Davidson diagonalization with overlap
     ethr =  2.84E-03,  avg # of iterations =  2.0

     negative rho (up, down):  6.362E-06 0.000E+00

     total cpu time spent up to now is        5.3 secs

     total energy              =     -30.03747519 Ry
     Harris-Foulkes estimate   =     -32.69253246 Ry
     estimated scf accuracy    <       4.41026674 Ry

     iteration # 72     ecut=    30.00 Ry     beta=0.70
     Davidson diagonalization with overlap
     ethr =  2.84E-03,  avg # of iterations =  6.0

     total cpu time spent up to now is        5.4 secs

     total energy              =     -31.50887022 Ry
     Harris-Foulkes estimate   =     -33.95348626 Ry
     estimated scf accuracy    <      15.31023547 Ry

     iteration # 73     ecut=    30.00 Ry     beta=0.70
     Davidson diagonalization with overlap
     ethr =  2.84E-03,  avg # of iterations =  3.0

     total cpu time spent up to now is        5.5 secs

     total energy              =     -31.91491725 Ry
     Harris-Foulkes estimate   =     -32.15252007 Ry
     estimated scf accuracy    <       4.58426508 Ry

     iteration # 74     ecut=    30.00 Ry     beta=0.70
     Davidson diagonalization with overlap
     ethr =  2.84E-03,  avg # of iterations =  1.0

     total cpu time spent up to now is        5.5 secs

     total energy              =     -32.41665772 Ry
     Harris-Foulkes estimate   =     -31.91728088 Ry
     estimated scf accuracy    <       4.19444306 Ry

     iteration # 75     ecut=    30.00 Ry     beta=0.70
     Davidson diagonalization with overlap
     ethr =  2.84E-03,  avg # of iterations =  1.0

     total cpu time spent up to now is        5.6 secs

     total energy              =     -33.67644275 Ry
     Harris-Foulkes estimate   =     -32.42180748 Ry
     estimated scf accuracy    <       4.98780089 Ry

     iteration # 76     ecut=    30.00 Ry     beta=0.70
     Davidson diagonalization with overlap
     ethr =  2.84E-03,  avg # of iterations =  8.0

     negative rho (up, down):  3.221E-04 0.000E+00

     total cpu time spent up to now is        5.6 secs

     total energy              =     -34.54527638 Ry
     Harris-Foulkes estimate   =     -33.89652863 Ry
     estimated scf accuracy    <      15.21185896 Ry

     iteration # 77     ecut=    30.00 Ry     beta=0.70
     Davidson diagonalization with overlap
     ethr =  2.84E-03,  avg # of iterations =  1.0

     negative rho (up, down):  2.465E-03 0.000E+00

     total cpu time spent up to now is        5.7 secs

     total energy              =     -33.09295216 Ry
     Harris-Foulkes estimate   =     -34.55198318 Ry
     estimated scf accuracy    <      16.22171634 Ry

     iteration # 78     ecut=    30.00 Ry     beta=0.70
     Davidson diagonalization with overlap
     ethr =  2.84E-03,  avg # of iterations =  3.0

     negative rho (up, down):  2.570E-03 0.000E+00

     total cpu time spent up to now is        5.7 secs

     total energy              =     -30.74413811 Ry
     Harris-Foulkes estimate   =     -33.17175929 Ry
     estimated scf accuracy    <       6.97661361 Ry

     iteration # 79     ecut=    30.00 Ry     beta=0.70
     Davidson diagonalization with overlap
     ethr =  2.84E-03,  avg # of iterations =  5.0

     negative rho (up, down):  3.584E-04 0.000E+00

     total cpu time spent up to now is        5.8 secs

     total energy              =     -31.66612139 Ry
     Harris-Foulkes estimate   =     -31.90313470 Ry
     estimated scf accuracy    <       3.21432243 Ry

     iteration # 80     ecut=    30.00 Ry     beta=0.70
     Davidson diagonalization with overlap
     ethr =  2.84E-03,  avg # of iterations =  1.0

     negative rho (up, down):  1.224E-04 0.000E+00

     total cpu time spent up to now is        5.8 secs

     total energy              =     -31.60623185 Ry
     Harris-Foulkes estimate   =     -31.66793727 Ry
     estimated scf accuracy    <       2.84054229 Ry

     iteration # 81     ecut=    30.00 Ry     beta=0.70
     Davidson diagonalization with overlap
     ethr =  2.84E-03,  avg # of iterations =  1.0

     negative rho (up, down):  1.922E-05 0.000E+00

     total cpu time spent up to now is        5.9 secs

     total energy              =     -31.39251599 Ry
     Harris-Foulkes estimate   =     -31.60675831 Ry
     estimated scf accuracy    <       2.69643719 Ry

     iteration # 82     ecut=    30.00 Ry     beta=0.70
     Davidson diagonalization with overlap
     ethr =  2.84E-03,  avg # of iterations =  1.0

     negative rho (up, down):  6.386E-06 0.000E+00

     total cpu time spent up to now is        5.9 secs

     total energy              =     -31.63997989 Ry
     Harris-Foulkes estimate   =     -31.54374330 Ry
     estimated scf accuracy    <       3.84338189 Ry

     iteration # 83     ecut=    30.00 Ry     beta=0.70
     Davidson diagonalization with overlap
     ethr =  2.84E-03,  avg # of iterations =  1.0

     negative rho (up, down):  5.604E-05 0.000E+00

     total cpu time spent up to now is        6.0 secs

     total energy              =     -31.52632936 Ry
     Harris-Foulkes estimate   =     -31.64212777 Ry
     estimated scf accuracy    <       3.73347664 Ry

     iteration # 84     ecut=    30.00 Ry     beta=0.70
     Davidson diagonalization with overlap
     ethr =  2.84E-03,  avg # of iterations =  1.0

     negative rho (up, down):  3.182E-04 0.000E+00

     total cpu time spent up to now is        6.0 secs

     total energy              =     -31.29734219 Ry
     Harris-Foulkes estimate   =     -31.52215620 Ry
     estimated scf accuracy    <       2.58591273 Ry

     iteration # 85     ecut=    30.00 Ry     beta=0.70
     Davidson diagonalization with overlap
     ethr =  2.84E-03,  avg # of iterations =  1.0

     negative rho (up, down):  1.923E-04 0.000E+00

     total cpu time spent up to now is        6.1 secs

     total energy              =     -31.49483499 Ry
     Harris-Foulkes estimate   =     -31.64358172 Ry
     estimated scf accuracy    <       2.77123587 Ry

     iteration # 86     ecut=    30.00 Ry     beta=0.70
     Davidson diagonalization with overlap
     ethr =  2.84E-03,  avg # of iterations =  1.0

     negative rho (up, down):  1.027E-03 0.000E+00

     total cpu time spent up to now is        6.1 secs

     total energy              =     -31.48947894 Ry
     Harris-Foulkes estimate   =     -31.50560597 Ry
     estimated scf accuracy    <       0.87248743 Ry

     iteration # 87     ecut=    30.00 Ry     beta=0.70
     Davidson diagonalization with overlap
     ethr =  2.84E-03,  avg # of iterations =  1.0

     negative rho (up, down):  2.489E-05 0.000E+00

     total cpu time spent up to now is        6.2 secs

     total energy              =     -31.49601700 Ry
     Harris-Foulkes estimate   =     -31.50095080 Ry
     estimated scf accuracy    <       0.23371151 Ry

     iteration # 88     ecut=    30.00 Ry     beta=0.70
     Davidson diagonalization with overlap
     ethr =  2.84E-03,  avg # of iterations =  1.0

     negative rho (up, down):  5.491E-04 0.000E+00

     total cpu time spent up to now is        6.2 secs

     total energy              =     -32.14072075 Ry
     Harris-Foulkes estimate   =     -32.07698534 Ry
     estimated scf accuracy    <       4.40606704 Ry

     iteration # 89     ecut=    30.00 Ry     beta=0.70
     Davidson diagonalization with overlap
     ethr =  2.84E-03,  avg # of iterations =  1.0

     negative rho (up, down):  1.754E-03 0.000E+00

     total cpu time spent up to now is        6.3 secs

     total energy              =     -32.13439749 Ry
     Harris-Foulkes estimate   =     -32.14141250 Ry
     estimated scf accuracy    <       4.50146180 Ry

     iteration # 90     ecut=    30.00 Ry     beta=0.70
     Davidson diagonalization with overlap
     ethr =  2.84E-03,  avg # of iterations =  1.0

     negative rho (up, down):  3.026E-03 0.000E+00

     total cpu time spent up to now is        6.4 secs

     total energy              =     -31.95314525 Ry
     Harris-Foulkes estimate   =     -32.13455736 Ry
     estimated scf accuracy    <       4.50600895 Ry

     iteration # 91     ecut=    30.00 Ry     beta=0.70
     Davidson diagonalization with overlap
     ethr =  2.84E-03,  avg # of iterations =  1.0

     negative rho (up, down):  2.133E-03 0.000E+00

     total cpu time spent up to now is        6.4 secs

     total energy              =     -31.86656988 Ry
     Harris-Foulkes estimate   =     -31.95390928 Ry
     estimated scf accuracy    <       4.22020723 Ry

     iteration # 92     ecut=    30.00 Ry     beta=0.70
     Davidson diagonalization with overlap
     ethr =  2.84E-03,  avg # of iterations =  1.0

     negative rho (up, down):  1.729E-06 0.000E+00

     total cpu time spent up to now is        6.5 secs

     total energy              =     -31.42102110 Ry
     Harris-Foulkes estimate   =     -31.86687592 Ry
     estimated scf accuracy    <       4.07223668 Ry

     iteration # 93     ecut=    30.00 Ry     beta=0.70
     Davidson diagonalization with overlap
     ethr =  2.84E-03,  avg # of iterations =  1.0

     negative rho (up, down):  4.952E-07 0.000E+00

     total cpu time spent up to now is        6.5 secs

     total energy              =     -31.49850372 Ry
     Harris-Foulkes estimate   =     -31.50666064 Ry
     estimated scf accuracy    <       0.86938061 Ry

     iteration # 94     ecut=    30.00 Ry     beta=0.70
     Davidson diagonalization with overlap
     ethr =  2.84E-03,  avg # of iterations =  1.0

     negative rho (up, down):  3.622E-08 0.000E+00

     total cpu time spent up to now is        6.6 secs

     total energy              =     -31.42919454 Ry
     Harris-Foulkes estimate   =     -31.50000893 Ry
     estimated scf accuracy    <       0.39392503 Ry

     iteration # 95     ecut=    30.00 Ry     beta=0.70
     Davidson diagonalization with overlap
     ethr =  2.84E-03,  avg # of iterations =  1.0

     total cpu time spent up to now is        6.6 secs

     total energy              =     -31.64282921 Ry
     Harris-Foulkes estimate   =     -31.66698281 Ry
     estimated scf accuracy    <       3.70838977 Ry

     iteration # 96     ecut=    30.00 Ry     beta=0.70
     Davidson diagonalization with overlap
     ethr =  2.84E-03,  avg # of iterations =  1.0

     negative rho (up, down):  2.564E-04 0.000E+00

     total cpu time spent up to now is        6.7 secs

     total energy              =     -31.21786886 Ry
     Harris-Foulkes estimate   =     -31.64283881 Ry
     estimated scf accuracy    <       3.70538768 Ry

     iteration # 97     ecut=    30.00 Ry     beta=0.70
     Davidson diagonalization with overlap
     ethr =  2.84E-03,  avg # of iterations =  1.0

     negative rho (up, down):  6.831E-07 0.000E+00

     total cpu time spent up to now is        6.8 secs

     total energy              =     -31.84581421 Ry
     Harris-Foulkes estimate   =     -31.68547590 Ry
     estimated scf accuracy    <       2.90204235 Ry

     iteration # 98     ecut=    30.00 Ry     beta=0.70
     Davidson diagonalization with overlap
     ethr =  2.84E-03,  avg # of iterations =  1.0

     negative rho (up, down):  1.601E-06 0.000E+00

     total cpu time spent up to now is        6.9 secs

     total energy              =     -31.84068897 Ry
     Harris-Foulkes estimate   =     -31.84685303 Ry
     estimated scf accuracy    <       3.16303263 Ry

     iteration # 99     ecut=    30.00 Ry     beta=0.70
     Davidson diagonalization with overlap
     ethr =  2.84E-03,  avg # of iterations =  1.0

     negative rho (up, down):  2.754E-06 0.000E+00

     total cpu time spent up to now is        6.9 secs

     total energy              =     -31.85983581 Ry
     Harris-Foulkes estimate   =     -31.84071276 Ry
     estimated scf accuracy    <       3.15445585 Ry

     iteration #100     ecut=    30.00 Ry     beta=0.70
     Davidson diagonalization with overlap
     ethr =  2.84E-03,  avg # of iterations =  1.0

     negative rho (up, down):  1.097E-05 0.000E+00

     total cpu time spent up to now is        7.0 secs

     total energy              =     -31.90619336 Ry
     Harris-Foulkes estimate   =     -31.85984792 Ry
     estimated scf accuracy    <       3.18151419 Ry

     End of self-consistent calculation

     convergence NOT achieved after 100 iterations: stopping

     Writing output data file pwscf.save
 
     init_run     :      0.17s CPU      0.19s WALL (       1 calls)
     electrons    :      5.35s CPU      6.39s WALL (       2 calls)
     update_pot   :      0.12s CPU      0.16s WALL (       1 calls)
     forces       :      0.04s CPU      0.04s WALL (       1 calls)

     Called by init_run:
     wfcinit      :      0.01s CPU      0.02s WALL (       1 calls)
     potinit      :      0.05s CPU      0.05s WALL (       1 calls)

     Called by electrons:
     c_bands      :      2.43s CPU      2.54s WALL (     111 calls)
     sum_band     :      0.59s CPU      0.62s WALL (     111 calls)
     v_of_rho     :      1.37s CPU      1.41s WALL (     113 calls)
     mix_rho      :      0.82s CPU      1.53s WALL (     111 calls)

     Called by c_bands:
     init_us_2    :      0.02s CPU      0.02s WALL (     223 calls)
     cegterg      :      2.40s CPU      2.48s WALL (     111 calls)

     Called by sum_band:

     Called by *egterg:
     h_psi        :      2.08s CPU      2.14s WALL (     388 calls)
     g_psi        :      0.02s CPU      0.02s WALL (     276 calls)
     cdiaghg      :      0.12s CPU      0.12s WALL (     386 calls)

     Called by h_psi:
     h_psi:pot    :      2.07s CPU      2.13s WALL (     388 calls)
     h_psi:calbec :      0.03s CPU      0.03s WALL (     388 calls)
     vloc_psi     :      2.03s CPU      2.09s WALL (     388 calls)
     add_vuspsi   :      0.01s CPU      0.01s WALL (     388 calls)

     General routines
     calbec       :      0.03s CPU      0.03s WALL (     392 calls)
     fft          :      0.79s CPU      0.83s WALL (    1245 calls)
     fftw         :      2.24s CPU      2.30s WALL (    5310 calls)
     davcio       :      0.14s CPU      0.61s WALL (    2056 calls)
 
     Parallel routines
     fft_scatter  :      1.01s CPU      1.08s WALL (    6555 calls)
 
     PWSCF        :     5.87s CPU         7.08s WALL

 
   This run was terminated on:  16:12:53  13Feb2018            

=------------------------------------------------------------------------------=
   JOB DONE.
=------------------------------------------------------------------------------=
