
     Program PWSCF v.6.0 (svn rev. 13079) starts on 13Feb2018 at 13:17:46 

     This program is part of the open-source Quantum ESPRESSO suite
     for quantum simulation of materials; please cite
         "P. Giannozzi et al., J. Phys.:Condens. Matter 21 395502 (2009);
          URL http://www.quantum-espresso.org", 
     in publications or presentations arising from this work. More details at
     http://www.quantum-espresso.org/quote

     Parallel version (MPI), running on    28 processors
     R & G space division:  proc/nbgrp/npool/nimage =      28
     Reading input from inputs/MD-H2O-round1/62.in

     Current dimensions of program PWSCF are:
     Max number of different atomic species (ntypx) = 10
     Max number of k-points (npk) =  40000
     Max angular momentum in pseudopotentials (lmaxx) =  3

     Subspace diagonalization in iterative solution of the eigenvalue problem:
     a serial algorithm will be used

 
     Parallelization info
     --------------------
     sticks:   dense  smooth     PW     G-vecs:    dense   smooth      PW
     Min         136     136     33                 6338     6338     787
     Max         137     137     34                 6341     6341     792
     Sum        3809    3809    949               177509   177509   22119
 


     bravais-lattice index     =            1
     lattice parameter (alat)  =      20.0000  a.u.
     unit-cell volume          =    8000.0000 (a.u.)^3
     number of atoms/cell      =            3
     number of atomic types    =            2
     number of electrons       =         8.00
     number of Kohn-Sham states=            8
     kinetic-energy cutoff     =      30.0000  Ry
     charge density cutoff     =     120.0000  Ry
     convergence threshold     =      1.0E-08
     mixing beta               =       0.7000
     number of iterations used =            8  plain     mixing
     Exchange-correlation      = BLYP ( 1  3  1  3 0 0)
     nstep                     =         5000


     celldm(1)=  20.000000  celldm(2)=   0.000000  celldm(3)=   0.000000
     celldm(4)=   0.000000  celldm(5)=   0.000000  celldm(6)=   0.000000

     crystal axes: (cart. coord. in units of alat)
               a(1) = (   1.000000   0.000000   0.000000 )  
               a(2) = (   0.000000   1.000000   0.000000 )  
               a(3) = (   0.000000   0.000000   1.000000 )  

     reciprocal axes: (cart. coord. in units 2 pi/alat)
               b(1) = (  1.000000  0.000000  0.000000 )  
               b(2) = (  0.000000  1.000000  0.000000 )  
               b(3) = (  0.000000  0.000000  1.000000 )  


     PseudoPot. # 1 for  H read from file:
     ./H.blyp-hgh.UPF
     MD5 check sum: c576e69559cde411e611be972c763230
     Pseudo is Norm-conserving, Zval =  1.0
     Generated in analytical, separable form
     Using radial grid of  929 points,  0 beta functions with: 

     PseudoPot. # 2 for  O read from file:
     ./O.blyp-hgh.UPF
     MD5 check sum: d0b7156309aa9befef28faac7bc56342
     Pseudo is Norm-conserving, Zval =  6.0
     Generated in analytical, separable form
     Using radial grid of 1095 points,  1 beta functions with: 
                l(1) =   0

     atomic species   valence    mass     pseudopotential
        H              1.00     1.01000      H( 1.00)
        O              6.00    16.00000      O( 1.00)

     No symmetry found



   Cartesian axes

     site n.     atom                  positions (alat units)
         1           O   tau(   1) = (   0.6269223   0.0523232   0.8986825  )
         2           H   tau(   2) = (   0.1629176   0.2740279   1.0809127  )
         3           H   tau(   3) = (   0.1676487   0.3116967   0.1129811  )

     number of k points=     1  Marzari-Vanderbilt smearing, width (Ry)=  0.0250
                       cart. coord. in units 2pi/alat
        k(    1) = (   0.0000000   0.0000000   0.0000000), wk =   2.0000000

     Dense  grid:   177509 G-vectors     FFT dimensions: (  72,  72,  72)

     Estimated max dynamical RAM per process >       6.09Mb

     Estimated total allocated dynamical RAM >     170.64Mb

     Initial potential from superposition of free atoms
     Check: negative starting charge=   -0.364159

     starting charge    7.99998, renormalised to    8.00000

     negative rho (up, down):  3.642E-01 0.000E+00
     Starting wfc are    6 randomized atomic wfcs +    2 random wfc

     total cpu time spent up to now is        0.3 secs

     per-process dynamical memory:    18.8 Mb

     Self-consistent Calculation

     iteration #  1     ecut=    30.00 Ry     beta=0.70
     Davidson diagonalization with overlap
     ethr =  1.00E-02,  avg # of iterations =  5.0

     negative rho (up, down):  9.532E-02 0.000E+00

     total cpu time spent up to now is        0.4 secs

     total energy              =     -31.51013569 Ry
     Harris-Foulkes estimate   =     -32.31311999 Ry
     estimated scf accuracy    <       0.85121590 Ry

     iteration #  2     ecut=    30.00 Ry     beta=0.70
     Davidson diagonalization with overlap
     ethr =  1.00E-02,  avg # of iterations =  2.0

     negative rho (up, down):  4.169E-02 0.000E+00

     total cpu time spent up to now is        0.5 secs

     total energy              =     -31.75933386 Ry
     Harris-Foulkes estimate   =     -31.79094729 Ry
     estimated scf accuracy    <       0.11827133 Ry

     iteration #  3     ecut=    30.00 Ry     beta=0.70
     Davidson diagonalization with overlap
     ethr =  1.48E-03,  avg # of iterations =  3.0

     negative rho (up, down):  1.689E-02 0.000E+00

     total cpu time spent up to now is        0.5 secs

     total energy              =     -31.80014750 Ry
     Harris-Foulkes estimate   =     -31.77951850 Ry
     estimated scf accuracy    <       0.01334590 Ry

     iteration #  4     ecut=    30.00 Ry     beta=0.70
     Davidson diagonalization with overlap
     ethr =  1.67E-04,  avg # of iterations =  3.0

     negative rho (up, down):  5.349E-03 0.000E+00

     total cpu time spent up to now is        0.6 secs

     total energy              =     -31.81192046 Ry
     Harris-Foulkes estimate   =     -31.80409946 Ry
     estimated scf accuracy    <       0.01879256 Ry

     iteration #  5     ecut=    30.00 Ry     beta=0.70
     Davidson diagonalization with overlap
     ethr =  1.67E-04,  avg # of iterations =  1.0

     negative rho (up, down):  6.977E-05 0.000E+00

     total cpu time spent up to now is        0.7 secs

     total energy              =     -31.81714408 Ry
     Harris-Foulkes estimate   =     -31.81328525 Ry
     estimated scf accuracy    <       0.00012134 Ry

     iteration #  6     ecut=    30.00 Ry     beta=0.70
     Davidson diagonalization with overlap
     c_bands:  1 eigenvalues not converged
     ethr =  1.52E-06,  avg # of iterations = 20.0

     negative rho (up, down):  2.599E-05 0.000E+00

     total cpu time spent up to now is        0.8 secs

     total energy              =     -31.81716676 Ry
     Harris-Foulkes estimate   =     -31.81716484 Ry
     estimated scf accuracy    <       0.00001860 Ry

     iteration #  7     ecut=    30.00 Ry     beta=0.70
     Davidson diagonalization with overlap
     ethr =  2.32E-07,  avg # of iterations = 12.0

     total cpu time spent up to now is        0.8 secs

     total energy              =     -31.81717854 Ry
     Harris-Foulkes estimate   =     -31.81716825 Ry
     estimated scf accuracy    <       0.00000021 Ry

     iteration #  8     ecut=    30.00 Ry     beta=0.70
     Davidson diagonalization with overlap
     ethr =  2.57E-09,  avg # of iterations =  2.0

     total cpu time spent up to now is        0.9 secs

     total energy              =     -31.81717893 Ry
     Harris-Foulkes estimate   =     -31.81717865 Ry
     estimated scf accuracy    <       0.00000001 Ry

     iteration #  9     ecut=    30.00 Ry     beta=0.70
     Davidson diagonalization with overlap
     ethr =  1.39E-10,  avg # of iterations =  2.0

     total cpu time spent up to now is        0.9 secs

     End of self-consistent calculation

          k = 0.0000 0.0000 0.0000 ( 22119 PWs)   bands (ev):

   -25.1052 -11.3636  -8.4085  -8.4082  -8.4079  -0.3661   0.6819   0.9195

     the Fermi energy is    -8.2852 ev

!    total energy              =     -31.81717889 Ry
     Harris-Foulkes estimate   =     -31.81717893 Ry
     estimated scf accuracy    <          2.6E-09 Ry

     convergence has been achieved in   9 iterations

     Forces acting on atoms (Ry/au):

     atom    1 type  2   force =     0.00068572   -0.00092555   -0.00106297
     atom    2 type  1   force =    -0.06638688   -0.52601905   -0.44767618
     atom    3 type  1   force =     0.06570116    0.52694460    0.44873915

     Total force =     0.982280     Total SCF correction =     0.000164

     Molecular Dynamics Calculation

     Starting temperature  =  1000.00 K

     temperature is controlled by Andersen thermostat
     Collision frequency = 1.0000/timestep
     mass H                =     1.01
     mass O                =    16.00
     Time step             =   100.00 a.u.,  4.8378 femto-seconds

     Entering Dynamics:    iteration =     1
                           time      =   0.0048 pico-seconds


     Andersen thermostat:    3 collisions

ATOMIC_POSITIONS (bohr)
O       12.526171890   1.038716353  17.951553292
H        2.899305386   2.803945955  19.089372900
H        3.906461964   9.033281048   5.138534124


     kinetic energy (Ekin) =     0.01337019 Ry
     temperature           =   703.66124461 K 
     Ekin + Etot (const)   =   -31.80380870 Ry

     Linear momentum :   -0.0000000000   -0.0000000000    0.0000000000

     Writing output data file pwscf.save
     Check: negative starting charge=   -0.364159
     NEW-OLD atomic charge density approx. for the potential
     Check: negative starting charge=   -0.349688

     negative rho (up, down):  2.892E-01 0.000E+00

     total cpu time spent up to now is        1.3 secs

     per-process dynamical memory:    20.4 Mb

     Self-consistent Calculation

     iteration #  1     ecut=    30.00 Ry     beta=0.70
     Davidson diagonalization with overlap
     ethr =  1.00E-06,  avg # of iterations = 11.0

     negative rho (up, down):  8.443E-02 0.000E+00

     total cpu time spent up to now is        1.5 secs

     total energy              =     -29.22671598 Ry
     Harris-Foulkes estimate   =     -31.79063252 Ry
     estimated scf accuracy    <       3.23362748 Ry

     iteration #  2     ecut=    30.00 Ry     beta=0.70
     Davidson diagonalization with overlap
     ethr =  1.00E-02,  avg # of iterations =  4.0

     negative rho (up, down):  2.106E-02 0.000E+00

     total cpu time spent up to now is        1.5 secs

     total energy              =     -31.66428567 Ry
     Harris-Foulkes estimate   =     -38.40518617 Ry
     estimated scf accuracy    <      21.34710237 Ry

     iteration #  3     ecut=    30.00 Ry     beta=0.70
     Davidson diagonalization with overlap
     ethr =  1.00E-02,  avg # of iterations =  2.0

     negative rho (up, down):  2.225E-02 0.000E+00

     total cpu time spent up to now is        1.6 secs

     total energy              =     -29.91459411 Ry
     Harris-Foulkes estimate   =     -31.83608813 Ry
     estimated scf accuracy    <      12.29059161 Ry

     iteration #  4     ecut=    30.00 Ry     beta=0.70
     Davidson diagonalization with overlap
     ethr =  1.00E-02,  avg # of iterations =  1.0

     negative rho (up, down):  1.408E-01 0.000E+00

     total cpu time spent up to now is        1.7 secs

     total energy              =     -27.62131540 Ry
     Harris-Foulkes estimate   =     -29.93879033 Ry
     estimated scf accuracy    <       9.72286821 Ry

     iteration #  5     ecut=    30.00 Ry     beta=0.70
     Davidson diagonalization with overlap
     ethr =  1.00E-02,  avg # of iterations =  5.0

     negative rho (up, down):  1.818E-01 0.000E+00

     total cpu time spent up to now is        1.7 secs

     total energy              =     -29.59309745 Ry
     Harris-Foulkes estimate   =     -30.10813674 Ry
     estimated scf accuracy    <       2.07141103 Ry

     iteration #  6     ecut=    30.00 Ry     beta=0.70
     Davidson diagonalization with overlap
     ethr =  1.00E-02,  avg # of iterations =  6.0

     negative rho (up, down):  1.588E-01 0.000E+00

     total cpu time spent up to now is        1.8 secs

     total energy              =     -31.93468402 Ry
     Harris-Foulkes estimate   =     -32.06401513 Ry
     estimated scf accuracy    <       1.42575606 Ry

     iteration #  7     ecut=    30.00 Ry     beta=0.70
     Davidson diagonalization with overlap
     ethr =  1.00E-02,  avg # of iterations =  4.0

     negative rho (up, down):  1.561E-01 0.000E+00

     total cpu time spent up to now is        1.8 secs

     total energy              =     -34.46090284 Ry
     Harris-Foulkes estimate   =     -34.17794788 Ry
     estimated scf accuracy    <       7.38792715 Ry

     iteration #  8     ecut=    30.00 Ry     beta=0.70
     Davidson diagonalization with overlap
     ethr =  1.00E-02,  avg # of iterations =  1.0

     negative rho (up, down):  7.522E-02 0.000E+00

     total cpu time spent up to now is        1.9 secs

     total energy              =     -34.26719776 Ry
     Harris-Foulkes estimate   =     -34.46328921 Ry
     estimated scf accuracy    <       7.71206438 Ry

     iteration #  9     ecut=    30.00 Ry     beta=0.70
     Davidson diagonalization with overlap
     ethr =  1.00E-02,  avg # of iterations =  1.0

     negative rho (up, down):  8.980E-03 0.000E+00

     total cpu time spent up to now is        1.9 secs

     total energy              =     -33.42887805 Ry
     Harris-Foulkes estimate   =     -34.26916834 Ry
     estimated scf accuracy    <       7.35791574 Ry

     iteration # 10     ecut=    30.00 Ry     beta=0.70
     Davidson diagonalization with overlap
     ethr =  1.00E-02,  avg # of iterations =  1.0

     total cpu time spent up to now is        2.0 secs

     total energy              =     -32.43577200 Ry
     Harris-Foulkes estimate   =     -33.45165543 Ry
     estimated scf accuracy    <       6.03182170 Ry

     iteration # 11     ecut=    30.00 Ry     beta=0.70
     Davidson diagonalization with overlap
     ethr =  1.00E-02,  avg # of iterations =  1.0

     negative rho (up, down):  1.526E-05 0.000E+00

     total cpu time spent up to now is        2.0 secs

     total energy              =     -33.33307007 Ry
     Harris-Foulkes estimate   =     -32.45832112 Ry
     estimated scf accuracy    <       4.41090248 Ry

     iteration # 12     ecut=    30.00 Ry     beta=0.70
     Davidson diagonalization with overlap
     ethr =  1.00E-02,  avg # of iterations =  1.0

     total cpu time spent up to now is        2.1 secs

     total energy              =     -32.25878773 Ry
     Harris-Foulkes estimate   =     -33.34968895 Ry
     estimated scf accuracy    <       5.78842938 Ry

     iteration # 13     ecut=    30.00 Ry     beta=0.70
     Davidson diagonalization with overlap
     ethr =  1.00E-02,  avg # of iterations =  1.0

     negative rho (up, down):  2.456E-02 0.000E+00

     total cpu time spent up to now is        2.1 secs

     total energy              =     -30.16211728 Ry
     Harris-Foulkes estimate   =     -32.27146266 Ry
     estimated scf accuracy    <       4.12982574 Ry

     iteration # 14     ecut=    30.00 Ry     beta=0.70
     Davidson diagonalization with overlap
     ethr =  1.00E-02,  avg # of iterations =  3.0

     total cpu time spent up to now is        2.2 secs

     total energy              =     -33.17094091 Ry
     Harris-Foulkes estimate   =     -33.31869533 Ry
     estimated scf accuracy    <       8.06324396 Ry

     iteration # 15     ecut=    30.00 Ry     beta=0.70
     Davidson diagonalization with overlap
     ethr =  1.00E-02,  avg # of iterations =  1.0

     total cpu time spent up to now is        2.3 secs

     total energy              =     -32.95919878 Ry
     Harris-Foulkes estimate   =     -33.18407697 Ry
     estimated scf accuracy    <       6.56031380 Ry

     iteration # 16     ecut=    30.00 Ry     beta=0.70
     Davidson diagonalization with overlap
     ethr =  1.00E-02,  avg # of iterations =  1.0

     total cpu time spent up to now is        2.4 secs

     total energy              =     -32.93337591 Ry
     Harris-Foulkes estimate   =     -32.96253323 Ry
     estimated scf accuracy    <       6.08850464 Ry

     iteration # 17     ecut=    30.00 Ry     beta=0.70
     Davidson diagonalization with overlap
     ethr =  1.00E-02,  avg # of iterations =  1.0

     total cpu time spent up to now is        2.4 secs

     total energy              =     -33.08376232 Ry
     Harris-Foulkes estimate   =     -32.93364731 Ry
     estimated scf accuracy    <       6.04083082 Ry

     iteration # 18     ecut=    30.00 Ry     beta=0.70
     Davidson diagonalization with overlap
     ethr =  1.00E-02,  avg # of iterations =  1.0

     negative rho (up, down):  2.459E-05 0.000E+00

     total cpu time spent up to now is        2.5 secs

     total energy              =     -33.50808258 Ry
     Harris-Foulkes estimate   =     -33.08438715 Ry
     estimated scf accuracy    <       6.31180931 Ry

     iteration # 19     ecut=    30.00 Ry     beta=0.70
     Davidson diagonalization with overlap
     ethr =  1.00E-02,  avg # of iterations =  1.0

     negative rho (up, down):  1.168E-03 0.000E+00

     total cpu time spent up to now is        2.6 secs

     total energy              =     -31.67216043 Ry
     Harris-Foulkes estimate   =     -33.58554842 Ry
     estimated scf accuracy    <      14.31442515 Ry

     iteration # 20     ecut=    30.00 Ry     beta=0.70
     Davidson diagonalization with overlap
     ethr =  1.00E-02,  avg # of iterations =  2.0

     negative rho (up, down):  3.111E-03 0.000E+00

     total cpu time spent up to now is        2.6 secs

     total energy              =     -32.23024058 Ry
     Harris-Foulkes estimate   =     -32.23661753 Ry
     estimated scf accuracy    <       4.86215793 Ry

     iteration # 21     ecut=    30.00 Ry     beta=0.70
     Davidson diagonalization with overlap
     ethr =  1.00E-02,  avg # of iterations =  1.0

     total cpu time spent up to now is        2.7 secs

     total energy              =     -31.91974065 Ry
     Harris-Foulkes estimate   =     -32.23129095 Ry
     estimated scf accuracy    <       4.88119797 Ry

     iteration # 22     ecut=    30.00 Ry     beta=0.70
     Davidson diagonalization with overlap
     ethr =  1.00E-02,  avg # of iterations =  1.0

     negative rho (up, down):  9.165E-01 0.000E+00

     total cpu time spent up to now is        2.7 secs

     total energy              =     -29.37070498 Ry
     Harris-Foulkes estimate   =     -31.92497829 Ry
     estimated scf accuracy    <       4.33668171 Ry

     iteration # 23     ecut=    30.00 Ry     beta=0.70
     Davidson diagonalization with overlap
     ethr =  1.00E-02,  avg # of iterations =  4.0

     negative rho (up, down):  3.556E-01 0.000E+00

     total cpu time spent up to now is        2.8 secs

     total energy              =     -32.19997011 Ry
     Harris-Foulkes estimate   =     -34.55987025 Ry
     estimated scf accuracy    <       7.23307702 Ry

     iteration # 24     ecut=    30.00 Ry     beta=0.70
     Davidson diagonalization with overlap
     ethr =  1.00E-02,  avg # of iterations =  3.0

     negative rho (up, down):  5.617E-02 0.000E+00

     total cpu time spent up to now is        2.8 secs

     total energy              =     -31.70999299 Ry
     Harris-Foulkes estimate   =     -32.25870253 Ry
     estimated scf accuracy    <       3.81401434 Ry

     iteration # 25     ecut=    30.00 Ry     beta=0.70
     Davidson diagonalization with overlap
     ethr =  1.00E-02,  avg # of iterations =  1.0

     negative rho (up, down):  7.410E-05 0.000E+00

     total cpu time spent up to now is        2.9 secs

     total energy              =     -31.43100085 Ry
     Harris-Foulkes estimate   =     -31.70274447 Ry
     estimated scf accuracy    <       3.00666412 Ry

     iteration # 26     ecut=    30.00 Ry     beta=0.70
     Davidson diagonalization with overlap
     ethr =  1.00E-02,  avg # of iterations =  1.0

     total cpu time spent up to now is        2.9 secs

     total energy              =     -31.56980166 Ry
     Harris-Foulkes estimate   =     -31.49463288 Ry
     estimated scf accuracy    <       0.65686200 Ry

     iteration # 27     ecut=    30.00 Ry     beta=0.70
     Davidson diagonalization with overlap
     ethr =  8.21E-03,  avg # of iterations =  1.0

     negative rho (up, down):  1.270E-02 0.000E+00

     total cpu time spent up to now is        3.0 secs

     total energy              =     -31.31191204 Ry
     Harris-Foulkes estimate   =     -31.67320566 Ry
     estimated scf accuracy    <       3.84862374 Ry

     iteration # 28     ecut=    30.00 Ry     beta=0.70
     Davidson diagonalization with overlap
     ethr =  8.21E-03,  avg # of iterations =  1.0

     total cpu time spent up to now is        3.0 secs

     total energy              =     -31.55389806 Ry
     Harris-Foulkes estimate   =     -31.59293754 Ry
     estimated scf accuracy    <       2.81071063 Ry

     iteration # 29     ecut=    30.00 Ry     beta=0.70
     Davidson diagonalization with overlap
     ethr =  8.21E-03,  avg # of iterations =  1.0

     total cpu time spent up to now is        3.1 secs

     total energy              =     -31.51346518 Ry
     Harris-Foulkes estimate   =     -31.55419274 Ry
     estimated scf accuracy    <       2.70632215 Ry

     iteration # 30     ecut=    30.00 Ry     beta=0.70
     Davidson diagonalization with overlap
     ethr =  8.21E-03,  avg # of iterations =  1.0

     negative rho (up, down):  3.369E-07 0.000E+00

     total cpu time spent up to now is        3.1 secs

     total energy              =     -31.48111238 Ry
     Harris-Foulkes estimate   =     -31.51598438 Ry
     estimated scf accuracy    <       1.80902606 Ry

     iteration # 31     ecut=    30.00 Ry     beta=0.70
     Davidson diagonalization with overlap
     ethr =  8.21E-03,  avg # of iterations =  1.0

     negative rho (up, down):  1.076E-06 0.000E+00

     total cpu time spent up to now is        3.2 secs

     total energy              =     -31.49781805 Ry
     Harris-Foulkes estimate   =     -31.49233861 Ry
     estimated scf accuracy    <       0.14554151 Ry

     iteration # 32     ecut=    30.00 Ry     beta=0.70
     Davidson diagonalization with overlap
     ethr =  1.82E-03,  avg # of iterations =  1.0

     negative rho (up, down):  2.580E-05 0.000E+00

     total cpu time spent up to now is        3.2 secs

     total energy              =     -31.48124696 Ry
     Harris-Foulkes estimate   =     -31.50327329 Ry
     estimated scf accuracy    <       1.06213536 Ry

     iteration # 33     ecut=    30.00 Ry     beta=0.70
     Davidson diagonalization with overlap
     ethr =  1.82E-03,  avg # of iterations =  1.0

     negative rho (up, down):  2.505E-04 0.000E+00

     total cpu time spent up to now is        3.3 secs

     total energy              =     -31.48950602 Ry
     Harris-Foulkes estimate   =     -31.49076034 Ry
     estimated scf accuracy    <       0.00855133 Ry

     iteration # 34     ecut=    30.00 Ry     beta=0.70
     Davidson diagonalization with overlap
     ethr =  1.07E-04,  avg # of iterations =  3.0

     negative rho (up, down):  9.706E-05 0.000E+00

     total cpu time spent up to now is        3.3 secs

     total energy              =     -31.48973378 Ry
     Harris-Foulkes estimate   =     -31.49656088 Ry
     estimated scf accuracy    <       0.66884705 Ry

     iteration # 35     ecut=    30.00 Ry     beta=0.70
     Davidson diagonalization with overlap
     ethr =  1.07E-04,  avg # of iterations =  1.0

     negative rho (up, down):  1.547E-06 0.000E+00

     total cpu time spent up to now is        3.4 secs

     total energy              =     -31.48763105 Ry
     Harris-Foulkes estimate   =     -31.49167084 Ry
     estimated scf accuracy    <       0.12719222 Ry

     iteration # 36     ecut=    30.00 Ry     beta=0.70
     Davidson diagonalization with overlap
     ethr =  1.07E-04,  avg # of iterations =  1.0

     total cpu time spent up to now is        3.4 secs

     total energy              =     -31.49096663 Ry
     Harris-Foulkes estimate   =     -31.49123243 Ry
     estimated scf accuracy    <       0.07158406 Ry

     iteration # 37     ecut=    30.00 Ry     beta=0.70
     Davidson diagonalization with overlap
     ethr =  1.07E-04,  avg # of iterations =  1.0

     total cpu time spent up to now is        3.5 secs

     total energy              =     -31.48972004 Ry
     Harris-Foulkes estimate   =     -31.49099237 Ry
     estimated scf accuracy    <       0.04707600 Ry

     iteration # 38     ecut=    30.00 Ry     beta=0.70
     Davidson diagonalization with overlap
     ethr =  1.07E-04,  avg # of iterations =  1.0

     total cpu time spent up to now is        3.5 secs

     total energy              =     -31.49047114 Ry
     Harris-Foulkes estimate   =     -31.49062930 Ry
     estimated scf accuracy    <       0.00959741 Ry

     iteration # 39     ecut=    30.00 Ry     beta=0.70
     Davidson diagonalization with overlap
     ethr =  1.07E-04,  avg # of iterations =  1.0

     total cpu time spent up to now is        3.6 secs

     total energy              =     -31.49054488 Ry
     Harris-Foulkes estimate   =     -31.49054310 Ry
     estimated scf accuracy    <       0.00008861 Ry

     iteration # 40     ecut=    30.00 Ry     beta=0.70
     Davidson diagonalization with overlap
     ethr =  1.11E-06,  avg # of iterations =  7.0

     total cpu time spent up to now is        3.6 secs

     total energy              =     -31.49054292 Ry
     Harris-Foulkes estimate   =     -31.49054546 Ry
     estimated scf accuracy    <       0.00027741 Ry

     iteration # 41     ecut=    30.00 Ry     beta=0.70
     Davidson diagonalization with overlap
     ethr =  1.11E-06,  avg # of iterations =  1.0

     total cpu time spent up to now is        3.7 secs

     total energy              =     -31.49054230 Ry
     Harris-Foulkes estimate   =     -31.49054362 Ry
     estimated scf accuracy    <       0.00006528 Ry

     iteration # 42     ecut=    30.00 Ry     beta=0.70
     Davidson diagonalization with overlap
     ethr =  8.16E-07,  avg # of iterations =  1.0

     total cpu time spent up to now is        3.7 secs

     total energy              =     -31.49054298 Ry
     Harris-Foulkes estimate   =     -31.49054298 Ry
     estimated scf accuracy    <       0.00000015 Ry

     iteration # 43     ecut=    30.00 Ry     beta=0.70
     Davidson diagonalization with overlap
     ethr =  1.83E-09,  avg # of iterations =  1.0

     total cpu time spent up to now is        3.8 secs

     total energy              =     -31.49054300 Ry
     Harris-Foulkes estimate   =     -31.49054299 Ry
     estimated scf accuracy    <       0.00000015 Ry

     iteration # 44     ecut=    30.00 Ry     beta=0.70
     Davidson diagonalization with overlap
     ethr =  1.83E-09,  avg # of iterations =  1.0

     total cpu time spent up to now is        3.8 secs

     End of self-consistent calculation

          k = 0.0000 0.0000 0.0000 ( 22119 PWs)   bands (ev):

   -23.6308  -7.0421  -7.0406  -7.0402  -6.9671  -6.9024  -0.2243   0.6631

     the Fermi energy is    -6.9061 ev

!    total energy              =     -31.49054302 Ry
     Harris-Foulkes estimate   =     -31.49054300 Ry
     estimated scf accuracy    <          4.6E-10 Ry

     convergence has been achieved in  44 iterations

     Forces acting on atoms (Ry/au):

     atom    1 type  2   force =     0.00026610   -0.00072918   -0.00064419
     atom    2 type  1   force =    -0.00005044    0.00058312    0.00053623
     atom    3 type  1   force =    -0.00021565    0.00014607    0.00010796

     Total force =     0.001314     Total SCF correction =     0.000019

     Entering Dynamics:    iteration =     2
                           time      =   0.0097 pico-seconds


     Andersen thermostat:    3 collisions

ATOMIC_POSITIONS (bohr)
O       12.528863951   1.022537816  17.947014246
H        2.942553543   2.684735495  19.239328213
H        3.820567288   9.408785161   5.060484483


     kinetic energy (Ekin) =     0.01109797 Ry
     temperature           =   584.07605520 K 
     Ekin + Etot (const)   =   -31.47944505 Ry
     Message from routine dynamics:
     Total linear momentum <> 0

     Linear momentum :    0.0316409203    0.3676783473    0.1781879288

     Writing output data file pwscf.save

     first order wave-functions extrapolation
     Check: negative starting charge=   -0.349688
     first order charge density extrapolation
     Check: negative starting charge=   -0.349963

     negative rho (up, down):  4.416E-01 0.000E+00

     total cpu time spent up to now is        4.5 secs

     per-process dynamical memory:    20.4 Mb

     Self-consistent Calculation

     iteration #  1     ecut=    30.00 Ry     beta=0.70
     Davidson diagonalization with overlap
     ethr =  1.00E-06,  avg # of iterations =  9.0

     negative rho (up, down):  2.642E-02 0.000E+00

     total cpu time spent up to now is        4.7 secs

     total energy              =      -8.95685710 Ry
     Harris-Foulkes estimate   =     -34.06846751 Ry
     estimated scf accuracy    <      16.47361433 Ry

     iteration #  2     ecut=    30.00 Ry     beta=0.70
     Davidson diagonalization with overlap
     ethr =  1.00E-02,  avg # of iterations =  3.0

     negative rho (up, down):  1.781E-02 0.000E+00

     total cpu time spent up to now is        4.9 secs

     total energy              =     -35.21809843 Ry
     Harris-Foulkes estimate   =     -47.26514051 Ry
     estimated scf accuracy    <      25.23446254 Ry

     iteration #  3     ecut=    30.00 Ry     beta=0.70
     Davidson diagonalization with overlap
     ethr =  1.00E-02,  avg # of iterations =  2.0

     negative rho (up, down):  1.245E-02 0.000E+00

     total cpu time spent up to now is        5.0 secs

     total energy              =     -32.23256072 Ry
     Harris-Foulkes estimate   =     -35.81373232 Ry
     estimated scf accuracy    <       8.93059671 Ry

     iteration #  4     ecut=    30.00 Ry     beta=0.70
     Davidson diagonalization with overlap
     ethr =  1.00E-02,  avg # of iterations =  2.0

     negative rho (up, down):  6.394E-03 0.000E+00

     total cpu time spent up to now is        5.0 secs

     total energy              =     -30.55122996 Ry
     Harris-Foulkes estimate   =     -32.37627311 Ry
     estimated scf accuracy    <       3.87735696 Ry

     iteration #  5     ecut=    30.00 Ry     beta=0.70
     Davidson diagonalization with overlap
     ethr =  1.00E-02,  avg # of iterations =  5.0

     negative rho (up, down):  6.460E-03 0.000E+00

     total cpu time spent up to now is        5.1 secs

     total energy              =     -31.64908470 Ry
     Harris-Foulkes estimate   =     -31.85814461 Ry
     estimated scf accuracy    <       1.76443436 Ry

     iteration #  6     ecut=    30.00 Ry     beta=0.70
     Davidson diagonalization with overlap
     ethr =  1.00E-02,  avg # of iterations =  5.0

     negative rho (up, down):  6.925E-03 0.000E+00

     total cpu time spent up to now is        5.1 secs

     total energy              =     -31.27989474 Ry
     Harris-Foulkes estimate   =     -32.40860618 Ry
     estimated scf accuracy    <       5.18217444 Ry

     iteration #  7     ecut=    30.00 Ry     beta=0.70
     Davidson diagonalization with overlap
     ethr =  1.00E-02,  avg # of iterations =  1.0

     negative rho (up, down):  1.538E-04 0.000E+00

     total cpu time spent up to now is        5.2 secs

     total energy              =     -30.32630049 Ry
     Harris-Foulkes estimate   =     -31.70013518 Ry
     estimated scf accuracy    <       2.63642841 Ry

     iteration #  8     ecut=    30.00 Ry     beta=0.70
     Davidson diagonalization with overlap
     ethr =  1.00E-02,  avg # of iterations =  3.0

     negative rho (up, down):  5.432E-03 0.000E+00

     total cpu time spent up to now is        5.2 secs

     total energy              =     -33.66860850 Ry
     Harris-Foulkes estimate   =     -33.55291506 Ry
     estimated scf accuracy    <      13.18455835 Ry

     iteration #  9     ecut=    30.00 Ry     beta=0.70
     Davidson diagonalization with overlap
     ethr =  1.00E-02,  avg # of iterations =  1.0

     negative rho (up, down):  5.379E-03 0.000E+00

     total cpu time spent up to now is        5.3 secs

     total energy              =     -33.68082811 Ry
     Harris-Foulkes estimate   =     -33.67749997 Ry
     estimated scf accuracy    <      14.73400037 Ry

     iteration # 10     ecut=    30.00 Ry     beta=0.70
     Davidson diagonalization with overlap
     ethr =  1.00E-02,  avg # of iterations =  1.0

     negative rho (up, down):  5.755E-03 0.000E+00

     total cpu time spent up to now is        5.3 secs

     total energy              =     -33.80122417 Ry
     Harris-Foulkes estimate   =     -33.68306062 Ry
     estimated scf accuracy    <      14.75333667 Ry

     iteration # 11     ecut=    30.00 Ry     beta=0.70
     Davidson diagonalization with overlap
     ethr =  1.00E-02,  avg # of iterations =  1.0

     negative rho (up, down):  1.031E-02 0.000E+00

     total cpu time spent up to now is        5.4 secs

     total energy              =     -33.95398764 Ry
     Harris-Foulkes estimate   =     -33.80327514 Ry
     estimated scf accuracy    <      15.06591752 Ry

     iteration # 12     ecut=    30.00 Ry     beta=0.70
     Davidson diagonalization with overlap
     ethr =  1.00E-02,  avg # of iterations =  1.0

     negative rho (up, down):  7.962E-02 0.000E+00

     total cpu time spent up to now is        5.4 secs

     total energy              =     -31.02065413 Ry
     Harris-Foulkes estimate   =     -33.95571109 Ry
     estimated scf accuracy    <      15.28076905 Ry

     iteration # 13     ecut=    30.00 Ry     beta=0.70
     Davidson diagonalization with overlap
     ethr =  1.00E-02,  avg # of iterations =  2.0

     negative rho (up, down):  7.010E-02 0.000E+00

     total cpu time spent up to now is        5.5 secs

     total energy              =     -31.73668903 Ry
     Harris-Foulkes estimate   =     -31.82478320 Ry
     estimated scf accuracy    <       4.18499426 Ry

     iteration # 14     ecut=    30.00 Ry     beta=0.70
     Davidson diagonalization with overlap
     ethr =  1.00E-02,  avg # of iterations =  1.0

     negative rho (up, down):  8.361E-02 0.000E+00

     total cpu time spent up to now is        5.5 secs

     total energy              =     -31.85363504 Ry
     Harris-Foulkes estimate   =     -31.74408307 Ry
     estimated scf accuracy    <       4.06427504 Ry

     iteration # 15     ecut=    30.00 Ry     beta=0.70
     Davidson diagonalization with overlap
     ethr =  1.00E-02,  avg # of iterations =  1.0

     negative rho (up, down):  2.763E-01 0.000E+00

     total cpu time spent up to now is        5.6 secs

     total energy              =     -31.75442225 Ry
     Harris-Foulkes estimate   =     -31.85474656 Ry
     estimated scf accuracy    <       4.17977204 Ry

     iteration # 16     ecut=    30.00 Ry     beta=0.70
     Davidson diagonalization with overlap
     ethr =  1.00E-02,  avg # of iterations =  1.0

     negative rho (up, down):  1.317E+00 0.000E+00

     total cpu time spent up to now is        5.6 secs

     total energy              =     -29.22743751 Ry
     Harris-Foulkes estimate   =     -31.75760995 Ry
     estimated scf accuracy    <       4.10694417 Ry

     iteration # 17     ecut=    30.00 Ry     beta=0.70
     Davidson diagonalization with overlap
     ethr =  1.00E-02,  avg # of iterations =  4.0

     negative rho (up, down):  2.667E-01 0.000E+00

     total cpu time spent up to now is        5.7 secs

     total energy              =     -32.50800345 Ry
     Harris-Foulkes estimate   =     -34.86960309 Ry
     estimated scf accuracy    <       7.57975962 Ry

     iteration # 18     ecut=    30.00 Ry     beta=0.70
     Davidson diagonalization with overlap
     ethr =  1.00E-02,  avg # of iterations =  4.0

     negative rho (up, down):  6.599E-02 0.000E+00

     total cpu time spent up to now is        5.8 secs

     total energy              =     -31.74365733 Ry
     Harris-Foulkes estimate   =     -32.53951109 Ry
     estimated scf accuracy    <       4.32405132 Ry

     iteration # 19     ecut=    30.00 Ry     beta=0.70
     Davidson diagonalization with overlap
     ethr =  1.00E-02,  avg # of iterations =  1.0

     negative rho (up, down):  2.408E-02 0.000E+00

     total cpu time spent up to now is        5.8 secs

     total energy              =     -31.46051952 Ry
     Harris-Foulkes estimate   =     -31.74410706 Ry
     estimated scf accuracy    <       3.07449716 Ry

     iteration # 20     ecut=    30.00 Ry     beta=0.70
     Davidson diagonalization with overlap
     ethr =  1.00E-02,  avg # of iterations =  1.0

     negative rho (up, down):  5.537E-05 0.000E+00

     total cpu time spent up to now is        5.9 secs

     total energy              =     -31.46219462 Ry
     Harris-Foulkes estimate   =     -31.48836193 Ry
     estimated scf accuracy    <       0.07037498 Ry

     iteration # 21     ecut=    30.00 Ry     beta=0.70
     Davidson diagonalization with overlap
     ethr =  8.80E-04,  avg # of iterations =  3.0

     negative rho (up, down):  6.781E-03 0.000E+00

     total cpu time spent up to now is        5.9 secs

     total energy              =     -31.39772727 Ry
     Harris-Foulkes estimate   =     -31.76811039 Ry
     estimated scf accuracy    <       4.00927711 Ry

     iteration # 22     ecut=    30.00 Ry     beta=0.70
     Davidson diagonalization with overlap
     ethr =  8.80E-04,  avg # of iterations =  1.0

     negative rho (up, down):  2.720E-04 0.000E+00

     total cpu time spent up to now is        6.0 secs

     total energy              =     -31.37057358 Ry
     Harris-Foulkes estimate   =     -31.51657147 Ry
     estimated scf accuracy    <       1.83551875 Ry

     iteration # 23     ecut=    30.00 Ry     beta=0.70
     Davidson diagonalization with overlap
     ethr =  8.80E-04,  avg # of iterations =  1.0

     negative rho (up, down):  2.289E-04 0.000E+00

     total cpu time spent up to now is        6.0 secs

     total energy              =     -31.58380397 Ry
     Harris-Foulkes estimate   =     -31.61045143 Ry
     estimated scf accuracy    <       4.08835548 Ry

     iteration # 24     ecut=    30.00 Ry     beta=0.70
     Davidson diagonalization with overlap
     ethr =  8.80E-04,  avg # of iterations =  1.0

     negative rho (up, down):  3.024E-04 0.000E+00

     total cpu time spent up to now is        6.1 secs

     total energy              =     -31.64782129 Ry
     Harris-Foulkes estimate   =     -31.58294906 Ry
     estimated scf accuracy    <       4.66392314 Ry

     iteration # 25     ecut=    30.00 Ry     beta=0.70
     Davidson diagonalization with overlap
     ethr =  8.80E-04,  avg # of iterations =  1.0

     negative rho (up, down):  3.268E-04 0.000E+00

     total cpu time spent up to now is        6.1 secs

     total energy              =     -31.62110271 Ry
     Harris-Foulkes estimate   =     -31.64369488 Ry
     estimated scf accuracy    <       3.87450371 Ry

     iteration # 26     ecut=    30.00 Ry     beta=0.70
     Davidson diagonalization with overlap
     ethr =  8.80E-04,  avg # of iterations =  1.0

     negative rho (up, down):  2.222E-04 0.000E+00

     total cpu time spent up to now is        6.2 secs

     total energy              =     -31.68675849 Ry
     Harris-Foulkes estimate   =     -31.62076810 Ry
     estimated scf accuracy    <       4.07311497 Ry

     iteration # 27     ecut=    30.00 Ry     beta=0.70
     Davidson diagonalization with overlap
     ethr =  8.80E-04,  avg # of iterations =  1.0

     negative rho (up, down):  2.505E-04 0.000E+00

     total cpu time spent up to now is        6.2 secs

     total energy              =     -31.55605942 Ry
     Harris-Foulkes estimate   =     -31.68594750 Ry
     estimated scf accuracy    <       3.91189434 Ry

     iteration # 28     ecut=    30.00 Ry     beta=0.70
     Davidson diagonalization with overlap
     ethr =  8.80E-04,  avg # of iterations =  1.0

     negative rho (up, down):  2.969E-04 0.000E+00

     total cpu time spent up to now is        6.3 secs

     total energy              =     -31.47939810 Ry
     Harris-Foulkes estimate   =     -31.55187432 Ry
     estimated scf accuracy    <       3.68876370 Ry

     iteration # 29     ecut=    30.00 Ry     beta=0.70
     Davidson diagonalization with overlap
     ethr =  8.80E-04,  avg # of iterations =  1.0

     negative rho (up, down):  4.882E-04 0.000E+00

     total cpu time spent up to now is        6.3 secs

     total energy              =     -31.50128176 Ry
     Harris-Foulkes estimate   =     -31.49717458 Ry
     estimated scf accuracy    <       0.54971396 Ry

     iteration # 30     ecut=    30.00 Ry     beta=0.70
     Davidson diagonalization with overlap
     ethr =  8.80E-04,  avg # of iterations =  1.0

     negative rho (up, down):  3.535E-04 0.000E+00

     total cpu time spent up to now is        6.4 secs

     total energy              =     -31.52433387 Ry
     Harris-Foulkes estimate   =     -31.50542730 Ry
     estimated scf accuracy    <       1.52550428 Ry

     iteration # 31     ecut=    30.00 Ry     beta=0.70
     Davidson diagonalization with overlap
     ethr =  8.80E-04,  avg # of iterations =  1.0

     negative rho (up, down):  2.191E-04 0.000E+00

     total cpu time spent up to now is        6.4 secs

     total energy              =     -31.59008662 Ry
     Harris-Foulkes estimate   =     -31.53706995 Ry
     estimated scf accuracy    <       3.84417048 Ry

     iteration # 32     ecut=    30.00 Ry     beta=0.70
     Davidson diagonalization with overlap
     ethr =  8.80E-04,  avg # of iterations =  1.0

     negative rho (up, down):  4.989E-04 0.000E+00

     total cpu time spent up to now is        6.5 secs

     total energy              =     -31.59735438 Ry
     Harris-Foulkes estimate   =     -31.59320397 Ry
     estimated scf accuracy    <       4.45834898 Ry

     iteration # 33     ecut=    30.00 Ry     beta=0.70
     Davidson diagonalization with overlap
     ethr =  8.80E-04,  avg # of iterations =  1.0

     negative rho (up, down):  6.586E-04 0.000E+00

     total cpu time spent up to now is        6.5 secs

     total energy              =     -31.60711350 Ry
     Harris-Foulkes estimate   =     -31.59714768 Ry
     estimated scf accuracy    <       4.36656076 Ry

     iteration # 34     ecut=    30.00 Ry     beta=0.70
     Davidson diagonalization with overlap
     ethr =  8.80E-04,  avg # of iterations =  1.0

     negative rho (up, down):  6.641E-04 0.000E+00

     total cpu time spent up to now is        6.6 secs

     total energy              =     -31.61003372 Ry
     Harris-Foulkes estimate   =     -31.60710967 Ry
     estimated scf accuracy    <       4.28896172 Ry

     iteration # 35     ecut=    30.00 Ry     beta=0.70
     Davidson diagonalization with overlap
     ethr =  8.80E-04,  avg # of iterations =  1.0

     negative rho (up, down):  1.629E-02 0.000E+00

     total cpu time spent up to now is        6.6 secs

     total energy              =     -31.73995716 Ry
     Harris-Foulkes estimate   =     -31.61004866 Ry
     estimated scf accuracy    <       4.23864271 Ry

     iteration # 36     ecut=    30.00 Ry     beta=0.70
     Davidson diagonalization with overlap
     ethr =  8.80E-04,  avg # of iterations =  2.0

     negative rho (up, down):  2.707E-05 0.000E+00

     total cpu time spent up to now is        6.7 secs

     total energy              =     -31.61565200 Ry
     Harris-Foulkes estimate   =     -31.84824902 Ry
     estimated scf accuracy    <       1.54968822 Ry

     iteration # 37     ecut=    30.00 Ry     beta=0.70
     Davidson diagonalization with overlap
     ethr =  8.80E-04,  avg # of iterations =  2.0

     negative rho (up, down):  3.978E-05 0.000E+00

     total cpu time spent up to now is        6.7 secs

     total energy              =     -31.50270106 Ry
     Harris-Foulkes estimate   =     -31.62174472 Ry
     estimated scf accuracy    <       1.08618904 Ry

     iteration # 38     ecut=    30.00 Ry     beta=0.70
     Davidson diagonalization with overlap
     ethr =  8.80E-04,  avg # of iterations =  1.0

     negative rho (up, down):  1.657E-05 0.000E+00

     total cpu time spent up to now is        6.8 secs

     total energy              =     -31.52923266 Ry
     Harris-Foulkes estimate   =     -31.51123821 Ry
     estimated scf accuracy    <       1.50014413 Ry

     iteration # 39     ecut=    30.00 Ry     beta=0.70
     Davidson diagonalization with overlap
     ethr =  8.80E-04,  avg # of iterations =  1.0

     negative rho (up, down):  2.903E-03 0.000E+00

     total cpu time spent up to now is        6.8 secs

     total energy              =     -31.65435321 Ry
     Harris-Foulkes estimate   =     -31.53639121 Ry
     estimated scf accuracy    <       1.07931958 Ry

     iteration # 40     ecut=    30.00 Ry     beta=0.70
     Davidson diagonalization with overlap
     ethr =  8.80E-04,  avg # of iterations =  1.0

     negative rho (up, down):  2.005E-01 0.000E+00

     total cpu time spent up to now is        6.9 secs

     total energy              =     -30.85615625 Ry
     Harris-Foulkes estimate   =     -31.64930755 Ry
     estimated scf accuracy    <       1.13654354 Ry

     iteration # 41     ecut=    30.00 Ry     beta=0.70
     Davidson diagonalization with overlap
     ethr =  8.80E-04,  avg # of iterations =  6.0

     negative rho (up, down):  3.410E-01 0.000E+00

     total cpu time spent up to now is        6.9 secs

     total energy              =     -33.07601945 Ry
     Harris-Foulkes estimate   =     -32.52856396 Ry
     estimated scf accuracy    <       2.67161924 Ry

     iteration # 42     ecut=    30.00 Ry     beta=0.70
     Davidson diagonalization with overlap
     ethr =  8.80E-04,  avg # of iterations =  5.0

     negative rho (up, down):  2.027E-03 0.000E+00

     total cpu time spent up to now is        7.0 secs

     total energy              =     -31.63920009 Ry
     Harris-Foulkes estimate   =     -33.08479605 Ry
     estimated scf accuracy    <       3.16830252 Ry

     iteration # 43     ecut=    30.00 Ry     beta=0.70
     Davidson diagonalization with overlap
     ethr =  8.80E-04,  avg # of iterations =  5.0

     negative rho (up, down):  2.074E-04 0.000E+00

     total cpu time spent up to now is        7.0 secs

     total energy              =     -31.46357391 Ry
     Harris-Foulkes estimate   =     -31.70750785 Ry
     estimated scf accuracy    <       1.75370283 Ry

     iteration # 44     ecut=    30.00 Ry     beta=0.70
     Davidson diagonalization with overlap
     ethr =  8.80E-04,  avg # of iterations =  2.0

     negative rho (up, down):  2.936E-04 0.000E+00

     total cpu time spent up to now is        7.1 secs

     total energy              =     -31.48128078 Ry
     Harris-Foulkes estimate   =     -31.51232670 Ry
     estimated scf accuracy    <       0.78980680 Ry

     iteration # 45     ecut=    30.00 Ry     beta=0.70
     Davidson diagonalization with overlap
     ethr =  8.80E-04,  avg # of iterations =  1.0

     negative rho (up, down):  9.975E-06 0.000E+00

     total cpu time spent up to now is        7.1 secs

     total energy              =     -31.49587726 Ry
     Harris-Foulkes estimate   =     -31.51327622 Ry
     estimated scf accuracy    <       1.58809216 Ry

     iteration # 46     ecut=    30.00 Ry     beta=0.70
     Davidson diagonalization with overlap
     ethr =  8.80E-04,  avg # of iterations =  1.0

     negative rho (up, down):  1.614E-05 0.000E+00

     total cpu time spent up to now is        7.2 secs

     total energy              =     -31.50088406 Ry
     Harris-Foulkes estimate   =     -31.50048520 Ry
     estimated scf accuracy    <       0.61077811 Ry

     iteration # 47     ecut=    30.00 Ry     beta=0.70
     Davidson diagonalization with overlap
     ethr =  8.80E-04,  avg # of iterations =  1.0

     negative rho (up, down):  9.407E-05 0.000E+00

     total cpu time spent up to now is        7.3 secs

     total energy              =     -31.53883871 Ry
     Harris-Foulkes estimate   =     -31.50090387 Ry
     estimated scf accuracy    <       0.65282707 Ry

     iteration # 48     ecut=    30.00 Ry     beta=0.70
     Davidson diagonalization with overlap
     ethr =  8.80E-04,  avg # of iterations =  1.0

     negative rho (up, down):  1.976E-04 0.000E+00

     total cpu time spent up to now is        7.3 secs

     total energy              =     -31.47198570 Ry
     Harris-Foulkes estimate   =     -31.59272228 Ry
     estimated scf accuracy    <       2.83773496 Ry

     iteration # 49     ecut=    30.00 Ry     beta=0.70
     Davidson diagonalization with overlap
     ethr =  8.80E-04,  avg # of iterations =  1.0

     negative rho (up, down):  6.685E-06 0.000E+00

     total cpu time spent up to now is        7.3 secs

     total energy              =     -31.50774911 Ry
     Harris-Foulkes estimate   =     -31.56700132 Ry
     estimated scf accuracy    <       1.26095197 Ry

     iteration # 50     ecut=    30.00 Ry     beta=0.70
     Davidson diagonalization with overlap
     ethr =  8.80E-04,  avg # of iterations =  1.0

     negative rho (up, down):  5.004E-08 0.000E+00

     total cpu time spent up to now is        7.4 secs

     total energy              =     -31.47728855 Ry
     Harris-Foulkes estimate   =     -31.51018084 Ry
     estimated scf accuracy    <       0.72118635 Ry

     iteration # 51     ecut=    30.00 Ry     beta=0.70
     Davidson diagonalization with overlap
     ethr =  8.80E-04,  avg # of iterations =  1.0

     negative rho (up, down):  2.380E-07 0.000E+00

     total cpu time spent up to now is        7.4 secs

     total energy              =     -31.48994880 Ry
     Harris-Foulkes estimate   =     -31.49156584 Ry
     estimated scf accuracy    <       0.10597670 Ry

     iteration # 52     ecut=    30.00 Ry     beta=0.70
     Davidson diagonalization with overlap
     ethr =  8.80E-04,  avg # of iterations =  1.0

     total cpu time spent up to now is        7.5 secs

     total energy              =     -31.48559569 Ry
     Harris-Foulkes estimate   =     -31.49511533 Ry
     estimated scf accuracy    <       0.22485142 Ry

     iteration # 53     ecut=    30.00 Ry     beta=0.70
     Davidson diagonalization with overlap
     ethr =  8.80E-04,  avg # of iterations =  1.0

     total cpu time spent up to now is        7.6 secs

     total energy              =     -31.49058118 Ry
     Harris-Foulkes estimate   =     -31.49090716 Ry
     estimated scf accuracy    <       0.03468288 Ry

     iteration # 54     ecut=    30.00 Ry     beta=0.70
     Davidson diagonalization with overlap
     ethr =  4.34E-04,  avg # of iterations =  1.0

     total cpu time spent up to now is        7.6 secs

     total energy              =     -31.49021538 Ry
     Harris-Foulkes estimate   =     -31.49093533 Ry
     estimated scf accuracy    <       0.02248322 Ry

     iteration # 55     ecut=    30.00 Ry     beta=0.70
     Davidson diagonalization with overlap
     ethr =  2.81E-04,  avg # of iterations =  1.0

     total cpu time spent up to now is        7.7 secs

     total energy              =     -31.49043736 Ry
     Harris-Foulkes estimate   =     -31.49068177 Ry
     estimated scf accuracy    <       0.01764451 Ry

     iteration # 56     ecut=    30.00 Ry     beta=0.70
     Davidson diagonalization with overlap
     ethr =  2.21E-04,  avg # of iterations =  1.0

     total cpu time spent up to now is        7.7 secs

     total energy              =     -31.49050936 Ry
     Harris-Foulkes estimate   =     -31.49054805 Ry
     estimated scf accuracy    <       0.00223859 Ry

     iteration # 57     ecut=    30.00 Ry     beta=0.70
     Davidson diagonalization with overlap
     ethr =  2.80E-05,  avg # of iterations =  1.0

     total cpu time spent up to now is        7.8 secs

     total energy              =     -31.49050493 Ry
     Harris-Foulkes estimate   =     -31.49051984 Ry
     estimated scf accuracy    <       0.00047447 Ry

     iteration # 58     ecut=    30.00 Ry     beta=0.70
     Davidson diagonalization with overlap
     ethr =  5.93E-06,  avg # of iterations = 10.0

     total cpu time spent up to now is        7.8 secs

     total energy              =     -31.49051267 Ry
     Harris-Foulkes estimate   =     -31.49051265 Ry
     estimated scf accuracy    <       0.00000066 Ry

     iteration # 59     ecut=    30.00 Ry     beta=0.70
     Davidson diagonalization with overlap
     ethr =  8.23E-09,  avg # of iterations =  1.0

     total cpu time spent up to now is        7.9 secs

     total energy              =     -31.49051258 Ry
     Harris-Foulkes estimate   =     -31.49051271 Ry
     estimated scf accuracy    <       0.00000248 Ry

     iteration # 60     ecut=    30.00 Ry     beta=0.70
     Davidson diagonalization with overlap
     ethr =  8.23E-09,  avg # of iterations =  1.0

     total cpu time spent up to now is        7.9 secs

     End of self-consistent calculation

          k = 0.0000 0.0000 0.0000 ( 22119 PWs)   bands (ev):

   -23.6280  -7.0395  -7.0380  -7.0377  -6.9605  -6.9043  -0.2249   0.6669

     the Fermi energy is    -6.9036 ev

!    total energy              =     -31.49051266 Ry
     Harris-Foulkes estimate   =     -31.49051262 Ry
     estimated scf accuracy    <          7.2E-09 Ry

     convergence has been achieved in  60 iterations

     Forces acting on atoms (Ry/au):

     atom    1 type  2   force =     0.00030048   -0.00057337   -0.00051474
     atom    2 type  1   force =    -0.00009786    0.00044539    0.00038146
     atom    3 type  1   force =    -0.00020262    0.00012798    0.00013327

     Total force =     0.001055     Total SCF correction =     0.000099

     Entering Dynamics:    iteration =     3
                           time      =   0.0145 pico-seconds


     Andersen thermostat:    3 collisions

ATOMIC_POSITIONS (bohr)
O       12.513788298   1.028552081  17.944542920
H        3.069461824   2.775735504  19.533110944
H        3.932481233   9.222509670   4.805851469


     kinetic energy (Ekin) =     0.01413103 Ry
     temperature           =   743.70366895 K 
     Ekin + Etot (const)   =   -31.47638163 Ry
     Message from routine dynamics:
     Total linear momentum <> 0

     Linear momentum :    0.3679424336   -0.4059240373    0.0655390169

     Writing output data file pwscf.save

     second order wave-functions extrapolation
     Check: negative starting charge=   -0.349963
     second order charge density extrapolation
     Check: negative starting charge=   -0.350002

     negative rho (up, down):  3.106E-02 0.000E+00

     total cpu time spent up to now is        8.5 secs

     per-process dynamical memory:    20.4 Mb

     Self-consistent Calculation

     iteration #  1     ecut=    30.00 Ry     beta=0.70
     Davidson diagonalization with overlap
     c_bands:  1 eigenvalues not converged
     ethr =  1.00E-06,  avg # of iterations = 20.0

     negative rho (up, down):  6.463E-03 0.000E+00

     total cpu time spent up to now is        8.8 secs

     total energy              =     -31.47252162 Ry
     Harris-Foulkes estimate   =     -31.45988992 Ry
     estimated scf accuracy    <       0.01489590 Ry

     iteration #  2     ecut=    30.00 Ry     beta=0.70
     Davidson diagonalization with overlap
     ethr =  1.86E-04,  avg # of iterations =  2.0

     negative rho (up, down):  6.119E-03 0.000E+00

     total cpu time spent up to now is        8.8 secs

     total energy              =     -31.46909591 Ry
     Harris-Foulkes estimate   =     -31.74555598 Ry
     estimated scf accuracy    <       4.01343276 Ry

     iteration #  3     ecut=    30.00 Ry     beta=0.70
     Davidson diagonalization with overlap
     ethr =  1.86E-04,  avg # of iterations =  2.0

     negative rho (up, down):  5.965E-03 0.000E+00

     total cpu time spent up to now is        8.9 secs

     total energy              =     -31.48167892 Ry
     Harris-Foulkes estimate   =     -31.49105528 Ry
     estimated scf accuracy    <       0.38020392 Ry

     iteration #  4     ecut=    30.00 Ry     beta=0.70
     Davidson diagonalization with overlap
     ethr =  1.86E-04,  avg # of iterations =  1.0

     negative rho (up, down):  1.052E-03 0.000E+00

     total cpu time spent up to now is        9.0 secs

     total energy              =     -31.48165292 Ry
     Harris-Foulkes estimate   =     -31.48609335 Ry
     estimated scf accuracy    <       0.11531580 Ry

     iteration #  5     ecut=    30.00 Ry     beta=0.70
     Davidson diagonalization with overlap
     ethr =  1.86E-04,  avg # of iterations =  4.0

     negative rho (up, down):  5.009E-04 0.000E+00

     total cpu time spent up to now is        9.0 secs

     total energy              =     -31.47715500 Ry
     Harris-Foulkes estimate   =     -31.50347200 Ry
     estimated scf accuracy    <       1.10133085 Ry

     iteration #  6     ecut=    30.00 Ry     beta=0.70
     Davidson diagonalization with overlap
     ethr =  1.86E-04,  avg # of iterations =  1.0

     negative rho (up, down):  7.736E-05 0.000E+00

     total cpu time spent up to now is        9.1 secs

     total energy              =     -31.49039587 Ry
     Harris-Foulkes estimate   =     -31.49080257 Ry
     estimated scf accuracy    <       0.01529910 Ry

     iteration #  7     ecut=    30.00 Ry     beta=0.70
     Davidson diagonalization with overlap
     ethr =  1.86E-04,  avg # of iterations =  1.0

     negative rho (up, down):  1.085E-06 0.000E+00

     total cpu time spent up to now is        9.1 secs

     total energy              =     -31.49066266 Ry
     Harris-Foulkes estimate   =     -31.49070431 Ry
     estimated scf accuracy    <       0.00325674 Ry

     iteration #  8     ecut=    30.00 Ry     beta=0.70
     Davidson diagonalization with overlap
     ethr =  4.07E-05,  avg # of iterations =  8.0

     total cpu time spent up to now is        9.2 secs

     total energy              =     -31.49069790 Ry
     Harris-Foulkes estimate   =     -31.49069221 Ry
     estimated scf accuracy    <       0.00000649 Ry

     iteration #  9     ecut=    30.00 Ry     beta=0.70
     Davidson diagonalization with overlap
     ethr =  8.11E-08,  avg # of iterations =  6.0

     total cpu time spent up to now is        9.3 secs

     total energy              =     -31.49068924 Ry
     Harris-Foulkes estimate   =     -31.49070385 Ry
     estimated scf accuracy    <       0.00072401 Ry

     iteration # 10     ecut=    30.00 Ry     beta=0.70
     Davidson diagonalization with overlap
     ethr =  8.11E-08,  avg # of iterations =  1.0

     total cpu time spent up to now is        9.3 secs

     total energy              =     -31.49069784 Ry
     Harris-Foulkes estimate   =     -31.49069747 Ry
     estimated scf accuracy    <       0.00000808 Ry

     iteration # 11     ecut=    30.00 Ry     beta=0.70
     Davidson diagonalization with overlap
     ethr =  8.11E-08,  avg # of iterations =  1.0

     total cpu time spent up to now is        9.4 secs

     total energy              =     -31.49069677 Ry
     Harris-Foulkes estimate   =     -31.49069807 Ry
     estimated scf accuracy    <       0.00005997 Ry

     iteration # 12     ecut=    30.00 Ry     beta=0.70
     Davidson diagonalization with overlap
     ethr =  8.11E-08,  avg # of iterations =  1.0

     total cpu time spent up to now is        9.4 secs

     total energy              =     -31.49069753 Ry
     Harris-Foulkes estimate   =     -31.49069749 Ry
     estimated scf accuracy    <       0.00000107 Ry

     iteration # 13     ecut=    30.00 Ry     beta=0.70
     Davidson diagonalization with overlap
     ethr =  1.34E-08,  avg # of iterations =  1.0

     total cpu time spent up to now is        9.5 secs

     total energy              =     -31.49069756 Ry
     Harris-Foulkes estimate   =     -31.49069754 Ry
     estimated scf accuracy    <       0.00000015 Ry

     iteration # 14     ecut=    30.00 Ry     beta=0.70
     Davidson diagonalization with overlap
     ethr =  1.87E-09,  avg # of iterations =  1.0

     total cpu time spent up to now is        9.5 secs

     End of self-consistent calculation

          k = 0.0000 0.0000 0.0000 ( 22119 PWs)   bands (ev):

   -23.6387  -7.0497  -7.0479  -7.0475  -6.9837  -6.8994  -0.2240   0.6503

     the Fermi energy is    -6.9135 ev

!    total energy              =     -31.49069756 Ry
     Harris-Foulkes estimate   =     -31.49069756 Ry
     estimated scf accuracy    <          1.0E-09 Ry

     convergence has been achieved in  14 iterations

     Forces acting on atoms (Ry/au):

     atom    1 type  2   force =     0.00010869   -0.00066574   -0.00048426
     atom    2 type  1   force =     0.00002818    0.00073771    0.00059387
     atom    3 type  1   force =    -0.00013687   -0.00007197   -0.00010960

     Total force =     0.001274     Total SCF correction =     0.000001

     Entering Dynamics:    iteration =     4
                           time      =   0.0194 pico-seconds


     Andersen thermostat:    3 collisions

ATOMIC_POSITIONS (bohr)
O       12.481382833   1.008741173  17.966836106
H        2.963449303   2.546285209  19.335049826
H        4.551847664   9.765796126   4.650753214


     kinetic energy (Ekin) =     0.04058102 Ry
     temperature           =  2135.74306494 K 
     Ekin + Etot (const)   =   -31.45011654 Ry
     Message from routine dynamics:
     Total linear momentum <> 0

     Linear momentum :    0.2868737536    0.0527050046   -0.2617939527

     Writing output data file pwscf.save

     second order wave-functions extrapolation
     Check: negative starting charge=   -0.350002
     second order charge density extrapolation
     Check: negative starting charge=   -0.349493

     negative rho (up, down):  8.598E-02 0.000E+00

     total cpu time spent up to now is       10.0 secs

     per-process dynamical memory:    20.4 Mb

     Self-consistent Calculation

     iteration #  1     ecut=    30.00 Ry     beta=0.70
     Davidson diagonalization with overlap
     c_bands:  1 eigenvalues not converged
     ethr =  1.00E-06,  avg # of iterations = 20.0

     negative rho (up, down):  2.090E-02 0.000E+00

     total cpu time spent up to now is       10.2 secs

     total energy              =     -29.72394368 Ry
     Harris-Foulkes estimate   =     -32.08071862 Ry
     estimated scf accuracy    <       1.38665109 Ry

     iteration #  2     ecut=    30.00 Ry     beta=0.70
     Davidson diagonalization with overlap
     ethr =  1.00E-02,  avg # of iterations =  3.0

     negative rho (up, down):  1.622E-02 0.000E+00

     total cpu time spent up to now is       10.3 secs

     total energy              =     -31.55770995 Ry
     Harris-Foulkes estimate   =     -33.69146004 Ry
     estimated scf accuracy    <       6.18123051 Ry

     iteration #  3     ecut=    30.00 Ry     beta=0.70
     Davidson diagonalization with overlap
     ethr =  1.00E-02,  avg # of iterations =  2.0

     negative rho (up, down):  1.332E-02 0.000E+00

     total cpu time spent up to now is       10.3 secs

     total energy              =     -31.78330103 Ry
     Harris-Foulkes estimate   =     -32.32538629 Ry
     estimated scf accuracy    <       2.22017834 Ry

     iteration #  4     ecut=    30.00 Ry     beta=0.70
     Davidson diagonalization with overlap
     ethr =  1.00E-02,  avg # of iterations =  1.0

     negative rho (up, down):  9.819E-03 0.000E+00

     total cpu time spent up to now is       10.4 secs

     total energy              =     -31.50488517 Ry
     Harris-Foulkes estimate   =     -31.80444817 Ry
     estimated scf accuracy    <       1.16510534 Ry

     iteration #  5     ecut=    30.00 Ry     beta=0.70
     Davidson diagonalization with overlap
     ethr =  1.00E-02,  avg # of iterations =  3.0

     negative rho (up, down):  5.277E-03 0.000E+00

     total cpu time spent up to now is       10.4 secs

     total energy              =     -31.16927787 Ry
     Harris-Foulkes estimate   =     -31.51550178 Ry
     estimated scf accuracy    <       0.89305823 Ry

     iteration #  6     ecut=    30.00 Ry     beta=0.70
     Davidson diagonalization with overlap
     ethr =  1.00E-02,  avg # of iterations =  2.0

     negative rho (up, down):  5.912E-03 0.000E+00

     total cpu time spent up to now is       10.5 secs

     total energy              =     -31.47721669 Ry
     Harris-Foulkes estimate   =     -31.89579383 Ry
     estimated scf accuracy    <       1.60624907 Ry

     iteration #  7     ecut=    30.00 Ry     beta=0.70
     Davidson diagonalization with overlap
     ethr =  1.00E-02,  avg # of iterations =  1.0

     negative rho (up, down):  5.837E-03 0.000E+00

     total cpu time spent up to now is       10.5 secs

     total energy              =     -31.50685469 Ry
     Harris-Foulkes estimate   =     -31.51068520 Ry
     estimated scf accuracy    <       1.35216906 Ry

     iteration #  8     ecut=    30.00 Ry     beta=0.70
     Davidson diagonalization with overlap
     ethr =  1.00E-02,  avg # of iterations =  1.0

     negative rho (up, down):  6.040E-03 0.000E+00

     total cpu time spent up to now is       10.6 secs

     total energy              =     -31.50631062 Ry
     Harris-Foulkes estimate   =     -31.50761039 Ry
     estimated scf accuracy    <       1.00669172 Ry

     iteration #  9     ecut=    30.00 Ry     beta=0.70
     Davidson diagonalization with overlap
     ethr =  1.00E-02,  avg # of iterations =  1.0

     negative rho (up, down):  2.485E-03 0.000E+00

     total cpu time spent up to now is       10.7 secs

     total energy              =     -31.39696441 Ry
     Harris-Foulkes estimate   =     -31.53345539 Ry
     estimated scf accuracy    <       1.95782252 Ry

     iteration # 10     ecut=    30.00 Ry     beta=0.70
     Davidson diagonalization with overlap
     ethr =  1.00E-02,  avg # of iterations =  1.0

     negative rho (up, down):  3.010E-05 0.000E+00

     total cpu time spent up to now is       10.7 secs

     total energy              =     -31.68948991 Ry
     Harris-Foulkes estimate   =     -31.56742440 Ry
     estimated scf accuracy    <       3.50370487 Ry

     iteration # 11     ecut=    30.00 Ry     beta=0.70
     Davidson diagonalization with overlap
     ethr =  1.00E-02,  avg # of iterations =  1.0

     negative rho (up, down):  3.667E-06 0.000E+00

     total cpu time spent up to now is       10.8 secs

     total energy              =     -31.69197928 Ry
     Harris-Foulkes estimate   =     -31.70825686 Ry
     estimated scf accuracy    <       4.09762190 Ry

     iteration # 12     ecut=    30.00 Ry     beta=0.70
     Davidson diagonalization with overlap
     ethr =  1.00E-02,  avg # of iterations =  1.0

     negative rho (up, down):  9.112E-04 0.000E+00

     total cpu time spent up to now is       10.8 secs

     total energy              =     -31.66774637 Ry
     Harris-Foulkes estimate   =     -31.69124425 Ry
     estimated scf accuracy    <       3.88995268 Ry

     iteration # 13     ecut=    30.00 Ry     beta=0.70
     Davidson diagonalization with overlap
     ethr =  1.00E-02,  avg # of iterations =  1.0

     negative rho (up, down):  2.614E-03 0.000E+00

     total cpu time spent up to now is       10.9 secs

     total energy              =     -31.64650059 Ry
     Harris-Foulkes estimate   =     -31.66781896 Ry
     estimated scf accuracy    <       3.90592399 Ry

     iteration # 14     ecut=    30.00 Ry     beta=0.70
     Davidson diagonalization with overlap
     ethr =  1.00E-02,  avg # of iterations =  1.0

     negative rho (up, down):  3.335E-03 0.000E+00

     total cpu time spent up to now is       10.9 secs

     total energy              =     -31.62819966 Ry
     Harris-Foulkes estimate   =     -31.64505539 Ry
     estimated scf accuracy    <       4.36795126 Ry

     iteration # 15     ecut=    30.00 Ry     beta=0.70
     Davidson diagonalization with overlap
     ethr =  1.00E-02,  avg # of iterations =  1.0

     negative rho (up, down):  3.625E-03 0.000E+00

     total cpu time spent up to now is       11.0 secs

     total energy              =     -31.61303355 Ry
     Harris-Foulkes estimate   =     -31.62975389 Ry
     estimated scf accuracy    <       3.47530864 Ry

     iteration # 16     ecut=    30.00 Ry     beta=0.70
     Davidson diagonalization with overlap
     ethr =  1.00E-02,  avg # of iterations =  1.0

     negative rho (up, down):  3.017E-04 0.000E+00

     total cpu time spent up to now is       11.0 secs

     total energy              =     -31.54307614 Ry
     Harris-Foulkes estimate   =     -31.61374320 Ry
     estimated scf accuracy    <       2.81446108 Ry

     iteration # 17     ecut=    30.00 Ry     beta=0.70
     Davidson diagonalization with overlap
     ethr =  1.00E-02,  avg # of iterations =  1.0

     negative rho (up, down):  2.661E-04 0.000E+00

     total cpu time spent up to now is       11.1 secs

     total energy              =     -31.48082978 Ry
     Harris-Foulkes estimate   =     -31.55113791 Ry
     estimated scf accuracy    <       3.87045289 Ry

     iteration # 18     ecut=    30.00 Ry     beta=0.70
     Davidson diagonalization with overlap
     ethr =  1.00E-02,  avg # of iterations =  1.0

     negative rho (up, down):  6.294E-03 0.000E+00

     total cpu time spent up to now is       11.1 secs

     total energy              =     -31.76500131 Ry
     Harris-Foulkes estimate   =     -31.51890141 Ry
     estimated scf accuracy    <       1.18530065 Ry

     iteration # 19     ecut=    30.00 Ry     beta=0.70
     Davidson diagonalization with overlap
     ethr =  1.00E-02,  avg # of iterations =  1.0

     negative rho (up, down):  4.270E-02 0.000E+00

     total cpu time spent up to now is       11.2 secs

     total energy              =     -32.04832648 Ry
     Harris-Foulkes estimate   =     -31.86817947 Ry
     estimated scf accuracy    <       1.51320739 Ry

     iteration # 20     ecut=    30.00 Ry     beta=0.70
     Davidson diagonalization with overlap
     ethr =  1.00E-02,  avg # of iterations =  1.0

     negative rho (up, down):  1.541E-02 0.000E+00

     total cpu time spent up to now is       11.2 secs

     total energy              =     -31.85591504 Ry
     Harris-Foulkes estimate   =     -32.05061348 Ry
     estimated scf accuracy    <       1.79237094 Ry

     iteration # 21     ecut=    30.00 Ry     beta=0.70
     Davidson diagonalization with overlap
     ethr =  1.00E-02,  avg # of iterations =  1.0

     negative rho (up, down):  2.978E-03 0.000E+00

     total cpu time spent up to now is       11.3 secs

     total energy              =     -31.57017927 Ry
     Harris-Foulkes estimate   =     -31.85725353 Ry
     estimated scf accuracy    <       1.51568427 Ry

     iteration # 22     ecut=    30.00 Ry     beta=0.70
     Davidson diagonalization with overlap
     ethr =  1.00E-02,  avg # of iterations =  1.0

     negative rho (up, down):  1.699E-02 0.000E+00

     total cpu time spent up to now is       11.3 secs

     total energy              =     -31.38352140 Ry
     Harris-Foulkes estimate   =     -31.58511768 Ry
     estimated scf accuracy    <       1.01945750 Ry

     iteration # 23     ecut=    30.00 Ry     beta=0.70
     Davidson diagonalization with overlap
     ethr =  1.00E-02,  avg # of iterations =  2.0

     negative rho (up, down):  1.346E-07 0.000E+00

     total cpu time spent up to now is       11.4 secs

     total energy              =     -31.81507081 Ry
     Harris-Foulkes estimate   =     -32.36240786 Ry
     estimated scf accuracy    <       2.30772136 Ry

     iteration # 24     ecut=    30.00 Ry     beta=0.70
     Davidson diagonalization with overlap
     ethr =  1.00E-02,  avg # of iterations =  1.0

     negative rho (up, down):  4.947E-08 0.000E+00

     total cpu time spent up to now is       11.4 secs

     total energy              =     -31.71452895 Ry
     Harris-Foulkes estimate   =     -31.82376980 Ry
     estimated scf accuracy    <       1.46947473 Ry

     iteration # 25     ecut=    30.00 Ry     beta=0.70
     Davidson diagonalization with overlap
     ethr =  1.00E-02,  avg # of iterations =  1.0

     negative rho (up, down):  4.857E-08 0.000E+00

     total cpu time spent up to now is       11.5 secs

     total energy              =     -31.48125508 Ry
     Harris-Foulkes estimate   =     -31.71531309 Ry
     estimated scf accuracy    <       1.30288754 Ry

     iteration # 26     ecut=    30.00 Ry     beta=0.70
     Davidson diagonalization with overlap
     ethr =  1.00E-02,  avg # of iterations =  1.0

     total cpu time spent up to now is       11.5 secs

     total energy              =     -31.46419205 Ry
     Harris-Foulkes estimate   =     -31.50796742 Ry
     estimated scf accuracy    <       1.22935969 Ry

     iteration # 27     ecut=    30.00 Ry     beta=0.70
     Davidson diagonalization with overlap
     ethr =  1.00E-02,  avg # of iterations =  1.0

     total cpu time spent up to now is       11.6 secs

     total energy              =     -31.43397184 Ry
     Harris-Foulkes estimate   =     -31.59208452 Ry
     estimated scf accuracy    <       1.16472778 Ry

     iteration # 28     ecut=    30.00 Ry     beta=0.70
     Davidson diagonalization with overlap
     ethr =  1.00E-02,  avg # of iterations =  1.0

     total cpu time spent up to now is       11.6 secs

     total energy              =     -31.46310364 Ry
     Harris-Foulkes estimate   =     -31.50714412 Ry
     estimated scf accuracy    <       0.57372612 Ry

     iteration # 29     ecut=    30.00 Ry     beta=0.70
     Davidson diagonalization with overlap
     ethr =  7.17E-03,  avg # of iterations =  1.0

     total cpu time spent up to now is       11.7 secs

     total energy              =     -31.48490053 Ry
     Harris-Foulkes estimate   =     -31.50565791 Ry
     estimated scf accuracy    <       0.51592314 Ry

     iteration # 30     ecut=    30.00 Ry     beta=0.70
     Davidson diagonalization with overlap
     ethr =  6.45E-03,  avg # of iterations =  1.0

     total cpu time spent up to now is       11.7 secs

     total energy              =     -31.48789610 Ry
     Harris-Foulkes estimate   =     -31.49281117 Ry
     estimated scf accuracy    <       0.20697866 Ry

     iteration # 31     ecut=    30.00 Ry     beta=0.70
     Davidson diagonalization with overlap
     ethr =  2.59E-03,  avg # of iterations =  1.0

     total cpu time spent up to now is       11.8 secs

     total energy              =     -31.49539978 Ry
     Harris-Foulkes estimate   =     -31.51549573 Ry
     estimated scf accuracy    <       0.74406652 Ry

     iteration # 32     ecut=    30.00 Ry     beta=0.70
     Davidson diagonalization with overlap
     ethr =  2.59E-03,  avg # of iterations =  1.0

     total cpu time spent up to now is       11.8 secs

     total energy              =     -31.51212862 Ry
     Harris-Foulkes estimate   =     -31.49875397 Ry
     estimated scf accuracy    <       0.37647197 Ry

     iteration # 33     ecut=    30.00 Ry     beta=0.70
     Davidson diagonalization with overlap
     ethr =  2.59E-03,  avg # of iterations =  1.0

     total cpu time spent up to now is       11.9 secs

     total energy              =     -31.50438629 Ry
     Harris-Foulkes estimate   =     -31.51608770 Ry
     estimated scf accuracy    <       0.73094777 Ry

     iteration # 34     ecut=    30.00 Ry     beta=0.70
     Davidson diagonalization with overlap
     ethr =  2.59E-03,  avg # of iterations =  1.0

     total cpu time spent up to now is       11.9 secs

     total energy              =     -31.45404431 Ry
     Harris-Foulkes estimate   =     -31.50514661 Ry
     estimated scf accuracy    <       0.53325795 Ry

     iteration # 35     ecut=    30.00 Ry     beta=0.70
     Davidson diagonalization with overlap
     ethr =  2.59E-03,  avg # of iterations =  1.0

     total cpu time spent up to now is       12.0 secs

     total energy              =     -31.50152633 Ry
     Harris-Foulkes estimate   =     -31.51004085 Ry
     estimated scf accuracy    <       0.64710261 Ry

     iteration # 36     ecut=    30.00 Ry     beta=0.70
     Davidson diagonalization with overlap
     ethr =  2.59E-03,  avg # of iterations =  1.0

     total cpu time spent up to now is       12.0 secs

     total energy              =     -31.47616371 Ry
     Harris-Foulkes estimate   =     -31.50209658 Ry
     estimated scf accuracy    <       0.45763838 Ry

     iteration # 37     ecut=    30.00 Ry     beta=0.70
     Davidson diagonalization with overlap
     ethr =  2.59E-03,  avg # of iterations =  1.0

     total cpu time spent up to now is       12.1 secs

     total energy              =     -31.49130094 Ry
     Harris-Foulkes estimate   =     -31.49241205 Ry
     estimated scf accuracy    <       0.13887715 Ry

     iteration # 38     ecut=    30.00 Ry     beta=0.70
     Davidson diagonalization with overlap
     ethr =  1.74E-03,  avg # of iterations =  1.0

     total cpu time spent up to now is       12.1 secs

     total energy              =     -31.49124495 Ry
     Harris-Foulkes estimate   =     -31.49149868 Ry
     estimated scf accuracy    <       0.08755280 Ry

     iteration # 39     ecut=    30.00 Ry     beta=0.70
     Davidson diagonalization with overlap
     ethr =  1.09E-03,  avg # of iterations =  1.0

     total cpu time spent up to now is       12.2 secs

     total energy              =     -31.49131705 Ry
     Harris-Foulkes estimate   =     -31.49126046 Ry
     estimated scf accuracy    <       0.06692196 Ry

     iteration # 40     ecut=    30.00 Ry     beta=0.70
     Davidson diagonalization with overlap
     ethr =  8.37E-04,  avg # of iterations =  1.0

     total cpu time spent up to now is       12.2 secs

     total energy              =     -31.49134638 Ry
     Harris-Foulkes estimate   =     -31.49131885 Ry
     estimated scf accuracy    <       0.07060753 Ry

     iteration # 41     ecut=    30.00 Ry     beta=0.70
     Davidson diagonalization with overlap
     ethr =  8.37E-04,  avg # of iterations =  1.0

     total cpu time spent up to now is       12.3 secs

     total energy              =     -31.49169050 Ry
     Harris-Foulkes estimate   =     -31.49134687 Ry
     estimated scf accuracy    <       0.07223431 Ry

     iteration # 42     ecut=    30.00 Ry     beta=0.70
     Davidson diagonalization with overlap
     ethr =  8.37E-04,  avg # of iterations =  1.0

     total cpu time spent up to now is       12.3 secs

     total energy              =     -31.48985419 Ry
     Harris-Foulkes estimate   =     -31.49173107 Ry
     estimated scf accuracy    <       0.10823039 Ry

     iteration # 43     ecut=    30.00 Ry     beta=0.70
     Davidson diagonalization with overlap
     ethr =  8.37E-04,  avg # of iterations =  1.0

     total cpu time spent up to now is       12.4 secs

     total energy              =     -31.49021729 Ry
     Harris-Foulkes estimate   =     -31.49060180 Ry
     estimated scf accuracy    <       0.01104697 Ry

     iteration # 44     ecut=    30.00 Ry     beta=0.70
     Davidson diagonalization with overlap
     ethr =  1.38E-04,  avg # of iterations =  1.0

     total cpu time spent up to now is       12.4 secs

[...]

     total energy              =     127.13334001 Ry
     Harris-Foulkes estimate   =  -46245.06258771 Ry
     estimated scf accuracy    <      27.57441967 Ry

     iteration # 59     ecut=    30.00 Ry     beta=0.70
     Davidson diagonalization with overlap
     ethr =  1.00E-02,  avg # of iterations =  8.0

     negative rho (up, down):  7.694E-01 0.000E+00

     total cpu time spent up to now is       46.7 secs

     total energy              =     121.15392364 Ry
     Harris-Foulkes estimate   =   -1445.92005429 Ry
     estimated scf accuracy    <      22.88525425 Ry

     iteration # 60     ecut=    30.00 Ry     beta=0.70
     Davidson diagonalization with overlap
     ethr =  1.00E-02,  avg # of iterations = 10.0

     negative rho (up, down):  9.697E-03 0.000E+00

     total cpu time spent up to now is       46.8 secs

     total energy              =     127.31879864 Ry
     Harris-Foulkes estimate   =    -382.18908457 Ry
     estimated scf accuracy    <      27.90092698 Ry

     iteration # 61     ecut=    30.00 Ry     beta=0.70
     Davidson diagonalization with overlap
     ethr =  1.00E-02,  avg # of iterations =  8.0

     negative rho (up, down):  2.440E-03 0.000E+00

     total cpu time spent up to now is       46.9 secs

     total energy              =     -23.64314973 Ry
     Harris-Foulkes estimate   =     -79.71974317 Ry
     estimated scf accuracy    <      32.37716545 Ry

     iteration # 62     ecut=    30.00 Ry     beta=0.70
     Davidson diagonalization with overlap
     ethr =  1.00E-02,  avg # of iterations =  4.0

     negative rho (up, down):  5.784E-02 0.000E+00

     total cpu time spent up to now is       47.0 secs

     total energy              =     -63.52942157 Ry
     Harris-Foulkes estimate   =     -66.23772566 Ry
     estimated scf accuracy    <      47.13621560 Ry

     iteration # 63     ecut=    30.00 Ry     beta=0.70
     Davidson diagonalization with overlap
     ethr =  1.00E-02,  avg # of iterations = 10.0

     negative rho (up, down):  9.309E-02 0.000E+00

     total cpu time spent up to now is       47.1 secs

     total energy              =      56.99063773 Ry
     Harris-Foulkes estimate   =    -427.32208019 Ry
     estimated scf accuracy    <      23.86637982 Ry

     iteration # 64     ecut=    30.00 Ry     beta=0.70
     Davidson diagonalization with overlap
     ethr =  1.00E-02,  avg # of iterations =  5.0

     negative rho (up, down):  2.606E-01 0.000E+00

     total cpu time spent up to now is       47.1 secs

     total energy              =     -56.63250714 Ry
     Harris-Foulkes estimate   =     -62.36175979 Ry
     estimated scf accuracy    <      41.75797394 Ry

     iteration # 65     ecut=    30.00 Ry     beta=0.70
     Davidson diagonalization with overlap
     ethr =  1.00E-02,  avg # of iterations =  3.0

     negative rho (up, down):  6.585E-01 0.000E+00

     total cpu time spent up to now is       47.2 secs

     total energy              =     -45.57267467 Ry
     Harris-Foulkes estimate   =     -56.65969911 Ry
     estimated scf accuracy    <      35.20061533 Ry

     iteration # 66     ecut=    30.00 Ry     beta=0.70
     Davidson diagonalization with overlap
     ethr =  1.00E-02,  avg # of iterations =  6.0

     negative rho (up, down):  4.938E-01 0.000E+00

     total cpu time spent up to now is       47.3 secs

     total energy              =    -407.29809986 Ry
     Harris-Foulkes estimate   =   -1173.84358652 Ry
     estimated scf accuracy    <      12.03648779 Ry

     iteration # 67     ecut=    30.00 Ry     beta=0.70
     Davidson diagonalization with overlap
     ethr =  1.00E-02,  avg # of iterations =  4.0

     negative rho (up, down):  4.234E-01 0.000E+00

     total cpu time spent up to now is       47.3 secs

     total energy              =      80.04100477 Ry
     Harris-Foulkes estimate   =   -4208.69597034 Ry
     estimated scf accuracy    <      41.49444765 Ry

     iteration # 68     ecut=    30.00 Ry     beta=0.70
     Davidson diagonalization with overlap
     ethr =  1.00E-02,  avg # of iterations =  8.0

     negative rho (up, down):  5.783E-01 0.000E+00

     total cpu time spent up to now is       47.4 secs

     total energy              =     -15.96729620 Ry
     Harris-Foulkes estimate   =    -114.98567341 Ry
     estimated scf accuracy    <      12.89331002 Ry

     iteration # 69     ecut=    30.00 Ry     beta=0.70
     Davidson diagonalization with overlap
     ethr =  1.00E-02,  avg # of iterations =  6.0

     negative rho (up, down):  6.218E-01 0.000E+00

     total cpu time spent up to now is       47.5 secs

     total energy              =      -7.21573164 Ry
     Harris-Foulkes estimate   =     -84.38845509 Ry
     estimated scf accuracy    <       9.21328291 Ry

     iteration # 70     ecut=    30.00 Ry     beta=0.70
     Davidson diagonalization with overlap
     ethr =  1.00E-02,  avg # of iterations = 10.0

     negative rho (up, down):  2.316E-03 0.000E+00

     total cpu time spent up to now is       47.6 secs

     total energy              =     114.40181094 Ry
     Harris-Foulkes estimate   =    -641.38807467 Ry
     estimated scf accuracy    <      47.53649255 Ry

     iteration # 71     ecut=    30.00 Ry     beta=0.70
     Davidson diagonalization with overlap
     ethr =  1.00E-02,  avg # of iterations =  8.0

     negative rho (up, down):  9.192E-03 0.000E+00

     total cpu time spent up to now is       47.7 secs

     total energy              =     -43.27607360 Ry
     Harris-Foulkes estimate   =     -48.80594569 Ry
     estimated scf accuracy    <      25.26113441 Ry

     iteration # 72     ecut=    30.00 Ry     beta=0.70
     Davidson diagonalization with overlap
     ethr =  1.00E-02,  avg # of iterations =  5.0

     negative rho (up, down):  2.129E-02 0.000E+00

     total cpu time spent up to now is       47.7 secs

     total energy              =     -42.78599816 Ry
     Harris-Foulkes estimate   =     -43.31787915 Ry
     estimated scf accuracy    <      18.41001799 Ry

     iteration # 73     ecut=    30.00 Ry     beta=0.70
     Davidson diagonalization with overlap
     ethr =  1.00E-02,  avg # of iterations =  4.0

     negative rho (up, down):  2.009E-02 0.000E+00

     total cpu time spent up to now is       47.8 secs

     total energy              =     -11.33521729 Ry
     Harris-Foulkes estimate   =    -270.40827379 Ry
     estimated scf accuracy    <       8.42560897 Ry

     iteration # 74     ecut=    30.00 Ry     beta=0.70
     Davidson diagonalization with overlap
     ethr =  1.00E-02,  avg # of iterations =  8.0

     negative rho (up, down):  2.980E-03 0.000E+00

     total cpu time spent up to now is       47.9 secs

     total energy              =      16.14936441 Ry
     Harris-Foulkes estimate   =     -61.25504719 Ry
     estimated scf accuracy    <      10.33933452 Ry

     iteration # 75     ecut=    30.00 Ry     beta=0.70
     Davidson diagonalization with overlap
     ethr =  1.00E-02,  avg # of iterations =  8.0

     negative rho (up, down):  4.312E-04 0.000E+00

     total cpu time spent up to now is       47.9 secs

     total energy              =     -11.90709753 Ry
     Harris-Foulkes estimate   =     -46.28964633 Ry
     estimated scf accuracy    <       7.75966127 Ry

     iteration # 76     ecut=    30.00 Ry     beta=0.70
     Davidson diagonalization with overlap
     ethr =  1.00E-02,  avg # of iterations =  3.0

     negative rho (up, down):  3.720E-02 0.000E+00

     total cpu time spent up to now is       48.0 secs

     total energy              =     -38.89556445 Ry
     Harris-Foulkes estimate   =     -41.71921915 Ry
     estimated scf accuracy    <      16.25952040 Ry

     iteration # 77     ecut=    30.00 Ry     beta=0.70
     Davidson diagonalization with overlap
     ethr =  1.00E-02,  avg # of iterations =  1.0

     negative rho (up, down):  1.365E-02 0.000E+00

     total cpu time spent up to now is       48.0 secs

     total energy              =     -36.66116800 Ry
     Harris-Foulkes estimate   =     -38.91040041 Ry
     estimated scf accuracy    <      12.61821358 Ry

     iteration # 78     ecut=    30.00 Ry     beta=0.70
     Davidson diagonalization with overlap
     ethr =  1.00E-02,  avg # of iterations =  1.0

     negative rho (up, down):  2.084E-02 0.000E+00

     total cpu time spent up to now is       48.1 secs

     total energy              =     -34.60416685 Ry
     Harris-Foulkes estimate   =     -36.69670269 Ry
     estimated scf accuracy    <       9.59978610 Ry

     iteration # 79     ecut=    30.00 Ry     beta=0.70
     Davidson diagonalization with overlap
     ethr =  1.00E-02,  avg # of iterations =  1.0

     negative rho (up, down):  1.345E-02 0.000E+00

     total cpu time spent up to now is       48.2 secs

     total energy              =     -34.70951874 Ry
     Harris-Foulkes estimate   =     -34.62661141 Ry
     estimated scf accuracy    <       6.12833364 Ry

     iteration # 80     ecut=    30.00 Ry     beta=0.70
     Davidson diagonalization with overlap
     ethr =  1.00E-02,  avg # of iterations =  4.0

     negative rho (up, down):  4.888E-02 0.000E+00

     total cpu time spent up to now is       48.2 secs

     total energy              =     -63.67060290 Ry
     Harris-Foulkes estimate   =    -159.49896083 Ry
     estimated scf accuracy    <       9.03124989 Ry

     iteration # 81     ecut=    30.00 Ry     beta=0.70
     Davidson diagonalization with overlap
     ethr =  1.00E-02,  avg # of iterations =  5.0

     negative rho (up, down):  3.836E-02 0.000E+00

     total cpu time spent up to now is       48.3 secs

     total energy              =      26.08055928 Ry
     Harris-Foulkes estimate   =    -174.97880397 Ry
     estimated scf accuracy    <      30.96103832 Ry

     iteration # 82     ecut=    30.00 Ry     beta=0.70
     Davidson diagonalization with overlap
     ethr =  1.00E-02,  avg # of iterations =  7.0

     negative rho (up, down):  5.706E-02 0.000E+00

     total cpu time spent up to now is       48.4 secs

     total energy              =     -41.76118943 Ry
     Harris-Foulkes estimate   =    -106.85165163 Ry
     estimated scf accuracy    <       8.62973168 Ry

     iteration # 83     ecut=    30.00 Ry     beta=0.70
     Davidson diagonalization with overlap
     ethr =  1.00E-02,  avg # of iterations =  6.0

     negative rho (up, down):  2.789E-02 0.000E+00

     total cpu time spent up to now is       48.4 secs

     total energy              =      58.12296299 Ry
     Harris-Foulkes estimate   =    -161.28664977 Ry
     estimated scf accuracy    <      34.72537022 Ry

     iteration # 84     ecut=    30.00 Ry     beta=0.70
     Davidson diagonalization with overlap
     ethr =  1.00E-02,  avg # of iterations =  6.0

     negative rho (up, down):  8.775E-03 0.000E+00

     total cpu time spent up to now is       48.5 secs

     total energy              =      49.38231072 Ry
     Harris-Foulkes estimate   =    -114.56647975 Ry
     estimated scf accuracy    <      25.66616834 Ry

     iteration # 85     ecut=    30.00 Ry     beta=0.70
     Davidson diagonalization with overlap
     ethr =  1.00E-02,  avg # of iterations =  4.0

     negative rho (up, down):  1.723E-02 0.000E+00

     total cpu time spent up to now is       48.6 secs

     total energy              =     -35.50321158 Ry
     Harris-Foulkes estimate   =     -36.96958865 Ry
     estimated scf accuracy    <       9.97223266 Ry

     iteration # 86     ecut=    30.00 Ry     beta=0.70
     Davidson diagonalization with overlap
     ethr =  1.00E-02,  avg # of iterations =  9.0

     negative rho (up, down):  1.334E-02 0.000E+00

     total cpu time spent up to now is       48.6 secs

     total energy              =      52.04374260 Ry
     Harris-Foulkes estimate   =    -188.99124092 Ry
     estimated scf accuracy    <      25.36846028 Ry

     iteration # 87     ecut=    30.00 Ry     beta=0.70
     Davidson diagonalization with overlap
     ethr =  1.00E-02,  avg # of iterations =  5.0

     negative rho (up, down):  2.444E-02 0.000E+00

     total cpu time spent up to now is       48.7 secs

     total energy              =      21.92872522 Ry
     Harris-Foulkes estimate   =    -124.53154843 Ry
     estimated scf accuracy    <      10.67286372 Ry

     iteration # 88     ecut=    30.00 Ry     beta=0.70
     Davidson diagonalization with overlap
     ethr =  1.00E-02,  avg # of iterations =  4.0

     negative rho (up, down):  9.543E-02 0.000E+00

     total cpu time spent up to now is       48.8 secs

     total energy              =     -34.74245186 Ry
     Harris-Foulkes estimate   =     -36.13671205 Ry
     estimated scf accuracy    <       8.79810079 Ry

     iteration # 89     ecut=    30.00 Ry     beta=0.70
     Davidson diagonalization with overlap
     ethr =  1.00E-02,  avg # of iterations =  1.0

     negative rho (up, down):  9.015E-02 0.000E+00

     total cpu time spent up to now is       48.8 secs

     total energy              =     -34.98482722 Ry
     Harris-Foulkes estimate   =     -35.19550603 Ry
     estimated scf accuracy    <       6.32681893 Ry

     iteration # 90     ecut=    30.00 Ry     beta=0.70
     Davidson diagonalization with overlap
     ethr =  1.00E-02,  avg # of iterations =  1.0

     negative rho (up, down):  5.328E-02 0.000E+00

     total cpu time spent up to now is       48.9 secs

     total energy              =     -34.79007906 Ry
     Harris-Foulkes estimate   =     -34.98720700 Ry
     estimated scf accuracy    <       6.11151755 Ry

     iteration # 91     ecut=    30.00 Ry     beta=0.70
     Davidson diagonalization with overlap
     ethr =  1.00E-02,  avg # of iterations =  4.0

     negative rho (up, down):  1.457E-02 0.000E+00

     total cpu time spent up to now is       48.9 secs

     total energy              =       0.16484123 Ry
     Harris-Foulkes estimate   =    -170.39141074 Ry
     estimated scf accuracy    <      10.66420432 Ry

     iteration # 92     ecut=    30.00 Ry     beta=0.70
     Davidson diagonalization with overlap
     ethr =  1.00E-02,  avg # of iterations =  4.0

     negative rho (up, down):  6.415E-04 0.000E+00

     total cpu time spent up to now is       49.0 secs

     total energy              =     -34.55983326 Ry
     Harris-Foulkes estimate   =     -34.72564992 Ry
     estimated scf accuracy    <       5.27846251 Ry

     iteration # 93     ecut=    30.00 Ry     beta=0.70
     Davidson diagonalization with overlap
     ethr =  1.00E-02,  avg # of iterations =  1.0

     negative rho (up, down):  2.116E-02 0.000E+00

     total cpu time spent up to now is       49.0 secs

     total energy              =     -33.83531230 Ry
     Harris-Foulkes estimate   =     -34.57205630 Ry
     estimated scf accuracy    <       5.06446791 Ry

     iteration # 94     ecut=    30.00 Ry     beta=0.70
     Davidson diagonalization with overlap
     ethr =  1.00E-02,  avg # of iterations =  6.0

     negative rho (up, down):  1.571E-04 0.000E+00

     total cpu time spent up to now is       49.1 secs

     total energy              =       6.56048791 Ry
     Harris-Foulkes estimate   =    -150.44318832 Ry
     estimated scf accuracy    <      17.92749237 Ry

     iteration # 95     ecut=    30.00 Ry     beta=0.70
     Davidson diagonalization with overlap
     ethr =  1.00E-02,  avg # of iterations =  3.0

     negative rho (up, down):  1.432E-02 0.000E+00

     total cpu time spent up to now is       49.2 secs

     total energy              =     -33.50915158 Ry
     Harris-Foulkes estimate   =     -34.32257339 Ry
     estimated scf accuracy    <       6.70438586 Ry

     iteration # 96     ecut=    30.00 Ry     beta=0.70
     Davidson diagonalization with overlap
     ethr =  1.00E-02,  avg # of iterations =  1.0

     negative rho (up, down):  2.200E-02 0.000E+00

     total cpu time spent up to now is       49.2 secs

     total energy              =     -33.07546364 Ry
     Harris-Foulkes estimate   =     -33.51986093 Ry
     estimated scf accuracy    <       4.28856605 Ry

     iteration # 97     ecut=    30.00 Ry     beta=0.70
     Davidson diagonalization with overlap
     ethr =  1.00E-02,  avg # of iterations =  9.0

     negative rho (up, down):  1.678E-02 0.000E+00

     total cpu time spent up to now is       49.3 secs

     total energy              =     225.16858867 Ry
     Harris-Foulkes estimate   =     -45.02655224 Ry
     estimated scf accuracy    <      12.54275550 Ry

     iteration # 98     ecut=    30.00 Ry     beta=0.70
     Davidson diagonalization with overlap
     ethr =  1.00E-02,  avg # of iterations =  5.0

     total cpu time spent up to now is       49.4 secs

     total energy              =     -16.13524003 Ry
     Harris-Foulkes estimate   =     -37.74850250 Ry
     estimated scf accuracy    <       5.59090202 Ry

     iteration # 99     ecut=    30.00 Ry     beta=0.70
     Davidson diagonalization with overlap
     ethr =  1.00E-02,  avg # of iterations =  4.0

     negative rho (up, down):  7.984E-05 0.000E+00

     total cpu time spent up to now is       49.4 secs

     total energy              =     -32.75010781 Ry
     Harris-Foulkes estimate   =     -33.13077019 Ry
     estimated scf accuracy    <       5.13311646 Ry

     iteration #100     ecut=    30.00 Ry     beta=0.70
     Davidson diagonalization with overlap
     ethr =  1.00E-02,  avg # of iterations =  1.0

     negative rho (up, down):  4.528E-03 0.000E+00

     total cpu time spent up to now is       49.5 secs

     total energy              =     -33.01111026 Ry
     Harris-Foulkes estimate   =     -32.87270081 Ry
     estimated scf accuracy    <       3.05497660 Ry

     End of self-consistent calculation

     convergence NOT achieved after 100 iterations: stopping

     Writing output data file pwscf.save
 
     init_run     :      0.18s CPU      0.19s WALL (       1 calls)
     electrons    :     32.07s CPU     39.50s WALL (      22 calls)
     update_pot   :      4.83s CPU      6.61s WALL (      21 calls)
     forces       :      0.89s CPU      0.90s WALL (      21 calls)

     Called by init_run:
     wfcinit      :      0.01s CPU      0.02s WALL (       1 calls)
     potinit      :      0.05s CPU      0.05s WALL (       1 calls)

     Called by electrons:
     c_bands      :     14.71s CPU     15.40s WALL (     619 calls)
     sum_band     :      3.22s CPU      3.36s WALL (     619 calls)
     v_of_rho     :      7.91s CPU      8.17s WALL (     641 calls)
     mix_rho      :      4.37s CPU      8.62s WALL (     619 calls)

     Called by c_bands:
     init_us_2    :      0.09s CPU      0.12s WALL (    1239 calls)
     cegterg      :     14.54s CPU     15.04s WALL (     619 calls)

     Called by sum_band:

     Called by *egterg:
     h_psi        :     12.44s CPU     12.81s WALL (    2568 calls)
     g_psi        :      0.12s CPU      0.13s WALL (    1948 calls)
     cdiaghg      :      0.82s CPU      0.86s WALL (    2546 calls)

     Called by h_psi:
     h_psi:pot    :     12.37s CPU     12.73s WALL (    2568 calls)
     h_psi:calbec :      0.13s CPU      0.16s WALL (    2568 calls)
     vloc_psi     :     12.18s CPU     12.52s WALL (    2568 calls)
     add_vuspsi   :      0.03s CPU      0.03s WALL (    2568 calls)

     General routines
     calbec       :      0.22s CPU      0.27s WALL (    2672 calls)
     fft          :      4.58s CPU      4.73s WALL (    7093 calls)
     fftw         :     13.16s CPU     13.57s WALL (   32184 calls)
     davcio       :      0.74s CPU      3.86s WALL (   10435 calls)
 
     Parallel routines
     fft_scatter  :      5.58s CPU      5.91s WALL (   39277 calls)
 
     PWSCF        :    38.94s CPU        49.74s WALL

 
   This run was terminated on:  13:18:36  13Feb2018            

=------------------------------------------------------------------------------=
   JOB DONE.
=------------------------------------------------------------------------------=
