
     Program PWSCF v.6.0 (svn rev. 13079) starts on 13Feb2018 at 16:18:12 

     This program is part of the open-source Quantum ESPRESSO suite
     for quantum simulation of materials; please cite
         "P. Giannozzi et al., J. Phys.:Condens. Matter 21 395502 (2009);
          URL http://www.quantum-espresso.org", 
     in publications or presentations arising from this work. More details at
     http://www.quantum-espresso.org/quote

     Parallel version (MPI), running on    28 processors
     R & G space division:  proc/nbgrp/npool/nimage =      28
     Reading input from inputs/MD-H2O-round1/624.in

     Current dimensions of program PWSCF are:
     Max number of different atomic species (ntypx) = 10
     Max number of k-points (npk) =  40000
     Max angular momentum in pseudopotentials (lmaxx) =  3

     Subspace diagonalization in iterative solution of the eigenvalue problem:
     a serial algorithm will be used

 
     Parallelization info
     --------------------
     sticks:   dense  smooth     PW     G-vecs:    dense   smooth      PW
     Min         136     136     33                 6338     6338     787
     Max         137     137     34                 6341     6341     792
     Sum        3809    3809    949               177509   177509   22119
 


     bravais-lattice index     =            1
     lattice parameter (alat)  =      20.0000  a.u.
     unit-cell volume          =    8000.0000 (a.u.)^3
     number of atoms/cell      =            3
     number of atomic types    =            2
     number of electrons       =         8.00
     number of Kohn-Sham states=            8
     kinetic-energy cutoff     =      30.0000  Ry
     charge density cutoff     =     120.0000  Ry
     convergence threshold     =      1.0E-08
     mixing beta               =       0.7000
     number of iterations used =            8  plain     mixing
     Exchange-correlation      = BLYP ( 1  3  1  3 0 0)
     nstep                     =         5000


     celldm(1)=  20.000000  celldm(2)=   0.000000  celldm(3)=   0.000000
     celldm(4)=   0.000000  celldm(5)=   0.000000  celldm(6)=   0.000000

     crystal axes: (cart. coord. in units of alat)
               a(1) = (   1.000000   0.000000   0.000000 )  
               a(2) = (   0.000000   1.000000   0.000000 )  
               a(3) = (   0.000000   0.000000   1.000000 )  

     reciprocal axes: (cart. coord. in units 2 pi/alat)
               b(1) = (  1.000000  0.000000  0.000000 )  
               b(2) = (  0.000000  1.000000  0.000000 )  
               b(3) = (  0.000000  0.000000  1.000000 )  


     PseudoPot. # 1 for  H read from file:
     ./H.blyp-hgh.UPF
     MD5 check sum: c576e69559cde411e611be972c763230
     Pseudo is Norm-conserving, Zval =  1.0
     Generated in analytical, separable form
     Using radial grid of  929 points,  0 beta functions with: 

     PseudoPot. # 2 for  O read from file:
     ./O.blyp-hgh.UPF
     MD5 check sum: d0b7156309aa9befef28faac7bc56342
     Pseudo is Norm-conserving, Zval =  6.0
     Generated in analytical, separable form
     Using radial grid of 1095 points,  1 beta functions with: 
                l(1) =   0

     atomic species   valence    mass     pseudopotential
        H              1.00     1.01000      H( 1.00)
        O              6.00    16.00000      O( 1.00)

     No symmetry found



   Cartesian axes

     site n.     atom                  positions (alat units)
         1           O   tau(   1) = (   0.9244418   0.7110405   0.7294854  )
         2           H   tau(   2) = (   0.8925793   0.7845784   0.7242769  )
         3           H   tau(   3) = (   0.5727366   0.9399216   0.0105968  )

     number of k points=     1  Marzari-Vanderbilt smearing, width (Ry)=  0.0250
                       cart. coord. in units 2pi/alat
        k(    1) = (   0.0000000   0.0000000   0.0000000), wk =   2.0000000

     Dense  grid:   177509 G-vectors     FFT dimensions: (  72,  72,  72)

     Estimated max dynamical RAM per process >       6.09Mb

     Estimated total allocated dynamical RAM >     170.64Mb

     Initial potential from superposition of free atoms
     Check: negative starting charge=   -0.352089

     starting charge    7.99998, renormalised to    8.00000

     negative rho (up, down):  3.521E-01 0.000E+00
     Starting wfc are    6 randomized atomic wfcs +    2 random wfc

     total cpu time spent up to now is        0.3 secs

     per-process dynamical memory:    18.8 Mb

     Self-consistent Calculation

     iteration #  1     ecut=    30.00 Ry     beta=0.70
     Davidson diagonalization with overlap
     ethr =  1.00E-02,  avg # of iterations =  8.0

     negative rho (up, down):  9.470E-02 0.000E+00

     total cpu time spent up to now is        0.4 secs

     total energy              =     -31.56360677 Ry
     Harris-Foulkes estimate   =     -32.07460428 Ry
     estimated scf accuracy    <       0.53972970 Ry

     iteration #  2     ecut=    30.00 Ry     beta=0.70
     Davidson diagonalization with overlap
     ethr =  6.75E-03,  avg # of iterations =  3.0

     negative rho (up, down):  7.324E-02 0.000E+00

     total cpu time spent up to now is        0.5 secs

     total energy              =     -31.71020594 Ry
     Harris-Foulkes estimate   =     -32.38047022 Ry
     estimated scf accuracy    <       2.26502318 Ry

     iteration #  3     ecut=    30.00 Ry     beta=0.70
     Davidson diagonalization with overlap
     ethr =  6.75E-03,  avg # of iterations =  2.0

     negative rho (up, down):  2.689E-02 0.000E+00

     total cpu time spent up to now is        0.5 secs

     total energy              =     -31.70401180 Ry
     Harris-Foulkes estimate   =     -31.79959170 Ry
     estimated scf accuracy    <       0.57847761 Ry

     iteration #  4     ecut=    30.00 Ry     beta=0.70
     Davidson diagonalization with overlap
     ethr =  6.75E-03,  avg # of iterations =  1.0

     negative rho (up, down):  1.177E-02 0.000E+00

     total cpu time spent up to now is        0.6 secs

     total energy              =     -31.70800822 Ry
     Harris-Foulkes estimate   =     -31.97397857 Ry
     estimated scf accuracy    <       1.42833117 Ry

     iteration #  5     ecut=    30.00 Ry     beta=0.70
     Davidson diagonalization with overlap
     ethr =  6.75E-03,  avg # of iterations =  1.0

     negative rho (up, down):  9.219E-04 0.000E+00

     total cpu time spent up to now is        0.6 secs

     total energy              =     -31.85095554 Ry
     Harris-Foulkes estimate   =     -31.91650548 Ry
     estimated scf accuracy    <       0.96507280 Ry

     iteration #  6     ecut=    30.00 Ry     beta=0.70
     Davidson diagonalization with overlap
     ethr =  6.75E-03,  avg # of iterations =  1.0

     negative rho (up, down):  6.608E-04 0.000E+00

     total cpu time spent up to now is        0.6 secs

     total energy              =     -31.80152075 Ry
     Harris-Foulkes estimate   =     -31.85316072 Ry
     estimated scf accuracy    <       0.55374376 Ry

     iteration #  7     ecut=    30.00 Ry     beta=0.70
     Davidson diagonalization with overlap
     ethr =  6.75E-03,  avg # of iterations =  1.0

     negative rho (up, down):  2.511E-04 0.000E+00

     total cpu time spent up to now is        0.7 secs

     total energy              =     -31.86225432 Ry
     Harris-Foulkes estimate   =     -31.87893699 Ry
     estimated scf accuracy    <       1.63169215 Ry

     iteration #  8     ecut=    30.00 Ry     beta=0.70
     Davidson diagonalization with overlap
     ethr =  6.75E-03,  avg # of iterations =  1.0

     negative rho (up, down):  3.969E-05 0.000E+00

     total cpu time spent up to now is        0.7 secs

     total energy              =     -31.81982070 Ry
     Harris-Foulkes estimate   =     -31.86270373 Ry
     estimated scf accuracy    <       1.33342928 Ry

     iteration #  9     ecut=    30.00 Ry     beta=0.70
     Davidson diagonalization with overlap
     ethr =  6.75E-03,  avg # of iterations =  1.0

     negative rho (up, down):  6.146E-08 0.000E+00

     total cpu time spent up to now is        0.8 secs

     total energy              =     -31.84320031 Ry
     Harris-Foulkes estimate   =     -31.84290075 Ry
     estimated scf accuracy    <       0.03388111 Ry

     iteration # 10     ecut=    30.00 Ry     beta=0.70
     Davidson diagonalization with overlap
     ethr =  4.24E-04,  avg # of iterations =  1.0

     negative rho (up, down):  6.786E-07 0.000E+00

     total cpu time spent up to now is        0.8 secs

     total energy              =     -31.84204526 Ry
     Harris-Foulkes estimate   =     -31.84325298 Ry
     estimated scf accuracy    <       0.05767305 Ry

     iteration # 11     ecut=    30.00 Ry     beta=0.70
     Davidson diagonalization with overlap
     ethr =  4.24E-04,  avg # of iterations =  1.0

     negative rho (up, down):  1.644E-07 0.000E+00

     total cpu time spent up to now is        0.9 secs

     total energy              =     -31.84286621 Ry
     Harris-Foulkes estimate   =     -31.84249121 Ry
     estimated scf accuracy    <       0.00336199 Ry

     iteration # 12     ecut=    30.00 Ry     beta=0.70
     Davidson diagonalization with overlap
     ethr =  4.20E-05,  avg # of iterations =  8.0

     total cpu time spent up to now is        0.9 secs

     total energy              =     -31.84097056 Ry
     Harris-Foulkes estimate   =     -31.84357798 Ry
     estimated scf accuracy    <       0.07994304 Ry

     iteration # 13     ecut=    30.00 Ry     beta=0.70
     Davidson diagonalization with overlap
     ethr =  4.20E-05,  avg # of iterations =  1.0

     total cpu time spent up to now is        1.0 secs

     total energy              =     -31.84241237 Ry
     Harris-Foulkes estimate   =     -31.84248821 Ry
     estimated scf accuracy    <       0.00330831 Ry

     iteration # 14     ecut=    30.00 Ry     beta=0.70
     Davidson diagonalization with overlap
     ethr =  4.14E-05,  avg # of iterations =  1.0

     total cpu time spent up to now is        1.0 secs

     total energy              =     -31.84244766 Ry
     Harris-Foulkes estimate   =     -31.84244658 Ry
     estimated scf accuracy    <       0.00003705 Ry

     iteration # 15     ecut=    30.00 Ry     beta=0.70
     Davidson diagonalization with overlap
     c_bands:  1 eigenvalues not converged
     ethr =  4.63E-07,  avg # of iterations = 20.0

     total cpu time spent up to now is        1.1 secs

     total energy              =     -31.84244613 Ry
     Harris-Foulkes estimate   =     -31.84244778 Ry
     estimated scf accuracy    <       0.00005311 Ry

     iteration # 16     ecut=    30.00 Ry     beta=0.70
     Davidson diagonalization with overlap
     ethr =  4.63E-07,  avg # of iterations =  1.0

     total cpu time spent up to now is        1.2 secs

     total energy              =     -31.84244675 Ry
     Harris-Foulkes estimate   =     -31.84244806 Ry
     estimated scf accuracy    <       0.00002340 Ry

     iteration # 17     ecut=    30.00 Ry     beta=0.70
     Davidson diagonalization with overlap
     ethr =  2.93E-07,  avg # of iterations =  1.0

     total cpu time spent up to now is        1.2 secs

     total energy              =     -31.84244707 Ry
     Harris-Foulkes estimate   =     -31.84244707 Ry
     estimated scf accuracy    <       0.00000004 Ry

     iteration # 18     ecut=    30.00 Ry     beta=0.70
     Davidson diagonalization with overlap
     ethr =  5.00E-10,  avg # of iterations =  2.0

     total cpu time spent up to now is        1.3 secs

     total energy              =     -31.84244710 Ry
     Harris-Foulkes estimate   =     -31.84244708 Ry
     estimated scf accuracy    <       0.00000010 Ry

     iteration # 19     ecut=    30.00 Ry     beta=0.70
     Davidson diagonalization with overlap
     ethr =  5.00E-10,  avg # of iterations =  1.0

     total cpu time spent up to now is        1.3 secs

     total energy              =     -31.84244710 Ry
     Harris-Foulkes estimate   =     -31.84244710 Ry
     estimated scf accuracy    <       0.00000005 Ry

     iteration # 20     ecut=    30.00 Ry     beta=0.70
     Davidson diagonalization with overlap
     ethr =  5.00E-10,  avg # of iterations =  1.0

     total cpu time spent up to now is        1.4 secs

     total energy              =     -31.84244711 Ry
     Harris-Foulkes estimate   =     -31.84244710 Ry
     estimated scf accuracy    <       0.00000001 Ry

     iteration # 21     ecut=    30.00 Ry     beta=0.70
     Davidson diagonalization with overlap
     ethr =  1.52E-10,  avg # of iterations =  1.0

     total cpu time spent up to now is        1.4 secs

     End of self-consistent calculation

          k = 0.0000 0.0000 0.0000 ( 22119 PWs)   bands (ev):

   -26.1856 -11.1001  -7.1892  -7.1878  -7.0433  -0.4621   0.4329   0.8101

     the Fermi energy is    -7.0161 ev

!    total energy              =     -31.84244711 Ry
     Harris-Foulkes estimate   =     -31.84244711 Ry
     estimated scf accuracy    <          5.7E-11 Ry

     convergence has been achieved in  21 iterations

     Forces acting on atoms (Ry/au):

     atom    1 type  2   force =     0.24157900   -0.55811843    0.03998046
     atom    2 type  1   force =    -0.24161958    0.55845598   -0.04006828
     atom    3 type  1   force =     0.00004058   -0.00033755    0.00008782

     Total force =     0.862156     Total SCF correction =     0.000004

     Molecular Dynamics Calculation

     Starting temperature  =  1000.00 K

     temperature is controlled by Andersen thermostat
     Collision frequency = 1.0000/timestep
     mass H                =     1.01
     mass O                =    16.00
     Time step             =   100.00 a.u.,  4.8378 femto-seconds

     Entering Dynamics:    iteration =     1
                           time      =   0.0048 pico-seconds


     Andersen thermostat:    3 collisions

ATOMIC_POSITIONS (bohr)
O       18.559154148  14.022022841  14.581684542
H       16.540765753  18.905267016  14.170571770
H       11.651586551  18.733853342   0.654006517


     kinetic energy (Ekin) =     0.01337019 Ry
     temperature           =   703.66124461 K 
     Ekin + Etot (const)   =   -31.82907692 Ry

     Linear momentum :   -0.0000000000   -0.0000000000   -0.0000000000

     Writing output data file pwscf.save
     Check: negative starting charge=   -0.352089
     NEW-OLD atomic charge density approx. for the potential
     Check: negative starting charge=   -0.343491

     negative rho (up, down):  4.255E-01 0.000E+00

     total cpu time spent up to now is        1.8 secs

     per-process dynamical memory:    20.4 Mb

     Self-consistent Calculation

     iteration #  1     ecut=    30.00 Ry     beta=0.70
     Davidson diagonalization with overlap
     c_bands:  1 eigenvalues not converged
     ethr =  1.00E-06,  avg # of iterations = 20.0

     negative rho (up, down):  9.881E-02 0.000E+00

     total cpu time spent up to now is        1.9 secs

     total energy              =     -25.59980575 Ry
     Harris-Foulkes estimate   =     -32.72348648 Ry
     estimated scf accuracy    <       5.29903504 Ry

     iteration #  2     ecut=    30.00 Ry     beta=0.70
     Davidson diagonalization with overlap
     ethr =  1.00E-02,  avg # of iterations =  5.0

     negative rho (up, down):  7.187E-02 0.000E+00

     total cpu time spent up to now is        2.0 secs

     total energy              =     -32.61089572 Ry
     Harris-Foulkes estimate   =     -38.28689890 Ry
     estimated scf accuracy    <      13.94427610 Ry

     iteration #  3     ecut=    30.00 Ry     beta=0.70
     Davidson diagonalization with overlap
     ethr =  1.00E-02,  avg # of iterations =  2.0

     negative rho (up, down):  5.934E-02 0.000E+00

     total cpu time spent up to now is        2.1 secs

     total energy              =     -31.95333072 Ry
     Harris-Foulkes estimate   =     -32.99508243 Ry
     estimated scf accuracy    <       5.15125111 Ry

     iteration #  4     ecut=    30.00 Ry     beta=0.70
     Davidson diagonalization with overlap
     ethr =  1.00E-02,  avg # of iterations =  4.0

     negative rho (up, down):  2.690E-02 0.000E+00

     total cpu time spent up to now is        2.1 secs

     total energy              =     -30.51994555 Ry
     Harris-Foulkes estimate   =     -31.97887038 Ry
     estimated scf accuracy    <       3.35127562 Ry

     iteration #  5     ecut=    30.00 Ry     beta=0.70
     Davidson diagonalization with overlap
     ethr =  1.00E-02,  avg # of iterations =  2.0

     negative rho (up, down):  1.515E-02 0.000E+00

     total cpu time spent up to now is        2.2 secs

     total energy              =     -31.46271899 Ry
     Harris-Foulkes estimate   =     -32.94484083 Ry
     estimated scf accuracy    <       7.27694809 Ry

     iteration #  6     ecut=    30.00 Ry     beta=0.70
     Davidson diagonalization with overlap
     ethr =  1.00E-02,  avg # of iterations =  1.0

     negative rho (up, down):  2.047E-02 0.000E+00

     total cpu time spent up to now is        2.2 secs

     total energy              =     -31.64116397 Ry
     Harris-Foulkes estimate   =     -31.68431987 Ry
     estimated scf accuracy    <       3.04249815 Ry

     iteration #  7     ecut=    30.00 Ry     beta=0.70
     Davidson diagonalization with overlap
     ethr =  1.00E-02,  avg # of iterations =  1.0

     negative rho (up, down):  2.348E-02 0.000E+00

     total cpu time spent up to now is        2.3 secs

     total energy              =     -31.70236928 Ry
     Harris-Foulkes estimate   =     -31.64301668 Ry
     estimated scf accuracy    <       2.82957388 Ry

     iteration #  8     ecut=    30.00 Ry     beta=0.70
     Davidson diagonalization with overlap
     ethr =  1.00E-02,  avg # of iterations =  1.0

     negative rho (up, down):  1.613E-01 0.000E+00

     total cpu time spent up to now is        2.3 secs

     total energy              =     -31.12098913 Ry
     Harris-Foulkes estimate   =     -31.70646422 Ry
     estimated scf accuracy    <       3.33509903 Ry

     iteration #  9     ecut=    30.00 Ry     beta=0.70
     Davidson diagonalization with overlap
     ethr =  1.00E-02,  avg # of iterations =  1.0

     negative rho (up, down):  2.314E-01 0.000E+00

     total cpu time spent up to now is        2.4 secs

     total energy              =     -32.27639666 Ry
     Harris-Foulkes estimate   =     -31.75830449 Ry
     estimated scf accuracy    <       2.47434066 Ry

     iteration # 10     ecut=    30.00 Ry     beta=0.70
     Davidson diagonalization with overlap
     ethr =  1.00E-02,  avg # of iterations =  1.0

     negative rho (up, down):  2.074E-01 0.000E+00

     total cpu time spent up to now is        2.4 secs

     total energy              =     -32.16210262 Ry
     Harris-Foulkes estimate   =     -32.30517116 Ry
     estimated scf accuracy    <       3.63868364 Ry

     iteration # 11     ecut=    30.00 Ry     beta=0.70
     Davidson diagonalization with overlap
     ethr =  1.00E-02,  avg # of iterations =  1.0

     negative rho (up, down):  1.618E-01 0.000E+00

     total cpu time spent up to now is        2.5 secs

     total energy              =     -32.01882599 Ry
     Harris-Foulkes estimate   =     -32.16395010 Ry
     estimated scf accuracy    <       3.33632458 Ry

     iteration # 12     ecut=    30.00 Ry     beta=0.70
     Davidson diagonalization with overlap
     ethr =  1.00E-02,  avg # of iterations =  1.0

     negative rho (up, down):  1.141E-03 0.000E+00

     total cpu time spent up to now is        2.5 secs

     total energy              =     -31.50261893 Ry
     Harris-Foulkes estimate   =     -32.02007879 Ry
     estimated scf accuracy    <       3.02816784 Ry

     iteration # 13     ecut=    30.00 Ry     beta=0.70
     Davidson diagonalization with overlap
     ethr =  1.00E-02,  avg # of iterations =  1.0

     negative rho (up, down):  6.142E-04 0.000E+00

     total cpu time spent up to now is        2.6 secs

     total energy              =     -31.40547153 Ry
     Harris-Foulkes estimate   =     -31.55543117 Ry
     estimated scf accuracy    <       0.61620742 Ry

     iteration # 14     ecut=    30.00 Ry     beta=0.70
     Davidson diagonalization with overlap
     ethr =  7.70E-03,  avg # of iterations =  1.0

     negative rho (up, down):  2.784E-07 0.000E+00

     total cpu time spent up to now is        2.6 secs

     total energy              =     -31.62550243 Ry
     Harris-Foulkes estimate   =     -31.86058737 Ry
     estimated scf accuracy    <       3.70524989 Ry

     iteration # 15     ecut=    30.00 Ry     beta=0.70
     Davidson diagonalization with overlap
     ethr =  7.70E-03,  avg # of iterations =  1.0

     negative rho (up, down):  2.749E-03 0.000E+00

     total cpu time spent up to now is        2.7 secs

     total energy              =     -31.55403067 Ry
     Harris-Foulkes estimate   =     -31.63190229 Ry
     estimated scf accuracy    <       3.13145329 Ry

     iteration # 16     ecut=    30.00 Ry     beta=0.70
     Davidson diagonalization with overlap
     ethr =  7.70E-03,  avg # of iterations =  1.0

     negative rho (up, down):  1.301E-03 0.000E+00

     total cpu time spent up to now is        2.7 secs

     total energy              =     -31.56393583 Ry
     Harris-Foulkes estimate   =     -31.56865226 Ry
     estimated scf accuracy    <       0.71736303 Ry

     iteration # 17     ecut=    30.00 Ry     beta=0.70
     Davidson diagonalization with overlap
     ethr =  7.70E-03,  avg # of iterations =  1.0

     negative rho (up, down):  2.150E-03 0.000E+00

     total cpu time spent up to now is        2.8 secs

     total energy              =     -31.54083040 Ry
     Harris-Foulkes estimate   =     -31.56756633 Ry
     estimated scf accuracy    <       1.35505486 Ry

     iteration # 18     ecut=    30.00 Ry     beta=0.70
     Davidson diagonalization with overlap
     ethr =  7.70E-03,  avg # of iterations =  1.0

     negative rho (up, down):  5.956E-04 0.000E+00

     total cpu time spent up to now is        2.8 secs

     total energy              =     -31.52598089 Ry
     Harris-Foulkes estimate   =     -31.54811617 Ry
     estimated scf accuracy    <       0.26809205 Ry

     iteration # 19     ecut=    30.00 Ry     beta=0.70
     Davidson diagonalization with overlap
     ethr =  3.35E-03,  avg # of iterations =  1.0

     total cpu time spent up to now is        2.8 secs

     total energy              =     -31.52804752 Ry
     Harris-Foulkes estimate   =     -31.54725876 Ry
     estimated scf accuracy    <       0.55610100 Ry

     iteration # 20     ecut=    30.00 Ry     beta=0.70
     Davidson diagonalization with overlap
     ethr =  3.35E-03,  avg # of iterations =  1.0

     total cpu time spent up to now is        2.9 secs

     total energy              =     -31.53729640 Ry
     Harris-Foulkes estimate   =     -31.53859150 Ry
     estimated scf accuracy    <       0.03343729 Ry

     iteration # 21     ecut=    30.00 Ry     beta=0.70
     Davidson diagonalization with overlap
     ethr =  4.18E-04,  avg # of iterations =  1.0

     total cpu time spent up to now is        3.0 secs

     total energy              =     -31.53644595 Ry
     Harris-Foulkes estimate   =     -31.53821551 Ry
     estimated scf accuracy    <       0.00854726 Ry

     iteration # 22     ecut=    30.00 Ry     beta=0.70
     Davidson diagonalization with overlap
     ethr =  1.07E-04,  avg # of iterations =  8.0

     total cpu time spent up to now is        3.0 secs

     total energy              =     -31.53531799 Ry
     Harris-Foulkes estimate   =     -31.54500793 Ry
     estimated scf accuracy    <       0.60111161 Ry

     iteration # 23     ecut=    30.00 Ry     beta=0.70
     Davidson diagonalization with overlap
     ethr =  1.07E-04,  avg # of iterations =  1.0

     negative rho (up, down):  1.536E-05 0.000E+00

     total cpu time spent up to now is        3.1 secs

     total energy              =     -31.53696167 Ry
     Harris-Foulkes estimate   =     -31.53867894 Ry
     estimated scf accuracy    <       0.05174617 Ry

     iteration # 24     ecut=    30.00 Ry     beta=0.70
     Davidson diagonalization with overlap
     ethr =  1.07E-04,  avg # of iterations =  1.0

     negative rho (up, down):  7.211E-08 0.000E+00

     total cpu time spent up to now is        3.1 secs

     total energy              =     -31.53798946 Ry
     Harris-Foulkes estimate   =     -31.53820754 Ry
     estimated scf accuracy    <       0.01031974 Ry

     iteration # 25     ecut=    30.00 Ry     beta=0.70
     Davidson diagonalization with overlap
     ethr =  1.07E-04,  avg # of iterations =  1.0

     total cpu time spent up to now is        3.2 secs

     total energy              =     -31.53807780 Ry
     Harris-Foulkes estimate   =     -31.53808484 Ry
     estimated scf accuracy    <       0.00015061 Ry

     iteration # 26     ecut=    30.00 Ry     beta=0.70
     Davidson diagonalization with overlap
     c_bands:  1 eigenvalues not converged
     ethr =  1.88E-06,  avg # of iterations = 20.0

     total cpu time spent up to now is        3.2 secs

     total energy              =     -31.53808067 Ry
     Harris-Foulkes estimate   =     -31.53808077 Ry
     estimated scf accuracy    <       0.00000362 Ry

     iteration # 27     ecut=    30.00 Ry     beta=0.70
     Davidson diagonalization with overlap
     ethr =  4.52E-08,  avg # of iterations =  1.0

     total cpu time spent up to now is        3.3 secs

     total energy              =     -31.53808082 Ry
     Harris-Foulkes estimate   =     -31.53808077 Ry
     estimated scf accuracy    <       0.00000007 Ry

     iteration # 28     ecut=    30.00 Ry     beta=0.70
     Davidson diagonalization with overlap
     ethr =  9.00E-10,  avg # of iterations =  1.0

     total cpu time spent up to now is        3.3 secs

     total energy              =     -31.53808082 Ry
     Harris-Foulkes estimate   =     -31.53808082 Ry
     estimated scf accuracy    <       0.00000003 Ry

     iteration # 29     ecut=    30.00 Ry     beta=0.70
     Davidson diagonalization with overlap
     ethr =  3.77E-10,  avg # of iterations =  1.0

     total cpu time spent up to now is        3.4 secs

     End of self-consistent calculation

          k = 0.0000 0.0000 0.0000 ( 22119 PWs)   bands (ev):

   -23.6636  -7.5185  -7.0295  -7.0283  -6.9125  -6.5596  -0.1557   0.6602

     the Fermi energy is    -6.8803 ev

!    total energy              =     -31.53808085 Ry
     Harris-Foulkes estimate   =     -31.53808082 Ry
     estimated scf accuracy    <          1.6E-09 Ry

     convergence has been achieved in  29 iterations

     Forces acting on atoms (Ry/au):

     atom    1 type  2   force =    -0.01739053    0.04160788   -0.00333219
     atom    2 type  1   force =     0.01691175   -0.04139627    0.00370923
     atom    3 type  1   force =     0.00047879   -0.00021161   -0.00037705

     Total force =     0.063707     Total SCF correction =     0.000274

     Entering Dynamics:    iteration =     2
                           time      =   0.0097 pico-seconds


     Andersen thermostat:    3 collisions

ATOMIC_POSITIONS (bohr)
O       18.549738621  14.034875881  14.575302270
H       16.768273633  18.330035830  14.354995326
H       11.573235536  19.105472003   0.570688254


     kinetic energy (Ekin) =     0.01681675 Ry
     temperature           =   885.05036859 K 
     Ekin + Etot (const)   =   -31.52126411 Ry
     Message from routine dynamics:
     Total linear momentum <> 0

     Linear momentum :    0.0316409203    0.3676783473    0.1781879288

     Writing output data file pwscf.save

     first order wave-functions extrapolation
     Check: negative starting charge=   -0.343491
     first order charge density extrapolation
     Check: negative starting charge=   -0.344129

     negative rho (up, down):  4.289E-01 0.000E+00

     total cpu time spent up to now is        3.9 secs

     per-process dynamical memory:    20.4 Mb

     Self-consistent Calculation

     iteration #  1     ecut=    30.00 Ry     beta=0.70
     Davidson diagonalization with overlap
     ethr =  1.00E-06,  avg # of iterations = 14.0

     negative rho (up, down):  9.653E-02 0.000E+00

     total cpu time spent up to now is        4.0 secs

     total energy              =      42.45809276 Ry
     Harris-Foulkes estimate   =    -142.40768570 Ry
     estimated scf accuracy    <      18.40992768 Ry

     iteration #  2     ecut=    30.00 Ry     beta=0.70
     Davidson diagonalization with overlap
     ethr =  1.00E-02,  avg # of iterations =  6.0

     negative rho (up, down):  6.013E-02 0.000E+00

     total cpu time spent up to now is        4.1 secs

     total energy              =     -33.79371320 Ry
     Harris-Foulkes estimate   =     -41.92807663 Ry
     estimated scf accuracy    <      16.36189062 Ry

     iteration #  3     ecut=    30.00 Ry     beta=0.70
     Davidson diagonalization with overlap
     ethr =  1.00E-02,  avg # of iterations =  2.0

     negative rho (up, down):  5.364E-02 0.000E+00

     total cpu time spent up to now is        4.1 secs

     total energy              =     -33.10710712 Ry
     Harris-Foulkes estimate   =     -34.35980520 Ry
     estimated scf accuracy    <       7.44406699 Ry

     iteration #  4     ecut=    30.00 Ry     beta=0.70
     Davidson diagonalization with overlap
     ethr =  1.00E-02,  avg # of iterations =  1.0

     negative rho (up, down):  3.287E-02 0.000E+00

     total cpu time spent up to now is        4.2 secs

     total energy              =     -32.05208585 Ry
     Harris-Foulkes estimate   =     -33.80630940 Ry
     estimated scf accuracy    <       4.80586888 Ry

     iteration #  5     ecut=    30.00 Ry     beta=0.70
     Davidson diagonalization with overlap
     ethr =  1.00E-02,  avg # of iterations =  1.0

     negative rho (up, down):  4.471E-03 0.000E+00

     total cpu time spent up to now is        4.2 secs

     total energy              =     -30.85579564 Ry
     Harris-Foulkes estimate   =     -32.07884288 Ry
     estimated scf accuracy    <       2.17585145 Ry

     iteration #  6     ecut=    30.00 Ry     beta=0.70
     Davidson diagonalization with overlap
     ethr =  1.00E-02,  avg # of iterations =  3.0

     negative rho (up, down):  1.422E-02 0.000E+00

     total cpu time spent up to now is        4.3 secs

     total energy              =     -31.60553619 Ry
     Harris-Foulkes estimate   =     -32.50218880 Ry
     estimated scf accuracy    <       3.05027538 Ry

     iteration #  7     ecut=    30.00 Ry     beta=0.70
     Davidson diagonalization with overlap
     ethr =  1.00E-02,  avg # of iterations =  2.0

     negative rho (up, down):  1.403E-02 0.000E+00

     total cpu time spent up to now is        4.3 secs

     total energy              =     -31.76667397 Ry
     Harris-Foulkes estimate   =     -31.74468166 Ry
     estimated scf accuracy    <       1.30000051 Ry

     iteration #  8     ecut=    30.00 Ry     beta=0.70
     Davidson diagonalization with overlap
     ethr =  1.00E-02,  avg # of iterations =  1.0

     negative rho (up, down):  1.239E-02 0.000E+00

     total cpu time spent up to now is        4.4 secs

     total energy              =     -31.73219435 Ry
     Harris-Foulkes estimate   =     -31.76789804 Ry
     estimated scf accuracy    <       1.37415118 Ry

     iteration #  9     ecut=    30.00 Ry     beta=0.70
     Davidson diagonalization with overlap
     ethr =  1.00E-02,  avg # of iterations =  1.0

     negative rho (up, down):  1.251E-02 0.000E+00

     total cpu time spent up to now is        4.4 secs

     total energy              =     -31.50657522 Ry
     Harris-Foulkes estimate   =     -31.73564322 Ry
     estimated scf accuracy    <       1.35107773 Ry

     iteration # 10     ecut=    30.00 Ry     beta=0.70
     Davidson diagonalization with overlap
     ethr =  1.00E-02,  avg # of iterations =  1.0

     negative rho (up, down):  1.308E-02 0.000E+00

     total cpu time spent up to now is        4.5 secs

     total energy              =     -32.56250174 Ry
     Harris-Foulkes estimate   =     -31.58568253 Ry
     estimated scf accuracy    <       1.86565640 Ry

     iteration # 11     ecut=    30.00 Ry     beta=0.70
     Davidson diagonalization with overlap
     ethr =  1.00E-02,  avg # of iterations =  3.0

     negative rho (up, down):  1.541E-02 0.000E+00

     total cpu time spent up to now is        4.5 secs

     total energy              =     -32.70524795 Ry
     Harris-Foulkes estimate   =     -33.81995775 Ry
     estimated scf accuracy    <       7.23583634 Ry

     iteration # 12     ecut=    30.00 Ry     beta=0.70
     Davidson diagonalization with overlap
     ethr =  1.00E-02,  avg # of iterations =  2.0

     negative rho (up, down):  3.562E-02 0.000E+00

     total cpu time spent up to now is        4.6 secs

     total energy              =     -31.78173022 Ry
     Harris-Foulkes estimate   =     -33.09613757 Ry
     estimated scf accuracy    <       6.53550138 Ry

     iteration # 13     ecut=    30.00 Ry     beta=0.70
     Davidson diagonalization with overlap
     ethr =  1.00E-02,  avg # of iterations =  2.0

     negative rho (up, down):  5.324E-02 0.000E+00

     total cpu time spent up to now is        4.6 secs

     total energy              =     -32.61857787 Ry
     Harris-Foulkes estimate   =     -32.43603400 Ry
     estimated scf accuracy    <       3.47105882 Ry

     iteration # 14     ecut=    30.00 Ry     beta=0.70
     Davidson diagonalization with overlap
     ethr =  1.00E-02,  avg # of iterations =  7.0

     negative rho (up, down):  6.883E-02 0.000E+00

     total cpu time spent up to now is        4.7 secs

     total energy              =     -22.28941677 Ry
     Harris-Foulkes estimate   =     -39.00314557 Ry
     estimated scf accuracy    <      20.05705233 Ry

     iteration # 15     ecut=    30.00 Ry     beta=0.70
     Davidson diagonalization with overlap
     ethr =  1.00E-02,  avg # of iterations =  5.0

     negative rho (up, down):  1.550E-02 0.000E+00

     total cpu time spent up to now is        4.8 secs

     total energy              =       2.08754756 Ry
     Harris-Foulkes estimate   =    -132.87889252 Ry
     estimated scf accuracy    <      35.66018306 Ry

     iteration # 16     ecut=    30.00 Ry     beta=0.70
     Davidson diagonalization with overlap
     ethr =  1.00E-02,  avg # of iterations =  4.0

     negative rho (up, down):  7.577E-02 0.000E+00

     total cpu time spent up to now is        4.9 secs

     total energy              =     -31.65200963 Ry
     Harris-Foulkes estimate   =     -35.54986105 Ry
     estimated scf accuracy    <      11.17812750 Ry

     iteration # 17     ecut=    30.00 Ry     beta=0.70
     Davidson diagonalization with overlap
     ethr =  1.00E-02,  avg # of iterations =  5.0

     negative rho (up, down):  9.424E-02 0.000E+00

     total cpu time spent up to now is        4.9 secs

     total energy              =      14.88250178 Ry
     Harris-Foulkes estimate   =     -51.24985082 Ry
     estimated scf accuracy    <      30.05576348 Ry

     iteration # 18     ecut=    30.00 Ry     beta=0.70
     Davidson diagonalization with overlap
     ethr =  1.00E-02,  avg # of iterations =  5.0

     negative rho (up, down):  1.574E-01 0.000E+00

     total cpu time spent up to now is        5.0 secs

     total energy              =    1265.18629351 Ry
     Harris-Foulkes estimate   =    -578.39423650 Ry
     estimated scf accuracy    <      60.28508555 Ry

     iteration # 19     ecut=    30.00 Ry     beta=0.70
     Davidson diagonalization with overlap
     ethr =  1.00E-02,  avg # of iterations =  7.0

     negative rho (up, down):  5.046E-01 0.000E+00

     total cpu time spent up to now is        5.1 secs

     total energy              =     -34.78286801 Ry
     Harris-Foulkes estimate   =    -223.44609076 Ry
     estimated scf accuracy    <      66.96757973 Ry

     iteration # 20     ecut=    30.00 Ry     beta=0.70
     Davidson diagonalization with overlap
     ethr =  1.00E-02,  avg # of iterations =  7.0

     negative rho (up, down):  5.868E-01 0.000E+00

     total cpu time spent up to now is        5.2 secs

     total energy              =     -91.28624148 Ry
     Harris-Foulkes estimate   =    -593.61274394 Ry
     estimated scf accuracy    <      64.00183599 Ry

     iteration # 21     ecut=    30.00 Ry     beta=0.70
     Davidson diagonalization with overlap
     ethr =  1.00E-02,  avg # of iterations =  6.0

     negative rho (up, down):  7.513E-01 0.000E+00

     total cpu time spent up to now is        5.3 secs

     total energy              =      38.65301548 Ry
     Harris-Foulkes estimate   =    -872.43284001 Ry
     estimated scf accuracy    <      53.85293520 Ry

     iteration # 22     ecut=    30.00 Ry     beta=0.70
     Davidson diagonalization with overlap
     ethr =  1.00E-02,  avg # of iterations =  8.0

     negative rho (up, down):  9.877E-01 0.000E+00

     total cpu time spent up to now is        5.3 secs

     total energy              =     -82.02888066 Ry
     Harris-Foulkes estimate   =   -4400.34009001 Ry
     estimated scf accuracy    <      61.92882446 Ry

     iteration # 23     ecut=    30.00 Ry     beta=0.70
     Davidson diagonalization with overlap
     ethr =  1.00E-02,  avg # of iterations =  6.0

     negative rho (up, down):  1.033E+00 0.000E+00

     total cpu time spent up to now is        5.5 secs

     total energy              =   -1215.50129627 Ry
     Harris-Foulkes estimate   =    -380.64997066 Ry
     estimated scf accuracy    <      65.12575090 Ry

     iteration # 24     ecut=    30.00 Ry     beta=0.70
     Davidson diagonalization with overlap
     ethr =  1.00E-02,  avg # of iterations =  6.0

     negative rho (up, down):  1.327E+00 0.000E+00

     total cpu time spent up to now is        5.5 secs

     total energy              =    4634.91498002 Ry
     Harris-Foulkes estimate   =   -3721.58384822 Ry
     estimated scf accuracy    <      64.22265663 Ry

     iteration # 25     ecut=    30.00 Ry     beta=0.70
     Davidson diagonalization with overlap
     ethr =  1.00E-02,  avg # of iterations =  8.0

     negative rho (up, down):  1.479E+00 0.000E+00

     total cpu time spent up to now is        5.6 secs

     total energy              =    -238.04369983 Ry
     Harris-Foulkes estimate   =   -1205.84247786 Ry
     estimated scf accuracy    <      56.45523594 Ry

     iteration # 26     ecut=    30.00 Ry     beta=0.70
     Davidson diagonalization with overlap
     ethr =  1.00E-02,  avg # of iterations =  6.0

     negative rho (up, down):  1.386E+00 0.000E+00

     total cpu time spent up to now is        5.7 secs

     total energy              =     108.65951034 Ry
     Harris-Foulkes estimate   =   -5980.35373811 Ry
     estimated scf accuracy    <      29.41887226 Ry

     iteration # 27     ecut=    30.00 Ry     beta=0.70
     Davidson diagonalization with overlap
     ethr =  1.00E-02,  avg # of iterations =  8.0

     negative rho (up, down):  1.421E+00 0.000E+00

     total cpu time spent up to now is        5.8 secs

     total energy              =    -126.02032365 Ry
     Harris-Foulkes estimate   =   -1631.06835897 Ry
     estimated scf accuracy    <      41.99559815 Ry

     iteration # 28     ecut=    30.00 Ry     beta=0.70
     Davidson diagonalization with overlap
     ethr =  1.00E-02,  avg # of iterations =  8.0

     negative rho (up, down):  5.382E-01 0.000E+00

     total cpu time spent up to now is        5.9 secs

     total energy              =     -68.12404701 Ry
     Harris-Foulkes estimate   =   -6423.28823577 Ry
     estimated scf accuracy    <      30.40453001 Ry

     iteration # 29     ecut=    30.00 Ry     beta=0.70
     Davidson diagonalization with overlap
     ethr =  1.00E-02,  avg # of iterations =  6.0

     negative rho (up, down):  2.721E-01 0.000E+00

     total cpu time spent up to now is        6.0 secs

     total energy              =     148.59062657 Ry
     Harris-Foulkes estimate   =  -10495.35252012 Ry
     estimated scf accuracy    <      23.56205648 Ry

     iteration # 30     ecut=    30.00 Ry     beta=0.70
     Davidson diagonalization with overlap
     ethr =  1.00E-02,  avg # of iterations = 13.0

     negative rho (up, down):  3.297E-01 0.000E+00

     total cpu time spent up to now is        6.1 secs

     total energy              =      63.54878609 Ry
     Harris-Foulkes estimate   =    -285.60351522 Ry
     estimated scf accuracy    <      32.66412375 Ry

     iteration # 31     ecut=    30.00 Ry     beta=0.70
     Davidson diagonalization with overlap
     ethr =  1.00E-02,  avg # of iterations =  7.0

     negative rho (up, down):  2.174E-01 0.000E+00

     total cpu time spent up to now is        6.2 secs

     total energy              =      92.11437867 Ry
     Harris-Foulkes estimate   =    -487.37596468 Ry
     estimated scf accuracy    <      20.52744607 Ry

     iteration # 32     ecut=    30.00 Ry     beta=0.70
     Davidson diagonalization with overlap
     ethr =  1.00E-02,  avg # of iterations =  9.0

     negative rho (up, down):  1.266E-01 0.000E+00

     total cpu time spent up to now is        6.3 secs

     total energy              =     -25.22059696 Ry
     Harris-Foulkes estimate   =   -2039.05491422 Ry
     estimated scf accuracy    <      23.32345744 Ry

     iteration # 33     ecut=    30.00 Ry     beta=0.70
     Davidson diagonalization with overlap
     ethr =  1.00E-02,  avg # of iterations =  7.0

     negative rho (up, down):  2.743E-02 0.000E+00

     total cpu time spent up to now is        6.3 secs

     total energy              =      79.09900789 Ry
     Harris-Foulkes estimate   =    -673.50549463 Ry
     estimated scf accuracy    <      22.13238709 Ry

     iteration # 34     ecut=    30.00 Ry     beta=0.70
     Davidson diagonalization with overlap
     ethr =  1.00E-02,  avg # of iterations =  7.0

     negative rho (up, down):  6.494E-03 0.000E+00

     total cpu time spent up to now is        6.4 secs

     total energy              =      12.98177685 Ry
     Harris-Foulkes estimate   =    -117.36893755 Ry
     estimated scf accuracy    <      27.09094867 Ry

     iteration # 35     ecut=    30.00 Ry     beta=0.70
     Davidson diagonalization with overlap
     ethr =  1.00E-02,  avg # of iterations =  8.0

     negative rho (up, down):  1.413E-02 0.000E+00

     total cpu time spent up to now is        6.5 secs

     total energy              =     -43.42827455 Ry
     Harris-Foulkes estimate   =     -90.28022847 Ry
     estimated scf accuracy    <      34.63662475 Ry

     iteration # 36     ecut=    30.00 Ry     beta=0.70
     Davidson diagonalization with overlap
     ethr =  1.00E-02,  avg # of iterations =  4.0

     negative rho (up, down):  1.037E-01 0.000E+00

     total cpu time spent up to now is        6.6 secs

     total energy              =     -77.99379158 Ry
     Harris-Foulkes estimate   =     -77.70083587 Ry
     estimated scf accuracy    <      62.37697854 Ry

     iteration # 37     ecut=    30.00 Ry     beta=0.70
     Davidson diagonalization with overlap
     ethr =  1.00E-02,  avg # of iterations =  1.0

     negative rho (up, down):  1.902E-01 0.000E+00

     total cpu time spent up to now is        6.6 secs

     total energy              =     -79.52289266 Ry
     Harris-Foulkes estimate   =     -77.99606349 Ry
     estimated scf accuracy    <      62.60087811 Ry

     iteration # 38     ecut=    30.00 Ry     beta=0.70
     Davidson diagonalization with overlap
     ethr =  1.00E-02,  avg # of iterations =  6.0

     negative rho (up, down):  2.094E-01 0.000E+00

     total cpu time spent up to now is        6.7 secs

     total energy              =    2265.22788341 Ry
     Harris-Foulkes estimate   =    -172.69064449 Ry
     estimated scf accuracy    <      28.34265401 Ry

     iteration # 39     ecut=    30.00 Ry     beta=0.70
     Davidson diagonalization with overlap
     ethr =  1.00E-02,  avg # of iterations =  7.0

     negative rho (up, down):  1.696E-01 0.000E+00

     total cpu time spent up to now is        6.8 secs

     total energy              =     -28.80698771 Ry
     Harris-Foulkes estimate   =    -975.28483509 Ry
     estimated scf accuracy    <      24.34137754 Ry

     iteration # 40     ecut=    30.00 Ry     beta=0.70
     Davidson diagonalization with overlap
     ethr =  1.00E-02,  avg # of iterations =  7.0

     negative rho (up, down):  6.275E-02 0.000E+00

     total cpu time spent up to now is        6.8 secs

     total energy              =     119.56976103 Ry
     Harris-Foulkes estimate   =   -3092.38351524 Ry
     estimated scf accuracy    <      26.10045270 Ry

     iteration # 41     ecut=    30.00 Ry     beta=0.70
     Davidson diagonalization with overlap
     ethr =  1.00E-02,  avg # of iterations =  7.0

     negative rho (up, down):  2.588E-01 0.000E+00

     total cpu time spent up to now is        6.9 secs

     total energy              =     -19.66455510 Ry
     Harris-Foulkes estimate   =    -290.62744884 Ry
     estimated scf accuracy    <      28.63862946 Ry

     iteration # 42     ecut=    30.00 Ry     beta=0.70
     Davidson diagonalization with overlap
     ethr =  1.00E-02,  avg # of iterations =  6.0

     negative rho (up, down):  2.875E-01 0.000E+00

     total cpu time spent up to now is        7.0 secs

     total energy              =     -16.53667730 Ry
     Harris-Foulkes estimate   =    -638.22155506 Ry
     estimated scf accuracy    <      71.91467975 Ry

     iteration # 43     ecut=    30.00 Ry     beta=0.70
     Davidson diagonalization with overlap
     ethr =  1.00E-02,  avg # of iterations =  9.0

     negative rho (up, down):  8.461E-01 0.000E+00

     total cpu time spent up to now is        7.1 secs

     total energy              =    -273.49625834 Ry
     Harris-Foulkes estimate   =    -346.83161129 Ry
     estimated scf accuracy    <      61.66710247 Ry

     iteration # 44     ecut=    30.00 Ry     beta=0.70
     Davidson diagonalization with overlap
     ethr =  1.00E-02,  avg # of iterations =  7.0

     negative rho (up, down):  1.150E+00 0.000E+00

     total cpu time spent up to now is        7.2 secs

     total energy              =      59.42208147 Ry
     Harris-Foulkes estimate   =   -5791.69498080 Ry
     estimated scf accuracy    <      36.16622955 Ry

     iteration # 45     ecut=    30.00 Ry     beta=0.70
     Davidson diagonalization with overlap
     ethr =  1.00E-02,  avg # of iterations =  7.0

     negative rho (up, down):  1.228E+00 0.000E+00

     total cpu time spent up to now is        7.3 secs

     total energy              =    -487.77031293 Ry
     Harris-Foulkes estimate   =   -2160.24225746 Ry
     estimated scf accuracy    <      55.83777959 Ry

     iteration # 46     ecut=    30.00 Ry     beta=0.70
     Davidson diagonalization with overlap
     ethr =  1.00E-02,  avg # of iterations =  6.0

     negative rho (up, down):  7.887E-01 0.000E+00

     total cpu time spent up to now is        7.4 secs

     total energy              =    1247.65608922 Ry
     Harris-Foulkes estimate   =   -3013.87270752 Ry
     estimated scf accuracy    <      63.53327461 Ry

     iteration # 47     ecut=    30.00 Ry     beta=0.70
     Davidson diagonalization with overlap
     ethr =  1.00E-02,  avg # of iterations =  9.0

     negative rho (up, down):  1.248E+00 0.000E+00

     total cpu time spent up to now is        7.4 secs

     total energy              =    -416.50506394 Ry
     Harris-Foulkes estimate   =   -1066.50594943 Ry
     estimated scf accuracy    <      47.68602795 Ry

     iteration # 48     ecut=    30.00 Ry     beta=0.70
     Davidson diagonalization with overlap
     ethr =  1.00E-02,  avg # of iterations =  8.0

     negative rho (up, down):  1.674E+00 0.000E+00

     total cpu time spent up to now is        7.5 secs

     total energy              =  -19465.52125284 Ry
     Harris-Foulkes estimate   =   -3547.96145599 Ry
     estimated scf accuracy    <      48.28272057 Ry

     iteration # 49     ecut=    30.00 Ry     beta=0.70
     Davidson diagonalization with overlap
     ethr =  1.00E-02,  avg # of iterations =  7.0

     negative rho (up, down):  2.526E+00 0.000E+00

     total cpu time spent up to now is        7.6 secs

     total energy              =    -328.24675255 Ry
     Harris-Foulkes estimate   =  -47671.23834160 Ry
     estimated scf accuracy    <      40.98747015 Ry

     iteration # 50     ecut=    30.00 Ry     beta=0.70
     Davidson diagonalization with overlap
     ethr =  1.00E-02,  avg # of iterations =  8.0

     negative rho (up, down):  3.214E+00 0.000E+00

     total cpu time spent up to now is        7.7 secs

     total energy              =       1.21270083 Ry
     Harris-Foulkes estimate   =   -2792.09076436 Ry
     estimated scf accuracy    <      36.22907742 Ry

     iteration # 51     ecut=    30.00 Ry     beta=0.70
     Davidson diagonalization with overlap
     ethr =  1.00E-02,  avg # of iterations =  6.0

     negative rho (up, down):  9.331E-01 0.000E+00

     total cpu time spent up to now is        7.8 secs

     total energy              =      90.30578891 Ry
     Harris-Foulkes estimate   =   -2383.85827640 Ry
     estimated scf accuracy    <      33.82708665 Ry

     iteration # 52     ecut=    30.00 Ry     beta=0.70
     Davidson diagonalization with overlap
     ethr =  1.00E-02,  avg # of iterations =  8.0

     negative rho (up, down):  9.292E-01 0.000E+00

     total cpu time spent up to now is        7.9 secs

     total energy              =      47.01549271 Ry
     Harris-Foulkes estimate   =   -1330.12027670 Ry
     estimated scf accuracy    <      27.68353268 Ry

     iteration # 53     ecut=    30.00 Ry     beta=0.70
     Davidson diagonalization with overlap
     ethr =  1.00E-02,  avg # of iterations =  8.0

     negative rho (up, down):  9.113E-01 0.000E+00

     total cpu time spent up to now is        8.0 secs

     total energy              =    -108.08440730 Ry
     Harris-Foulkes estimate   =   -1238.20348426 Ry
     estimated scf accuracy    <      29.62892772 Ry

     iteration # 54     ecut=    30.00 Ry     beta=0.70
     Davidson diagonalization with overlap
     ethr =  1.00E-02,  avg # of iterations =  5.0

     negative rho (up, down):  7.012E-01 0.000E+00

     total cpu time spent up to now is        8.1 secs

     total energy              =     -12.45646362 Ry
     Harris-Foulkes estimate   =   -2232.27592632 Ry
     estimated scf accuracy    <      22.73149553 Ry

     iteration # 55     ecut=    30.00 Ry     beta=0.70
     Davidson diagonalization with overlap
     ethr =  1.00E-02,  avg # of iterations =  7.0

     negative rho (up, down):  1.209E-01 0.000E+00

     total cpu time spent up to now is        8.2 secs

     total energy              =     764.54310218 Ry
     Harris-Foulkes estimate   =    -648.87998015 Ry
     estimated scf accuracy    <      36.36965662 Ry

     iteration # 56     ecut=    30.00 Ry     beta=0.70
     Davidson diagonalization with overlap
     ethr =  1.00E-02,  avg # of iterations =  7.0

     negative rho (up, down):  1.157E-01 0.000E+00

     total cpu time spent up to now is        8.2 secs

     total energy              =       8.00359975 Ry
     Harris-Foulkes estimate   =   -1210.33198875 Ry
     estimated scf accuracy    <      28.36255725 Ry

     iteration # 57     ecut=    30.00 Ry     beta=0.70
     Davidson diagonalization with overlap
     ethr =  1.00E-02,  avg # of iterations = 10.0

     negative rho (up, down):  2.153E-02 0.000E+00

     total cpu time spent up to now is        8.3 secs

     total energy              =      87.61387346 Ry
     Harris-Foulkes estimate   =    -803.21050327 Ry
     estimated scf accuracy    <      23.90516895 Ry

     iteration # 58     ecut=    30.00 Ry     beta=0.70
     Davidson diagonalization with overlap
     ethr =  1.00E-02,  avg # of iterations =  9.0

     negative rho (up, down):  6.970E-03 0.000E+00

     total cpu time spent up to now is        8.4 secs

     total energy              =     -31.76717443 Ry
     Harris-Foulkes estimate   =     -35.90298121 Ry
     estimated scf accuracy    <       8.22341466 Ry

     iteration # 59     ecut=    30.00 Ry     beta=0.70
     Davidson diagonalization with overlap
     ethr =  1.00E-02,  avg # of iterations =  4.0

     negative rho (up, down):  6.994E-02 0.000E+00

     total cpu time spent up to now is        8.5 secs

     total energy              =     -22.31251306 Ry
     Harris-Foulkes estimate   =     -40.30595059 Ry
     estimated scf accuracy    <       7.06616198 Ry

     iteration # 60     ecut=    30.00 Ry     beta=0.70
     Davidson diagonalization with overlap
     ethr =  1.00E-02,  avg # of iterations =  5.0

     negative rho (up, down):  7.213E-02 0.000E+00

     total cpu time spent up to now is        8.6 secs

     total energy              =    -662.62663866 Ry
     Harris-Foulkes estimate   =     -60.48726902 Ry
     estimated scf accuracy    <      17.85967517 Ry

     iteration # 61     ecut=    30.00 Ry     beta=0.70
     Davidson diagonalization with overlap
     ethr =  1.00E-02,  avg # of iterations =  4.0

     negative rho (up, down):  8.831E-02 0.000E+00

     total cpu time spent up to now is        8.6 secs

     total energy              =     -19.92368124 Ry
     Harris-Foulkes estimate   =   -1167.92247991 Ry
     estimated scf accuracy    <      10.91808289 Ry

     iteration # 62     ecut=    30.00 Ry     beta=0.70
     Davidson diagonalization with overlap
     ethr =  1.00E-02,  avg # of iterations =  7.0

     negative rho (up, down):  1.488E-03 0.000E+00

     total cpu time spent up to now is        8.7 secs

     total energy              =      45.87846471 Ry
     Harris-Foulkes estimate   =    -215.61372859 Ry
     estimated scf accuracy    <      24.98933250 Ry

     iteration # 63     ecut=    30.00 Ry     beta=0.70
     Davidson diagonalization with overlap
     ethr =  1.00E-02,  avg # of iterations =  9.0

     negative rho (up, down):  4.721E-03 0.000E+00

     total cpu time spent up to now is        8.8 secs

     total energy              =     -32.06069875 Ry
     Harris-Foulkes estimate   =     -33.26684926 Ry
     estimated scf accuracy    <       5.93103262 Ry

     iteration # 64     ecut=    30.00 Ry     beta=0.70
     Davidson diagonalization with overlap
     ethr =  1.00E-02,  avg # of iterations =  4.0

     negative rho (up, down):  4.359E-05 0.000E+00

     total cpu time spent up to now is        8.9 secs

     total energy              =     -21.62582916 Ry
     Harris-Foulkes estimate   =     -34.08616819 Ry
     estimated scf accuracy    <       6.08840127 Ry

     iteration # 65     ecut=    30.00 Ry     beta=0.70
     Davidson diagonalization with overlap
     ethr =  1.00E-02,  avg # of iterations =  4.0

     negative rho (up, down):  4.233E-04 0.000E+00

     total cpu time spent up to now is        8.9 secs

     total energy              =     -31.91456059 Ry
     Harris-Foulkes estimate   =     -32.28796532 Ry
     estimated scf accuracy    <       2.76109139 Ry

     iteration # 66     ecut=    30.00 Ry     beta=0.70
     Davidson diagonalization with overlap
     ethr =  1.00E-02,  avg # of iterations =  1.0

     negative rho (up, down):  6.822E-04 0.000E+00

     total cpu time spent up to now is        9.0 secs

     total energy              =     -31.80578994 Ry
     Harris-Foulkes estimate   =     -32.09018491 Ry
     estimated scf accuracy    <       2.48049753 Ry

     iteration # 67     ecut=    30.00 Ry     beta=0.70
     Davidson diagonalization with overlap
     ethr =  1.00E-02,  avg # of iterations =  1.0

     negative rho (up, down):  3.590E-02 0.000E+00

     total cpu time spent up to now is        9.0 secs

     total energy              =     -33.81160187 Ry
     Harris-Foulkes estimate   =     -31.84200144 Ry
     estimated scf accuracy    <       1.86160410 Ry

     iteration # 68     ecut=    30.00 Ry     beta=0.70
     Davidson diagonalization with overlap
     ethr =  1.00E-02,  avg # of iterations =  5.0

     negative rho (up, down):  5.068E-02 0.000E+00

     total cpu time spent up to now is        9.1 secs

     total energy              =    -111.31645455 Ry
     Harris-Foulkes estimate   =    -298.14947215 Ry
     estimated scf accuracy    <      29.94643717 Ry

     iteration # 69     ecut=    30.00 Ry     beta=0.70
     Davidson diagonalization with overlap
     ethr =  1.00E-02,  avg # of iterations =  5.0

     negative rho (up, down):  3.867E-02 0.000E+00

     total cpu time spent up to now is        9.2 secs

     total energy              =      19.70981097 Ry
     Harris-Foulkes estimate   =    -560.29039743 Ry
     estimated scf accuracy    <      50.03752570 Ry

     iteration # 70     ecut=    30.00 Ry     beta=0.70
     Davidson diagonalization with overlap
     ethr =  1.00E-02,  avg # of iterations =  5.0

     negative rho (up, down):  1.922E-02 0.000E+00

     total cpu time spent up to now is        9.2 secs

     total energy              =      53.61201534 Ry
     Harris-Foulkes estimate   =    -158.08306356 Ry
     estimated scf accuracy    <      25.42401761 Ry

     iteration # 71     ecut=    30.00 Ry     beta=0.70
     Davidson diagonalization with overlap
     ethr =  1.00E-02,  avg # of iterations =  9.0

     negative rho (up, down):  7.467E-02 0.000E+00

     total cpu time spent up to now is        9.3 secs

     total energy              =     -24.76445034 Ry
     Harris-Foulkes estimate   =     -52.98793863 Ry
     estimated scf accuracy    <       7.19421431 Ry

     iteration # 72     ecut=    30.00 Ry     beta=0.70
     Davidson diagonalization with overlap
     ethr =  1.00E-02,  avg # of iterations =  5.0

     negative rho (up, down):  1.424E-01 0.000E+00

     total cpu time spent up to now is        9.4 secs

     total energy              =      28.56491204 Ry
     Harris-Foulkes estimate   =    -791.59404209 Ry
     estimated scf accuracy    <      50.88144127 Ry

     iteration # 73     ecut=    30.00 Ry     beta=0.70
     Davidson diagonalization with overlap
     ethr =  1.00E-02,  avg # of iterations =  7.0

     negative rho (up, down):  1.683E-01 0.000E+00

     total cpu time spent up to now is        9.5 secs

     total energy              =      89.44457033 Ry
     Harris-Foulkes estimate   =    -387.08308309 Ry
     estimated scf accuracy    <      31.76472631 Ry

     iteration # 74     ecut=    30.00 Ry     beta=0.70
     Davidson diagonalization with overlap
     ethr =  1.00E-02,  avg # of iterations =  5.0

     negative rho (up, down):  2.270E-01 0.000E+00

     total cpu time spent up to now is        9.6 secs

     total energy              =    -541.65965465 Ry
     Harris-Foulkes estimate   =    -776.40289105 Ry
     estimated scf accuracy    <      47.00718877 Ry

     iteration # 75     ecut=    30.00 Ry     beta=0.70
     Davidson diagonalization with overlap
     ethr =  1.00E-02,  avg # of iterations =  5.0

     negative rho (up, down):  2.617E-01 0.000E+00

     total cpu time spent up to now is        9.6 secs

     total energy              =    -603.75346438 Ry
     Harris-Foulkes estimate   =   -2623.68186498 Ry
     estimated scf accuracy    <      40.27240419 Ry

     iteration # 76     ecut=    30.00 Ry     beta=0.70
     Davidson diagonalization with overlap
     ethr =  1.00E-02,  avg # of iterations =  6.0

     negative rho (up, down):  9.013E-01 0.000E+00

     total cpu time spent up to now is        9.7 secs

     total energy              =   -2680.64017354 Ry
     Harris-Foulkes estimate   =   -8341.79001086 Ry
     estimated scf accuracy    <      42.39788084 Ry

     iteration # 77     ecut=    30.00 Ry     beta=0.70
     Davidson diagonalization with overlap
     ethr =  1.00E-02,  avg # of iterations =  6.0

     negative rho (up, down):  1.184E+00 0.000E+00

     total cpu time spent up to now is        9.8 secs

     total energy              =    -805.90073207 Ry
     Harris-Foulkes estimate   =   -8283.26939346 Ry
     estimated scf accuracy    <      51.83368341 Ry

     iteration # 78     ecut=    30.00 Ry     beta=0.70
     Davidson diagonalization with overlap
     ethr =  1.00E-02,  avg # of iterations =  7.0

     negative rho (up, down):  1.095E+00 0.000E+00

     total cpu time spent up to now is        9.9 secs

     total energy              =     -86.89809976 Ry
     Harris-Foulkes estimate   =   -1203.23473711 Ry
     estimated scf accuracy    <      34.02803863 Ry

     iteration # 79     ecut=    30.00 Ry     beta=0.70
     Davidson diagonalization with overlap
     ethr =  1.00E-02,  avg # of iterations =  8.0

     negative rho (up, down):  1.363E+00 0.000E+00

     total cpu time spent up to now is       10.0 secs

     total energy              =     -44.96417384 Ry
     Harris-Foulkes estimate   =   -1916.88181269 Ry
     estimated scf accuracy    <      35.00716813 Ry

     iteration # 80     ecut=    30.00 Ry     beta=0.70
     Davidson diagonalization with overlap
     ethr =  1.00E-02,  avg # of iterations =  6.0

     negative rho (up, down):  1.314E+00 0.000E+00

     total cpu time spent up to now is       10.1 secs

     total energy              =   -2022.00124602 Ry
     Harris-Foulkes estimate   =   -2684.46093726 Ry
     estimated scf accuracy    <      31.02193705 Ry

     iteration # 81     ecut=    30.00 Ry     beta=0.70
     Davidson diagonalization with overlap
     ethr =  1.00E-02,  avg # of iterations =  7.0

     negative rho (up, down):  1.002E+00 0.000E+00

     total cpu time spent up to now is       10.1 secs

     total energy              =    -148.10968582 Ry
     Harris-Foulkes estimate   =  -40654.77191074 Ry
     estimated scf accuracy    <      24.22121424 Ry

     iteration # 82     ecut=    30.00 Ry     beta=0.70
     Davidson diagonalization with overlap
     ethr =  1.00E-02,  avg # of iterations =  5.0

     negative rho (up, down):  1.051E+00 0.000E+00

     total cpu time spent up to now is       10.2 secs

     total energy              =      89.21932897 Ry
     Harris-Foulkes estimate   =   -3924.58565569 Ry
     estimated scf accuracy    <      25.71653271 Ry

     iteration # 83     ecut=    30.00 Ry     beta=0.70
     Davidson diagonalization with overlap
     ethr =  1.00E-02,  avg # of iterations =  8.0

     negative rho (up, down):  1.255E-01 0.000E+00

     total cpu time spent up to now is       10.3 secs

     total energy              =     114.93302783 Ry
     Harris-Foulkes estimate   =   -1769.24236143 Ry
     estimated scf accuracy    <      19.43351996 Ry

     iteration # 84     ecut=    30.00 Ry     beta=0.70
     Davidson diagonalization with overlap
     ethr =  1.00E-02,  avg # of iterations =  9.0

     negative rho (up, down):  3.137E-02 0.000E+00

     total cpu time spent up to now is       10.4 secs

     total energy              =      29.08456488 Ry
     Harris-Foulkes estimate   =    -710.21726154 Ry
     estimated scf accuracy    <      21.13786944 Ry

     iteration # 85     ecut=    30.00 Ry     beta=0.70
     Davidson diagonalization with overlap
     ethr =  1.00E-02,  avg # of iterations =  7.0

     negative rho (up, down):  6.809E-03 0.000E+00

     total cpu time spent up to now is       10.5 secs

     total energy              =     -10.89506829 Ry
     Harris-Foulkes estimate   =     -68.61705190 Ry
     estimated scf accuracy    <      18.30948803 Ry

     iteration # 86     ecut=    30.00 Ry     beta=0.70
     Davidson diagonalization with overlap
     ethr =  1.00E-02,  avg # of iterations =  4.0

     negative rho (up, down):  2.165E-02 0.000E+00

     total cpu time spent up to now is       10.5 secs

     total energy              =     -38.23906077 Ry
     Harris-Foulkes estimate   =     -43.45875523 Ry
     estimated scf accuracy    <      18.87474272 Ry

     iteration # 87     ecut=    30.00 Ry     beta=0.70
     Davidson diagonalization with overlap
     ethr =  1.00E-02,  avg # of iterations =  2.0

     negative rho (up, down):  1.162E-02 0.000E+00

     total cpu time spent up to now is       10.6 secs

     total energy              =     -39.36746171 Ry
     Harris-Foulkes estimate   =     -38.78356096 Ry
     estimated scf accuracy    <      12.53254946 Ry

     iteration # 88     ecut=    30.00 Ry     beta=0.70
     Davidson diagonalization with overlap
     ethr =  1.00E-02,  avg # of iterations =  4.0

     negative rho (up, down):  4.604E-02 0.000E+00

     total cpu time spent up to now is       10.7 secs

     total energy              =      -9.17716307 Ry
     Harris-Foulkes estimate   =     -94.35816672 Ry
     estimated scf accuracy    <       9.28555849 Ry

     iteration # 89     ecut=    30.00 Ry     beta=0.70
     Davidson diagonalization with overlap
     ethr =  1.00E-02,  avg # of iterations =  6.0

     negative rho (up, down):  1.887E-02 0.000E+00

     total cpu time spent up to now is       10.7 secs

     total energy              =      -7.14749852 Ry
     Harris-Foulkes estimate   =     -46.49561935 Ry
     estimated scf accuracy    <       9.19787996 Ry

     iteration # 90     ecut=    30.00 Ry     beta=0.70
     Davidson diagonalization with overlap
     ethr =  1.00E-02,  avg # of iterations =  4.0

     negative rho (up, down):  1.540E+00 0.000E+00

     total cpu time spent up to now is       10.8 secs

     total energy              =     -36.75828329 Ry
     Harris-Foulkes estimate   =     -39.47017391 Ry
     estimated scf accuracy    <      12.47245764 Ry

     iteration # 91     ecut=    30.00 Ry     beta=0.70
     Davidson diagonalization with overlap
     ethr =  1.00E-02,  avg # of iterations = 10.0

     negative rho (up, down):  7.433E-01 0.000E+00

     total cpu time spent up to now is       10.9 secs

     total energy              =    -253.97937604 Ry
     Harris-Foulkes estimate   =   -7071.17556049 Ry
     estimated scf accuracy    <      37.33198820 Ry

     iteration # 92     ecut=    30.00 Ry     beta=0.70
     Davidson diagonalization with overlap
     ethr =  1.00E-02,  avg # of iterations =  7.0

     negative rho (up, down):  5.831E-01 0.000E+00

     total cpu time spent up to now is       11.0 secs

     total energy              =    -398.77773810 Ry
     Harris-Foulkes estimate   =   -1961.71006053 Ry
     estimated scf accuracy    <      44.59625652 Ry

     iteration # 93     ecut=    30.00 Ry     beta=0.70
     Davidson diagonalization with overlap
     ethr =  1.00E-02,  avg # of iterations =  7.0

     negative rho (up, down):  4.811E-02 0.000E+00

     total cpu time spent up to now is       11.1 secs

     total energy              =      98.94033656 Ry
     Harris-Foulkes estimate   =   -6234.05633709 Ry
     estimated scf accuracy    <      36.28317570 Ry

     iteration # 94     ecut=    30.00 Ry     beta=0.70
     Davidson diagonalization with overlap
     ethr =  1.00E-02,  avg # of iterations = 11.0

     total cpu time spent up to now is       11.2 secs

     total energy              =     -35.03694700 Ry
     Harris-Foulkes estimate   =     -35.63254156 Ry
     estimated scf accuracy    <       8.85567676 Ry

     iteration # 95     ecut=    30.00 Ry     beta=0.70
     Davidson diagonalization with overlap
     ethr =  1.00E-02,  avg # of iterations =  2.0

     negative rho (up, down):  5.157E-02 0.000E+00

     total cpu time spent up to now is       11.2 secs

     total energy              =     -33.86458417 Ry
     Harris-Foulkes estimate   =     -35.36839398 Ry
     estimated scf accuracy    <       7.41875827 Ry

     iteration # 96     ecut=    30.00 Ry     beta=0.70
     Davidson diagonalization with overlap
     ethr =  1.00E-02,  avg # of iterations =  8.0

     negative rho (up, down):  1.561E-04 0.000E+00

     total cpu time spent up to now is       11.3 secs

     total energy              =      26.41208993 Ry
     Harris-Foulkes estimate   =     -58.13462257 Ry
     estimated scf accuracy    <      20.87871691 Ry

     iteration # 97     ecut=    30.00 Ry     beta=0.70
     Davidson diagonalization with overlap
     ethr =  1.00E-02,  avg # of iterations =  5.0

     negative rho (up, down):  3.328E-03 0.000E+00

     total cpu time spent up to now is       11.4 secs

     total energy              =      -8.26585838 Ry
     Harris-Foulkes estimate   =     -49.64047955 Ry
     estimated scf accuracy    <       8.31339485 Ry

     iteration # 98     ecut=    30.00 Ry     beta=0.70
     Davidson diagonalization with overlap
     ethr =  1.00E-02,  avg # of iterations =  4.0

     negative rho (up, down):  7.554E-02 0.000E+00

     total cpu time spent up to now is       11.4 secs

     total energy              =     -31.12032697 Ry
     Harris-Foulkes estimate   =     -44.98108458 Ry
     estimated scf accuracy    <       6.68278637 Ry

     iteration # 99     ecut=    30.00 Ry     beta=0.70
     Davidson diagonalization with overlap
     ethr =  1.00E-02,  avg # of iterations =  4.0

     negative rho (up, down):  1.143E-01 0.000E+00

     total cpu time spent up to now is       11.5 secs

     total energy              =     -12.01838928 Ry
     Harris-Foulkes estimate   =    -185.26793941 Ry
     estimated scf accuracy    <       6.19466545 Ry

     iteration #100     ecut=    30.00 Ry     beta=0.70
     Davidson diagonalization with overlap
     ethr =  1.00E-02,  avg # of iterations =  4.0

     negative rho (up, down):  2.992E-02 0.000E+00

     total cpu time spent up to now is       11.6 secs

     total energy              =     103.60845352 Ry
     Harris-Foulkes estimate   =   -3454.33500828 Ry
     estimated scf accuracy    <      35.69383170 Ry

     End of self-consistent calculation

     convergence NOT achieved after 100 iterations: stopping

     Writing output data file pwscf.save
 
     init_run     :      0.17s CPU      0.19s WALL (       1 calls)
     electrons    :      9.04s CPU     10.57s WALL (       3 calls)
     update_pot   :      0.35s CPU      0.46s WALL (       2 calls)
     forces       :      0.08s CPU      0.09s WALL (       2 calls)

     Called by init_run:
     wfcinit      :      0.01s CPU      0.02s WALL (       1 calls)
     potinit      :      0.05s CPU      0.05s WALL (       1 calls)

     Called by electrons:
     c_bands      :      5.21s CPU      5.38s WALL (     150 calls)
     sum_band     :      0.76s CPU      0.80s WALL (     150 calls)
     v_of_rho     :      1.89s CPU      1.96s WALL (     153 calls)
     mix_rho      :      1.02s CPU      2.03s WALL (     150 calls)

     Called by c_bands:
     init_us_2    :      0.02s CPU      0.03s WALL (     301 calls)
     cegterg      :      5.17s CPU      5.29s WALL (     150 calls)

     Called by sum_band:

     Called by *egterg:
     h_psi        :      4.36s CPU      4.46s WALL (     879 calls)
     g_psi        :      0.05s CPU      0.05s WALL (     728 calls)
     cdiaghg      :      0.32s CPU      0.33s WALL (     876 calls)

     Called by h_psi:
     h_psi:pot    :      4.34s CPU      4.43s WALL (     879 calls)
     h_psi:calbec :      0.06s CPU      0.06s WALL (     879 calls)
     vloc_psi     :      4.26s CPU      4.35s WALL (     879 calls)
     add_vuspsi   :      0.01s CPU      0.01s WALL (     879 calls)

     General routines
     calbec       :      0.06s CPU      0.06s WALL (     888 calls)
     fft          :      1.09s CPU      1.14s WALL (    1687 calls)
     fftw         :      4.37s CPU      4.48s WALL (   11070 calls)
     davcio       :      0.19s CPU      0.92s WALL (    2746 calls)
 
     Parallel routines
     fft_scatter  :      1.70s CPU      1.78s WALL (   12757 calls)
 
     PWSCF        :     9.87s CPU        11.71s WALL

 
   This run was terminated on:  16:18:23  13Feb2018            

=------------------------------------------------------------------------------=
   JOB DONE.
=------------------------------------------------------------------------------=
