
     Program PWSCF v.6.0 (svn rev. 13079) starts on 13Feb2018 at 16:27:57 

     This program is part of the open-source Quantum ESPRESSO suite
     for quantum simulation of materials; please cite
         "P. Giannozzi et al., J. Phys.:Condens. Matter 21 395502 (2009);
          URL http://www.quantum-espresso.org", 
     in publications or presentations arising from this work. More details at
     http://www.quantum-espresso.org/quote

     Parallel version (MPI), running on    28 processors
     R & G space division:  proc/nbgrp/npool/nimage =      28
     Reading input from inputs/MD-H2O-round1/654.in

     Current dimensions of program PWSCF are:
     Max number of different atomic species (ntypx) = 10
     Max number of k-points (npk) =  40000
     Max angular momentum in pseudopotentials (lmaxx) =  3

     Subspace diagonalization in iterative solution of the eigenvalue problem:
     a serial algorithm will be used

 
     Parallelization info
     --------------------
     sticks:   dense  smooth     PW     G-vecs:    dense   smooth      PW
     Min         136     136     33                 6338     6338     787
     Max         137     137     34                 6341     6341     792
     Sum        3809    3809    949               177509   177509   22119
 


     bravais-lattice index     =            1
     lattice parameter (alat)  =      20.0000  a.u.
     unit-cell volume          =    8000.0000 (a.u.)^3
     number of atoms/cell      =            3
     number of atomic types    =            2
     number of electrons       =         8.00
     number of Kohn-Sham states=            8
     kinetic-energy cutoff     =      30.0000  Ry
     charge density cutoff     =     120.0000  Ry
     convergence threshold     =      1.0E-08
     mixing beta               =       0.7000
     number of iterations used =            8  plain     mixing
     Exchange-correlation      = BLYP ( 1  3  1  3 0 0)
     nstep                     =         5000


     celldm(1)=  20.000000  celldm(2)=   0.000000  celldm(3)=   0.000000
     celldm(4)=   0.000000  celldm(5)=   0.000000  celldm(6)=   0.000000

     crystal axes: (cart. coord. in units of alat)
               a(1) = (   1.000000   0.000000   0.000000 )  
               a(2) = (   0.000000   1.000000   0.000000 )  
               a(3) = (   0.000000   0.000000   1.000000 )  

     reciprocal axes: (cart. coord. in units 2 pi/alat)
               b(1) = (  1.000000  0.000000  0.000000 )  
               b(2) = (  0.000000  1.000000  0.000000 )  
               b(3) = (  0.000000  0.000000  1.000000 )  


     PseudoPot. # 1 for  H read from file:
     ./H.blyp-hgh.UPF
     MD5 check sum: c576e69559cde411e611be972c763230
     Pseudo is Norm-conserving, Zval =  1.0
     Generated in analytical, separable form
     Using radial grid of  929 points,  0 beta functions with: 

     PseudoPot. # 2 for  O read from file:
     ./O.blyp-hgh.UPF
     MD5 check sum: d0b7156309aa9befef28faac7bc56342
     Pseudo is Norm-conserving, Zval =  6.0
     Generated in analytical, separable form
     Using radial grid of 1095 points,  1 beta functions with: 
                l(1) =   0

     atomic species   valence    mass     pseudopotential
        H              1.00     1.01000      H( 1.00)
        O              6.00    16.00000      O( 1.00)

     No symmetry found



   Cartesian axes

     site n.     atom                  positions (alat units)
         1           O   tau(   1) = (   0.1669169   0.9787396   0.4679314  )
         2           H   tau(   2) = (   0.1007491   0.0048278   0.4307194  )
         3           H   tau(   3) = (   0.0241214   0.4532678   0.3300281  )

     number of k points=     1  Marzari-Vanderbilt smearing, width (Ry)=  0.0250
                       cart. coord. in units 2pi/alat
        k(    1) = (   0.0000000   0.0000000   0.0000000), wk =   2.0000000

     Dense  grid:   177509 G-vectors     FFT dimensions: (  72,  72,  72)

     Estimated max dynamical RAM per process >       6.09Mb

     Estimated total allocated dynamical RAM >     170.64Mb

     Initial potential from superposition of free atoms
     Check: negative starting charge=   -0.349785

     starting charge    7.99998, renormalised to    8.00000

     negative rho (up, down):  3.498E-01 0.000E+00
     Starting wfc are    6 randomized atomic wfcs +    2 random wfc

     total cpu time spent up to now is        0.4 secs

     per-process dynamical memory:    18.8 Mb

     Self-consistent Calculation

     iteration #  1     ecut=    30.00 Ry     beta=0.70
     Davidson diagonalization with overlap
     ethr =  1.00E-02,  avg # of iterations =  7.0

     negative rho (up, down):  9.411E-02 0.000E+00

     total cpu time spent up to now is        0.5 secs

     total energy              =     -31.55894946 Ry
     Harris-Foulkes estimate   =     -32.07125735 Ry
     estimated scf accuracy    <       0.54766744 Ry

     iteration #  2     ecut=    30.00 Ry     beta=0.70
     Davidson diagonalization with overlap
     ethr =  6.85E-03,  avg # of iterations =  2.0

     negative rho (up, down):  7.261E-02 0.000E+00

     total cpu time spent up to now is        0.5 secs

     total energy              =     -31.71772109 Ry
     Harris-Foulkes estimate   =     -32.39592080 Ry
     estimated scf accuracy    <       2.28735730 Ry

     iteration #  3     ecut=    30.00 Ry     beta=0.70
     Davidson diagonalization with overlap
     ethr =  6.85E-03,  avg # of iterations =  2.0

     negative rho (up, down):  2.656E-02 0.000E+00

     total cpu time spent up to now is        0.6 secs

     total energy              =     -31.74790012 Ry
     Harris-Foulkes estimate   =     -31.79384720 Ry
     estimated scf accuracy    <       0.31434761 Ry

     iteration #  4     ecut=    30.00 Ry     beta=0.70
     Davidson diagonalization with overlap
     ethr =  3.93E-03,  avg # of iterations =  1.0

     negative rho (up, down):  1.006E-02 0.000E+00

     total cpu time spent up to now is        0.6 secs

     total energy              =     -31.63154478 Ry
     Harris-Foulkes estimate   =     -31.94509609 Ry
     estimated scf accuracy    <       1.37292085 Ry

     iteration #  5     ecut=    30.00 Ry     beta=0.70
     Davidson diagonalization with overlap
     ethr =  3.93E-03,  avg # of iterations =  1.0

     negative rho (up, down):  6.513E-04 0.000E+00

     total cpu time spent up to now is        0.7 secs

     total energy              =     -31.90853285 Ry
     Harris-Foulkes estimate   =     -31.99581526 Ry
     estimated scf accuracy    <       1.06842610 Ry

     iteration #  6     ecut=    30.00 Ry     beta=0.70
     Davidson diagonalization with overlap
     ethr =  3.93E-03,  avg # of iterations =  1.0

     negative rho (up, down):  6.042E-04 0.000E+00

     total cpu time spent up to now is        0.7 secs

     total energy              =     -31.83566899 Ry
     Harris-Foulkes estimate   =     -31.90929692 Ry
     estimated scf accuracy    <       0.94002268 Ry

     iteration #  7     ecut=    30.00 Ry     beta=0.70
     Davidson diagonalization with overlap
     ethr =  3.93E-03,  avg # of iterations =  1.0

     negative rho (up, down):  6.098E-04 0.000E+00

     total cpu time spent up to now is        0.8 secs

     total energy              =     -31.82892538 Ry
     Harris-Foulkes estimate   =     -31.84373398 Ry
     estimated scf accuracy    <       0.11299427 Ry

     iteration #  8     ecut=    30.00 Ry     beta=0.70
     Davidson diagonalization with overlap
     ethr =  1.41E-03,  avg # of iterations =  1.0

     negative rho (up, down):  2.131E-04 0.000E+00

     total cpu time spent up to now is        0.8 secs

     total energy              =     -31.81160365 Ry
     Harris-Foulkes estimate   =     -31.86608059 Ry
     estimated scf accuracy    <       1.45233730 Ry

     iteration #  9     ecut=    30.00 Ry     beta=0.70
     Davidson diagonalization with overlap
     ethr =  1.41E-03,  avg # of iterations =  1.0

     negative rho (up, down):  5.657E-05 0.000E+00

     total cpu time spent up to now is        0.8 secs

     total energy              =     -31.83920585 Ry
     Harris-Foulkes estimate   =     -31.84374065 Ry
     estimated scf accuracy    <       0.11489698 Ry

     iteration # 10     ecut=    30.00 Ry     beta=0.70
     Davidson diagonalization with overlap
     ethr =  1.41E-03,  avg # of iterations =  1.0

     negative rho (up, down):  8.327E-07 0.000E+00

     total cpu time spent up to now is        0.9 secs

     total energy              =     -31.83940706 Ry
     Harris-Foulkes estimate   =     -31.84230484 Ry
     estimated scf accuracy    <       0.02066494 Ry

     iteration # 11     ecut=    30.00 Ry     beta=0.70
     Davidson diagonalization with overlap
     ethr =  2.58E-04,  avg # of iterations =  1.0

     total cpu time spent up to now is        0.9 secs

     total energy              =     -31.84736734 Ry
     Harris-Foulkes estimate   =     -31.84725584 Ry
     estimated scf accuracy    <       0.31325155 Ry

     iteration # 12     ecut=    30.00 Ry     beta=0.70
     Davidson diagonalization with overlap
     ethr =  2.58E-04,  avg # of iterations =  1.0

     negative rho (up, down):  5.348E-08 0.000E+00

     total cpu time spent up to now is        1.0 secs

     total energy              =     -31.84244207 Ry
     Harris-Foulkes estimate   =     -31.84737039 Ry
     estimated scf accuracy    <       0.31873147 Ry

     iteration # 13     ecut=    30.00 Ry     beta=0.70
     Davidson diagonalization with overlap
     ethr =  2.58E-04,  avg # of iterations =  1.0

     negative rho (up, down):  7.587E-08 0.000E+00

     total cpu time spent up to now is        1.0 secs

     total energy              =     -31.84117861 Ry
     Harris-Foulkes estimate   =     -31.84347450 Ry
     estimated scf accuracy    <       0.09789770 Ry

     iteration # 14     ecut=    30.00 Ry     beta=0.70
     Davidson diagonalization with overlap
     ethr =  2.58E-04,  avg # of iterations =  1.0

     total cpu time spent up to now is        1.1 secs

     total energy              =     -31.84202990 Ry
     Harris-Foulkes estimate   =     -31.84208931 Ry
     estimated scf accuracy    <       0.00311033 Ry

     iteration # 15     ecut=    30.00 Ry     beta=0.70
     Davidson diagonalization with overlap
     ethr =  3.89E-05,  avg # of iterations =  7.0

     total cpu time spent up to now is        1.1 secs

     total energy              =     -31.84205042 Ry
     Harris-Foulkes estimate   =     -31.84205099 Ry
     estimated scf accuracy    <       0.00026216 Ry

     iteration # 16     ecut=    30.00 Ry     beta=0.70
     Davidson diagonalization with overlap
     ethr =  3.28E-06,  avg # of iterations = 15.0

     total cpu time spent up to now is        1.2 secs

     total energy              =     -31.84204490 Ry
     Harris-Foulkes estimate   =     -31.84205051 Ry
     estimated scf accuracy    <       0.00023628 Ry

     iteration # 17     ecut=    30.00 Ry     beta=0.70
     Davidson diagonalization with overlap
     ethr =  2.95E-06,  avg # of iterations =  1.0

     total cpu time spent up to now is        1.3 secs

     total energy              =     -31.84204584 Ry
     Harris-Foulkes estimate   =     -31.84204700 Ry
     estimated scf accuracy    <       0.00000891 Ry

     iteration # 18     ecut=    30.00 Ry     beta=0.70
     Davidson diagonalization with overlap
     ethr =  1.11E-07,  avg # of iterations =  1.0

     total cpu time spent up to now is        1.3 secs

     total energy              =     -31.84204631 Ry
     Harris-Foulkes estimate   =     -31.84204637 Ry
     estimated scf accuracy    <       0.00000880 Ry

     iteration # 19     ecut=    30.00 Ry     beta=0.70
     Davidson diagonalization with overlap
     ethr =  1.10E-07,  avg # of iterations =  1.0

     total cpu time spent up to now is        1.4 secs

     total energy              =     -31.84204652 Ry
     Harris-Foulkes estimate   =     -31.84204638 Ry
     estimated scf accuracy    <       0.00000132 Ry

     iteration # 20     ecut=    30.00 Ry     beta=0.70
     Davidson diagonalization with overlap
     ethr =  1.65E-08,  avg # of iterations =  1.0

     total cpu time spent up to now is        1.4 secs

     total energy              =     -31.84204630 Ry
     Harris-Foulkes estimate   =     -31.84204662 Ry
     estimated scf accuracy    <       0.00001452 Ry

     iteration # 21     ecut=    30.00 Ry     beta=0.70
     Davidson diagonalization with overlap
     ethr =  1.65E-08,  avg # of iterations =  1.0

     total cpu time spent up to now is        1.5 secs

     total energy              =     -31.84204629 Ry
     Harris-Foulkes estimate   =     -31.84204635 Ry
     estimated scf accuracy    <       0.00000402 Ry

     iteration # 22     ecut=    30.00 Ry     beta=0.70
     Davidson diagonalization with overlap
     ethr =  1.65E-08,  avg # of iterations =  1.0

     total cpu time spent up to now is        1.5 secs

     End of self-consistent calculation

          k = 0.0000 0.0000 0.0000 ( 22119 PWs)   bands (ev):

   -26.1833 -11.0951  -7.1841  -7.1826  -7.0386  -0.4564   0.5176   0.7712

     the Fermi energy is    -7.0112 ev

!    total energy              =     -31.84204629 Ry
     Harris-Foulkes estimate   =     -31.84204634 Ry
     estimated scf accuracy    <          2.0E-09 Ry

     convergence has been achieved in  22 iterations

     Forces acting on atoms (Ry/au):

     atom    1 type  2   force =     0.50457071   -0.19862059    0.28262168
     atom    2 type  1   force =    -0.50477084    0.19850700   -0.28297921
     atom    3 type  1   force =     0.00020013    0.00011359    0.00035753

     Total force =     0.864981     Total SCF correction =     0.000126

     Molecular Dynamics Calculation

     Starting temperature  =  1000.00 K

     temperature is controlled by Andersen thermostat
     Collision frequency = 1.0000/timestep
     mass H                =     1.01
     mass O                =    16.00
     Time step             =   100.00 a.u.,  4.8378 femto-seconds

     Entering Dynamics:    iteration =     1
                           time      =   0.0048 pico-seconds


     Andersen thermostat:    3 collisions

ATOMIC_POSITIONS (bohr)
O        3.498827130  19.499261149   9.433797103
H       -0.725139192   1.355195795   6.980054914
H        0.680149128   9.003227700   7.044095414


     kinetic energy (Ekin) =     0.01337019 Ry
     temperature           =   703.66124461 K 
     Ekin + Etot (const)   =   -31.82867610 Ry

     Linear momentum :   -0.0000000000   -0.0000000000    0.0000000000

     Writing output data file pwscf.save
     Check: negative starting charge=   -0.349785
     NEW-OLD atomic charge density approx. for the potential
     Check: negative starting charge=   -0.341229

     negative rho (up, down):  3.963E-01 0.000E+00

     total cpu time spent up to now is        1.9 secs

     per-process dynamical memory:    20.4 Mb

     Self-consistent Calculation

     iteration #  1     ecut=    30.00 Ry     beta=0.70
     Davidson diagonalization with overlap
     c_bands:  1 eigenvalues not converged
     ethr =  1.00E-06,  avg # of iterations = 20.0

     negative rho (up, down):  9.193E-02 0.000E+00

     total cpu time spent up to now is        2.0 secs

     total energy              =     -25.89261316 Ry
     Harris-Foulkes estimate   =     -32.65553829 Ry
     estimated scf accuracy    <       5.36557049 Ry

     iteration #  2     ecut=    30.00 Ry     beta=0.70
     Davidson diagonalization with overlap
     ethr =  1.00E-02,  avg # of iterations =  4.0

     negative rho (up, down):  6.690E-02 0.000E+00

     total cpu time spent up to now is        2.1 secs

     total energy              =     -32.66917670 Ry
     Harris-Foulkes estimate   =     -38.41652548 Ry
     estimated scf accuracy    <      14.12376836 Ry

     iteration #  3     ecut=    30.00 Ry     beta=0.70
     Davidson diagonalization with overlap
     ethr =  1.00E-02,  avg # of iterations =  2.0

     negative rho (up, down):  5.578E-02 0.000E+00

     total cpu time spent up to now is        2.2 secs

     total energy              =     -32.03724763 Ry
     Harris-Foulkes estimate   =     -33.05681181 Ry
     estimated scf accuracy    <       5.22409376 Ry

     iteration #  4     ecut=    30.00 Ry     beta=0.70
     Davidson diagonalization with overlap
     ethr =  1.00E-02,  avg # of iterations =  1.0

     negative rho (up, down):  2.709E-02 0.000E+00

     total cpu time spent up to now is        2.2 secs

     total energy              =     -30.60852153 Ry
     Harris-Foulkes estimate   =     -32.06482689 Ry
     estimated scf accuracy    <       3.47411548 Ry

     iteration #  5     ecut=    30.00 Ry     beta=0.70
     Davidson diagonalization with overlap
     ethr =  1.00E-02,  avg # of iterations =  4.0

     negative rho (up, down):  2.815E-02 0.000E+00

     total cpu time spent up to now is        2.3 secs

     total energy              =     -31.75179633 Ry
     Harris-Foulkes estimate   =     -32.75321266 Ry
     estimated scf accuracy    <       5.48979061 Ry

     iteration #  6     ecut=    30.00 Ry     beta=0.70
     Davidson diagonalization with overlap
     ethr =  1.00E-02,  avg # of iterations =  1.0

     negative rho (up, down):  2.813E-02 0.000E+00

     total cpu time spent up to now is        2.3 secs

     total energy              =     -31.83629231 Ry
     Harris-Foulkes estimate   =     -31.78505186 Ry
     estimated scf accuracy    <       3.46598104 Ry

     iteration #  7     ecut=    30.00 Ry     beta=0.70
     Davidson diagonalization with overlap
     ethr =  1.00E-02,  avg # of iterations =  1.0

     negative rho (up, down):  2.606E-02 0.000E+00

     total cpu time spent up to now is        2.4 secs

     total energy              =     -31.98259935 Ry
     Harris-Foulkes estimate   =     -31.83754231 Ry
     estimated scf accuracy    <       3.63266150 Ry

     iteration #  8     ecut=    30.00 Ry     beta=0.70
     Davidson diagonalization with overlap
     ethr =  1.00E-02,  avg # of iterations =  1.0

     negative rho (up, down):  2.200E-02 0.000E+00

     total cpu time spent up to now is        2.4 secs

     total energy              =     -32.16443487 Ry
     Harris-Foulkes estimate   =     -31.98554338 Ry
     estimated scf accuracy    <       4.03143127 Ry

     iteration #  9     ecut=    30.00 Ry     beta=0.70
     Davidson diagonalization with overlap
     ethr =  1.00E-02,  avg # of iterations =  1.0

     negative rho (up, down):  2.314E-02 0.000E+00

     total cpu time spent up to now is        2.4 secs

     total energy              =     -31.42400566 Ry
     Harris-Foulkes estimate   =     -32.16953273 Ry
     estimated scf accuracy    <       4.38759703 Ry

     iteration # 10     ecut=    30.00 Ry     beta=0.70
     Davidson diagonalization with overlap
     ethr =  1.00E-02,  avg # of iterations =  1.0

     negative rho (up, down):  3.096E-02 0.000E+00

     total cpu time spent up to now is        2.5 secs

     total energy              =     -31.72595627 Ry
     Harris-Foulkes estimate   =     -31.65799491 Ry
     estimated scf accuracy    <       1.05842154 Ry

     iteration # 11     ecut=    30.00 Ry     beta=0.70
     Davidson diagonalization with overlap
     ethr =  1.00E-02,  avg # of iterations =  1.0

     negative rho (up, down):  4.872E-02 0.000E+00

     total cpu time spent up to now is        2.6 secs

     total energy              =     -31.82002742 Ry
     Harris-Foulkes estimate   =     -31.73708754 Ry
     estimated scf accuracy    <       1.32722620 Ry

     iteration # 12     ecut=    30.00 Ry     beta=0.70
     Davidson diagonalization with overlap
     ethr =  1.00E-02,  avg # of iterations =  1.0

     negative rho (up, down):  5.872E-02 0.000E+00

     total cpu time spent up to now is        2.6 secs

     total energy              =     -32.00768324 Ry
     Harris-Foulkes estimate   =     -31.82740730 Ry
     estimated scf accuracy    <       1.57109460 Ry

     iteration # 13     ecut=    30.00 Ry     beta=0.70
     Davidson diagonalization with overlap
     ethr =  1.00E-02,  avg # of iterations =  1.0

     negative rho (up, down):  4.888E-02 0.000E+00

     total cpu time spent up to now is        2.7 secs

     total energy              =     -32.57528658 Ry
     Harris-Foulkes estimate   =     -32.62013509 Ry
     estimated scf accuracy    <       4.30073570 Ry

     iteration # 14     ecut=    30.00 Ry     beta=0.70
     Davidson diagonalization with overlap
     ethr =  1.00E-02,  avg # of iterations =  1.0

     negative rho (up, down):  9.567E-02 0.000E+00

     total cpu time spent up to now is        2.7 secs

     total energy              =     -31.50112957 Ry
     Harris-Foulkes estimate   =     -32.57830142 Ry
     estimated scf accuracy    <       4.16946700 Ry

     iteration # 15     ecut=    30.00 Ry     beta=0.70
     Davidson diagonalization with overlap
     ethr =  1.00E-02,  avg # of iterations =  2.0

     negative rho (up, down):  5.860E-03 0.000E+00

     total cpu time spent up to now is        2.8 secs

     total energy              =     -31.45529652 Ry
     Harris-Foulkes estimate   =     -32.30729450 Ry
     estimated scf accuracy    <       2.38230560 Ry

     iteration # 16     ecut=    30.00 Ry     beta=0.70
     Davidson diagonalization with overlap
     ethr =  1.00E-02,  avg # of iterations =  2.0

     negative rho (up, down):  2.605E-03 0.000E+00

     total cpu time spent up to now is        2.8 secs

     total energy              =     -31.37552722 Ry
     Harris-Foulkes estimate   =     -32.24578378 Ry
     estimated scf accuracy    <       3.49108741 Ry

     iteration # 17     ecut=    30.00 Ry     beta=0.70
     Davidson diagonalization with overlap
     ethr =  1.00E-02,  avg # of iterations =  1.0

     negative rho (up, down):  2.352E-04 0.000E+00

     total cpu time spent up to now is        2.9 secs

     total energy              =     -31.42370351 Ry
     Harris-Foulkes estimate   =     -31.57419693 Ry
     estimated scf accuracy    <       1.65782462 Ry

     iteration # 18     ecut=    30.00 Ry     beta=0.70
     Davidson diagonalization with overlap
     ethr =  1.00E-02,  avg # of iterations =  1.0

     negative rho (up, down):  1.110E-04 0.000E+00

     total cpu time spent up to now is        2.9 secs

     total energy              =     -31.57919578 Ry
     Harris-Foulkes estimate   =     -31.61129640 Ry
     estimated scf accuracy    <       1.62402867 Ry

     iteration # 19     ecut=    30.00 Ry     beta=0.70
     Davidson diagonalization with overlap
     ethr =  1.00E-02,  avg # of iterations =  1.0

     negative rho (up, down):  1.405E-04 0.000E+00

     total cpu time spent up to now is        3.0 secs

     total energy              =     -31.53812658 Ry
     Harris-Foulkes estimate   =     -31.57962836 Ry
     estimated scf accuracy    <       1.46466608 Ry

     iteration # 20     ecut=    30.00 Ry     beta=0.70
     Davidson diagonalization with overlap
     ethr =  1.00E-02,  avg # of iterations =  1.0

     negative rho (up, down):  1.457E-04 0.000E+00

     total cpu time spent up to now is        3.0 secs

     total energy              =     -31.56991494 Ry
     Harris-Foulkes estimate   =     -31.54730747 Ry
     estimated scf accuracy    <       0.25980866 Ry

     iteration # 21     ecut=    30.00 Ry     beta=0.70
     Davidson diagonalization with overlap
     ethr =  3.25E-03,  avg # of iterations =  1.0

     negative rho (up, down):  1.101E-05 0.000E+00

     total cpu time spent up to now is        3.0 secs

     total energy              =     -31.48284992 Ry
     Harris-Foulkes estimate   =     -31.59507909 Ry
     estimated scf accuracy    <       1.51496596 Ry

     iteration # 22     ecut=    30.00 Ry     beta=0.70
     Davidson diagonalization with overlap
     ethr =  3.25E-03,  avg # of iterations =  1.0

     negative rho (up, down):  7.531E-06 0.000E+00

     total cpu time spent up to now is        3.1 secs

     total energy              =     -31.56167072 Ry
     Harris-Foulkes estimate   =     -31.56300956 Ry
     estimated scf accuracy    <       1.48673335 Ry

     iteration # 23     ecut=    30.00 Ry     beta=0.70
     Davidson diagonalization with overlap
     ethr =  3.25E-03,  avg # of iterations =  1.0

     negative rho (up, down):  7.257E-08 0.000E+00

     total cpu time spent up to now is        3.1 secs

     total energy              =     -31.49195446 Ry
     Harris-Foulkes estimate   =     -31.56177742 Ry
     estimated scf accuracy    <       1.45868537 Ry

     iteration # 24     ecut=    30.00 Ry     beta=0.70
     Davidson diagonalization with overlap
     ethr =  3.25E-03,  avg # of iterations =  1.0

     negative rho (up, down):  2.859E-05 0.000E+00

     total cpu time spent up to now is        3.2 secs

     total energy              =     -31.54374329 Ry
     Harris-Foulkes estimate   =     -31.56156034 Ry
     estimated scf accuracy    <       0.60836303 Ry

     iteration # 25     ecut=    30.00 Ry     beta=0.70
     Davidson diagonalization with overlap
     ethr =  3.25E-03,  avg # of iterations =  1.0

     negative rho (up, down):  6.972E-07 0.000E+00

     total cpu time spent up to now is        3.2 secs

     total energy              =     -31.54590764 Ry
     Harris-Foulkes estimate   =     -31.54804770 Ry
     estimated scf accuracy    <       0.16048967 Ry

     iteration # 26     ecut=    30.00 Ry     beta=0.70
     Davidson diagonalization with overlap
     ethr =  2.01E-03,  avg # of iterations =  1.0

     total cpu time spent up to now is        3.3 secs

     total energy              =     -31.56769136 Ry
     Harris-Foulkes estimate   =     -31.55886352 Ry
     estimated scf accuracy    <       0.83297165 Ry

     iteration # 27     ecut=    30.00 Ry     beta=0.70
     Davidson diagonalization with overlap
     ethr =  2.01E-03,  avg # of iterations =  1.0

     negative rho (up, down):  2.463E-07 0.000E+00

     total cpu time spent up to now is        3.3 secs

     total energy              =     -31.54088142 Ry
     Harris-Foulkes estimate   =     -31.56821117 Ry
     estimated scf accuracy    <       1.03901154 Ry

     iteration # 28     ecut=    30.00 Ry     beta=0.70
     Davidson diagonalization with overlap
     ethr =  2.01E-03,  avg # of iterations =  1.0

     negative rho (up, down):  1.420E-06 0.000E+00

     total cpu time spent up to now is        3.4 secs

     total energy              =     -31.54545049 Ry
     Harris-Foulkes estimate   =     -31.54560710 Ry
     estimated scf accuracy    <       0.28667025 Ry

     iteration # 29     ecut=    30.00 Ry     beta=0.70
     Davidson diagonalization with overlap
     ethr =  2.01E-03,  avg # of iterations =  1.0

     negative rho (up, down):  6.648E-07 0.000E+00

     total cpu time spent up to now is        3.4 secs

     total energy              =     -31.55011431 Ry
     Harris-Foulkes estimate   =     -31.54550494 Ry
     estimated scf accuracy    <       0.27433114 Ry

     iteration # 30     ecut=    30.00 Ry     beta=0.70
     Davidson diagonalization with overlap
     ethr =  2.01E-03,  avg # of iterations =  1.0

     negative rho (up, down):  1.879E-07 0.000E+00

     total cpu time spent up to now is        3.5 secs

     total energy              =     -31.54479480 Ry
     Harris-Foulkes estimate   =     -31.55142029 Ry
     estimated scf accuracy    <       0.56349764 Ry

     iteration # 31     ecut=    30.00 Ry     beta=0.70
     Davidson diagonalization with overlap
     ethr =  2.01E-03,  avg # of iterations =  1.0

     negative rho (up, down):  6.143E-08 0.000E+00

     total cpu time spent up to now is        3.5 secs

     total energy              =     -31.55065043 Ry
     Harris-Foulkes estimate   =     -31.54572755 Ry
     estimated scf accuracy    <       0.27368424 Ry

     iteration # 32     ecut=    30.00 Ry     beta=0.70
     Davidson diagonalization with overlap
     ethr =  2.01E-03,  avg # of iterations =  1.0

     negative rho (up, down):  2.155E-08 0.000E+00

     total cpu time spent up to now is        3.6 secs

     total energy              =     -31.52049487 Ry
     Harris-Foulkes estimate   =     -31.55173129 Ry
     estimated scf accuracy    <       0.53453421 Ry

     iteration # 33     ecut=    30.00 Ry     beta=0.70
     Davidson diagonalization with overlap
     ethr =  2.01E-03,  avg # of iterations =  1.0

     total cpu time spent up to now is        3.6 secs

     total energy              =     -31.53417598 Ry
     Harris-Foulkes estimate   =     -31.54817205 Ry
     estimated scf accuracy    <       0.50676906 Ry

     iteration # 34     ecut=    30.00 Ry     beta=0.70
     Davidson diagonalization with overlap
     ethr =  2.01E-03,  avg # of iterations =  1.0

     total cpu time spent up to now is        3.7 secs

     total energy              =     -31.54147400 Ry
     Harris-Foulkes estimate   =     -31.54149902 Ry
     estimated scf accuracy    <       0.00261313 Ry

     iteration # 35     ecut=    30.00 Ry     beta=0.70
     Davidson diagonalization with overlap
     ethr =  3.27E-05,  avg # of iterations =  1.0

     total cpu time spent up to now is        3.7 secs

     total energy              =     -31.54146432 Ry
     Harris-Foulkes estimate   =     -31.54147937 Ry
     estimated scf accuracy    <       0.00139500 Ry

     iteration # 36     ecut=    30.00 Ry     beta=0.70
     Davidson diagonalization with overlap
     ethr =  1.74E-05,  avg # of iterations = 12.0

     total cpu time spent up to now is        3.8 secs

     total energy              =     -31.54146580 Ry
     Harris-Foulkes estimate   =     -31.54146780 Ry
     estimated scf accuracy    <       0.00044777 Ry

     iteration # 37     ecut=    30.00 Ry     beta=0.70
     Davidson diagonalization with overlap
     ethr =  5.60E-06,  avg # of iterations =  1.0

     total cpu time spent up to now is        3.9 secs

     total energy              =     -31.54145592 Ry
     Harris-Foulkes estimate   =     -31.54146601 Ry
     estimated scf accuracy    <       0.00031139 Ry

     iteration # 38     ecut=    30.00 Ry     beta=0.70
     Davidson diagonalization with overlap
     ethr =  3.89E-06,  avg # of iterations =  1.0

     total cpu time spent up to now is        3.9 secs

     total energy              =     -31.54146162 Ry
     Harris-Foulkes estimate   =     -31.54146298 Ry
     estimated scf accuracy    <       0.00003853 Ry

     iteration # 39     ecut=    30.00 Ry     beta=0.70
     Davidson diagonalization with overlap
     ethr =  4.82E-07,  avg # of iterations =  1.0

     total cpu time spent up to now is        4.0 secs

     total energy              =     -31.54146241 Ry
     Harris-Foulkes estimate   =     -31.54146244 Ry
     estimated scf accuracy    <       0.00000311 Ry

     iteration # 40     ecut=    30.00 Ry     beta=0.70
     Davidson diagonalization with overlap
     ethr =  3.89E-08,  avg # of iterations =  1.0

     total cpu time spent up to now is        4.0 secs

     total energy              =     -31.54146240 Ry
     Harris-Foulkes estimate   =     -31.54146242 Ry
     estimated scf accuracy    <       0.00000070 Ry

     iteration # 41     ecut=    30.00 Ry     beta=0.70
     Davidson diagonalization with overlap
     ethr =  8.71E-09,  avg # of iterations =  1.0

     total cpu time spent up to now is        4.1 secs

     total energy              =     -31.54146241 Ry
     Harris-Foulkes estimate   =     -31.54146241 Ry
     estimated scf accuracy    <       0.00000004 Ry

     iteration # 42     ecut=    30.00 Ry     beta=0.70
     Davidson diagonalization with overlap
     ethr =  5.56E-10,  avg # of iterations =  1.0

     total cpu time spent up to now is        4.1 secs

     End of self-consistent calculation

          k = 0.0000 0.0000 0.0000 ( 22119 PWs)   bands (ev):

   -23.6631  -7.5559  -7.0226  -7.0215  -6.9050  -6.5454  -0.1480   0.6118

     the Fermi energy is    -6.8710 ev

!    total energy              =     -31.54146241 Ry
     Harris-Foulkes estimate   =     -31.54146241 Ry
     estimated scf accuracy    <          3.5E-09 Ry

     convergence has been achieved in  42 iterations

     Forces acting on atoms (Ry/au):

     atom    1 type  2   force =    -0.03839805    0.01726932   -0.02165496
     atom    2 type  1   force =     0.03815377   -0.01618152    0.02155480
     atom    3 type  1   force =     0.00024428   -0.00108780    0.00010015

     Total force =     0.066521     Total SCF correction =     0.000016

     Entering Dynamics:    iteration =     2
                           time      =   0.0097 pico-seconds


     Andersen thermostat:    3 collisions

ATOMIC_POSITIONS (bohr)
O        3.475006224  19.495424634   9.414850455
H       -0.266879869   1.053871627   7.358334315
H        0.599250694   9.365328344   6.965960938


     kinetic energy (Ekin) =     0.01726136 Ry
     temperature           =   908.44973343 K 
     Ekin + Etot (const)   =   -31.52420105 Ry
     Message from routine dynamics:
     Total linear momentum <> 0

     Linear momentum :    0.0316409203    0.3676783473    0.1781879288

     Writing output data file pwscf.save

     first order wave-functions extrapolation
     Check: negative starting charge=   -0.341229
     first order charge density extrapolation
     Check: negative starting charge=   -0.341313

     negative rho (up, down):  4.252E-01 0.000E+00

     total cpu time spent up to now is        4.5 secs

     per-process dynamical memory:    20.4 Mb

     Self-consistent Calculation

     iteration #  1     ecut=    30.00 Ry     beta=0.70
     Davidson diagonalization with overlap
     ethr =  1.00E-06,  avg # of iterations = 16.0

     negative rho (up, down):  1.133E-01 0.000E+00

     total cpu time spent up to now is        4.7 secs

     total energy              =       2.48816552 Ry
     Harris-Foulkes estimate   =     -52.55091384 Ry
     estimated scf accuracy    <      11.12491652 Ry

     iteration #  2     ecut=    30.00 Ry     beta=0.70
     Davidson diagonalization with overlap
     ethr =  1.00E-02,  avg # of iterations =  5.0

     negative rho (up, down):  7.099E-02 0.000E+00

     total cpu time spent up to now is        4.7 secs

     total energy              =     -32.73427611 Ry
     Harris-Foulkes estimate   =     -37.79044732 Ry
     estimated scf accuracy    <      10.63886182 Ry

     iteration #  3     ecut=    30.00 Ry     beta=0.70
     Davidson diagonalization with overlap
     ethr =  1.00E-02,  avg # of iterations =  2.0

     negative rho (up, down):  6.415E-02 0.000E+00

     total cpu time spent up to now is        4.8 secs

     total energy              =     -32.32353923 Ry
     Harris-Foulkes estimate   =     -33.23717692 Ry
     estimated scf accuracy    <       5.51972754 Ry

     iteration #  4     ecut=    30.00 Ry     beta=0.70
     Davidson diagonalization with overlap
     ethr =  1.00E-02,  avg # of iterations =  1.0

     negative rho (up, down):  3.880E-02 0.000E+00

     total cpu time spent up to now is        4.8 secs

     total energy              =     -31.68240275 Ry
     Harris-Foulkes estimate   =     -32.83619933 Ry
     estimated scf accuracy    <       3.31095400 Ry

     iteration #  5     ecut=    30.00 Ry     beta=0.70
     Davidson diagonalization with overlap
     ethr =  1.00E-02,  avg # of iterations =  3.0

     negative rho (up, down):  2.717E-02 0.000E+00

     total cpu time spent up to now is        4.9 secs

     total energy              =     -31.61797111 Ry
     Harris-Foulkes estimate   =     -31.72486941 Ry
     estimated scf accuracy    <       0.77525770 Ry

     iteration #  6     ecut=    30.00 Ry     beta=0.70
     Davidson diagonalization with overlap
     ethr =  9.69E-03,  avg # of iterations =  1.0

     negative rho (up, down):  2.271E-02 0.000E+00

     total cpu time spent up to now is        4.9 secs

     total energy              =     -31.60944440 Ry
     Harris-Foulkes estimate   =     -31.62950095 Ry
     estimated scf accuracy    <       0.41545745 Ry

     iteration #  7     ecut=    30.00 Ry     beta=0.70
     Davidson diagonalization with overlap
     ethr =  5.19E-03,  avg # of iterations =  1.0

     negative rho (up, down):  1.960E-02 0.000E+00

     total cpu time spent up to now is        5.0 secs

     total energy              =     -31.56665801 Ry
     Harris-Foulkes estimate   =     -31.61812744 Ry
     estimated scf accuracy    <       0.83067714 Ry

     iteration #  8     ecut=    30.00 Ry     beta=0.70
     Davidson diagonalization with overlap
     ethr =  5.19E-03,  avg # of iterations =  1.0

     negative rho (up, down):  1.649E-02 0.000E+00

     total cpu time spent up to now is        5.0 secs

     total energy              =     -31.61081527 Ry
     Harris-Foulkes estimate   =     -31.60575759 Ry
     estimated scf accuracy    <       1.15131853 Ry

     iteration #  9     ecut=    30.00 Ry     beta=0.70
     Davidson diagonalization with overlap
     ethr =  5.19E-03,  avg # of iterations =  1.0

     negative rho (up, down):  6.037E-03 0.000E+00

     total cpu time spent up to now is        5.1 secs

     total energy              =     -31.60208104 Ry
     Harris-Foulkes estimate   =     -31.61359863 Ry
     estimated scf accuracy    <       1.37191332 Ry

     iteration # 10     ecut=    30.00 Ry     beta=0.70
     Davidson diagonalization with overlap
     ethr =  5.19E-03,  avg # of iterations =  1.0

     negative rho (up, down):  1.530E-05 0.000E+00

     total cpu time spent up to now is        5.1 secs

     total energy              =     -31.68036505 Ry
     Harris-Foulkes estimate   =     -31.66379263 Ry
     estimated scf accuracy    <       2.13527550 Ry

     iteration # 11     ecut=    30.00 Ry     beta=0.70
     Davidson diagonalization with overlap
     ethr =  5.19E-03,  avg # of iterations =  1.0

     negative rho (up, down):  2.579E-06 0.000E+00

     total cpu time spent up to now is        5.2 secs

     total energy              =     -31.66816835 Ry
     Harris-Foulkes estimate   =     -31.68910554 Ry
     estimated scf accuracy    <       3.17056956 Ry

     iteration # 12     ecut=    30.00 Ry     beta=0.70
     Davidson diagonalization with overlap
     ethr =  5.19E-03,  avg # of iterations =  1.0

     negative rho (up, down):  6.016E-06 0.000E+00

     total cpu time spent up to now is        5.2 secs

     total energy              =     -31.53777902 Ry
     Harris-Foulkes estimate   =     -31.66960466 Ry
     estimated scf accuracy    <       2.51155463 Ry

     iteration # 13     ecut=    30.00 Ry     beta=0.70
     Davidson diagonalization with overlap
     ethr =  5.19E-03,  avg # of iterations =  1.0

     negative rho (up, down):  9.260E-05 0.000E+00

     total cpu time spent up to now is        5.3 secs

     total energy              =     -31.61972817 Ry
     Harris-Foulkes estimate   =     -31.63750651 Ry
     estimated scf accuracy    <       0.78242519 Ry

     iteration # 14     ecut=    30.00 Ry     beta=0.70
     Davidson diagonalization with overlap
     ethr =  5.19E-03,  avg # of iterations =  1.0

     negative rho (up, down):  9.187E-05 0.000E+00

     total cpu time spent up to now is        5.3 secs

     total energy              =     -31.64240355 Ry
     Harris-Foulkes estimate   =     -31.63879514 Ry
     estimated scf accuracy    <       0.98090479 Ry

     iteration # 15     ecut=    30.00 Ry     beta=0.70
     Davidson diagonalization with overlap
     ethr =  5.19E-03,  avg # of iterations =  1.0

     negative rho (up, down):  1.091E-05 0.000E+00

     total cpu time spent up to now is        5.4 secs

     total energy              =     -31.65316644 Ry
     Harris-Foulkes estimate   =     -31.64263725 Ry
     estimated scf accuracy    <       0.97483093 Ry

     iteration # 16     ecut=    30.00 Ry     beta=0.70
     Davidson diagonalization with overlap
     ethr =  5.19E-03,  avg # of iterations =  1.0

     negative rho (up, down):  2.551E-06 0.000E+00

     total cpu time spent up to now is        5.4 secs

     total energy              =     -31.65752768 Ry
     Harris-Foulkes estimate   =     -31.65401278 Ry
     estimated scf accuracy    <       0.90591902 Ry

     iteration # 17     ecut=    30.00 Ry     beta=0.70
     Davidson diagonalization with overlap
     ethr =  5.19E-03,  avg # of iterations =  1.0

     negative rho (up, down):  1.617E-06 0.000E+00

     total cpu time spent up to now is        5.5 secs

     total energy              =     -31.65684749 Ry
     Harris-Foulkes estimate   =     -31.65760895 Ry
     estimated scf accuracy    <       0.89075448 Ry

     iteration # 18     ecut=    30.00 Ry     beta=0.70
     Davidson diagonalization with overlap
     ethr =  5.19E-03,  avg # of iterations =  1.0

     negative rho (up, down):  3.266E-06 0.000E+00

     total cpu time spent up to now is        5.5 secs

     total energy              =     -31.62756644 Ry
     Harris-Foulkes estimate   =     -31.65690783 Ry
     estimated scf accuracy    <       0.89748836 Ry

     iteration # 19     ecut=    30.00 Ry     beta=0.70
     Davidson diagonalization with overlap
     ethr =  5.19E-03,  avg # of iterations =  1.0

     negative rho (up, down):  2.787E-07 0.000E+00

     total cpu time spent up to now is        5.6 secs

     total energy              =     -31.63682647 Ry
     Harris-Foulkes estimate   =     -31.62777817 Ry
     estimated scf accuracy    <       0.87513683 Ry

     iteration # 20     ecut=    30.00 Ry     beta=0.70
     Davidson diagonalization with overlap
     ethr =  5.19E-03,  avg # of iterations =  1.0

     negative rho (up, down):  4.879E-07 0.000E+00

     total cpu time spent up to now is        5.6 secs

     total energy              =     -31.62362786 Ry
     Harris-Foulkes estimate   =     -31.63684464 Ry
     estimated scf accuracy    <       0.89480697 Ry

     iteration # 21     ecut=    30.00 Ry     beta=0.70
     Davidson diagonalization with overlap
     ethr =  5.19E-03,  avg # of iterations =  1.0

     negative rho (up, down):  1.900E-04 0.000E+00

     total cpu time spent up to now is        5.7 secs

     total energy              =     -31.10457906 Ry
     Harris-Foulkes estimate   =     -31.62366912 Ry
     estimated scf accuracy    <       0.86196606 Ry

     iteration # 22     ecut=    30.00 Ry     beta=0.70
     Davidson diagonalization with overlap
     ethr =  5.19E-03,  avg # of iterations =  3.0

     negative rho (up, down):  1.197E-06 0.000E+00

     total cpu time spent up to now is        5.7 secs

     total energy              =     -31.90954361 Ry
     Harris-Foulkes estimate   =     -32.69923377 Ry
     estimated scf accuracy    <       3.46433982 Ry

     iteration # 23     ecut=    30.00 Ry     beta=0.70
     Davidson diagonalization with overlap
     ethr =  5.19E-03,  avg # of iterations =  1.0

     negative rho (up, down):  6.350E-08 0.000E+00

     total cpu time spent up to now is        5.8 secs

     total energy              =     -31.62061415 Ry
     Harris-Foulkes estimate   =     -31.93534439 Ry
     estimated scf accuracy    <       1.89007001 Ry

     iteration # 24     ecut=    30.00 Ry     beta=0.70
     Davidson diagonalization with overlap
     ethr =  5.19E-03,  avg # of iterations =  1.0

     negative rho (up, down):  2.462E-07 0.000E+00

     total cpu time spent up to now is        5.8 secs

     total energy              =     -31.62123396 Ry
     Harris-Foulkes estimate   =     -31.63044520 Ry
     estimated scf accuracy    <       1.49957063 Ry

     iteration # 25     ecut=    30.00 Ry     beta=0.70
     Davidson diagonalization with overlap
     ethr =  5.19E-03,  avg # of iterations =  1.0

     negative rho (up, down):  3.985E-05 0.000E+00

     total cpu time spent up to now is        5.9 secs

     total energy              =     -31.43156214 Ry
     Harris-Foulkes estimate   =     -31.62125213 Ry
     estimated scf accuracy    <       1.58063912 Ry

     iteration # 26     ecut=    30.00 Ry     beta=0.70
     Davidson diagonalization with overlap
     ethr =  5.19E-03,  avg # of iterations =  1.0

     negative rho (up, down):  2.533E-07 0.000E+00

     total cpu time spent up to now is        6.0 secs

     total energy              =     -31.62483468 Ry
     Harris-Foulkes estimate   =     -31.68053678 Ry
     estimated scf accuracy    <       1.10429028 Ry

     iteration # 27     ecut=    30.00 Ry     beta=0.70
     Davidson diagonalization with overlap
     ethr =  5.19E-03,  avg # of iterations =  1.0

     total cpu time spent up to now is        6.0 secs

     total energy              =     -31.57651553 Ry
     Harris-Foulkes estimate   =     -31.62532503 Ry
     estimated scf accuracy    <       0.96185992 Ry

     iteration # 28     ecut=    30.00 Ry     beta=0.70
     Davidson diagonalization with overlap
     ethr =  5.19E-03,  avg # of iterations =  1.0

     total cpu time spent up to now is        6.1 secs

     total energy              =     -31.58607219 Ry
     Harris-Foulkes estimate   =     -31.58621996 Ry
     estimated scf accuracy    <       0.06337257 Ry

     iteration # 29     ecut=    30.00 Ry     beta=0.70
     Davidson diagonalization with overlap
     ethr =  7.92E-04,  avg # of iterations =  1.0

     total cpu time spent up to now is        6.1 secs

     total energy              =     -31.58823317 Ry
     Harris-Foulkes estimate   =     -31.58608321 Ry
     estimated scf accuracy    <       0.05381263 Ry

     iteration # 30     ecut=    30.00 Ry     beta=0.70
     Davidson diagonalization with overlap
     ethr =  6.73E-04,  avg # of iterations =  1.0

     total cpu time spent up to now is        6.2 secs

     total energy              =     -31.57876704 Ry
     Harris-Foulkes estimate   =     -31.58954447 Ry
     estimated scf accuracy    <       0.26643473 Ry

     iteration # 31     ecut=    30.00 Ry     beta=0.70
     Davidson diagonalization with overlap
     ethr =  6.73E-04,  avg # of iterations =  1.0

     total cpu time spent up to now is        6.2 secs

     total energy              =     -31.58816989 Ry
     Harris-Foulkes estimate   =     -31.58599898 Ry
     estimated scf accuracy    <       0.05194115 Ry

     iteration # 32     ecut=    30.00 Ry     beta=0.70
     Davidson diagonalization with overlap
     ethr =  6.49E-04,  avg # of iterations =  1.0

     total cpu time spent up to now is        6.3 secs

     total energy              =     -31.57343839 Ry
     Harris-Foulkes estimate   =     -31.58996823 Ry
     estimated scf accuracy    <       0.36806384 Ry

     iteration # 33     ecut=    30.00 Ry     beta=0.70
     Davidson diagonalization with overlap
     ethr =  6.49E-04,  avg # of iterations =  1.0

     total cpu time spent up to now is        6.3 secs

     total energy              =     -31.58734435 Ry
     Harris-Foulkes estimate   =     -31.58813570 Ry
     estimated scf accuracy    <       0.18658473 Ry

     iteration # 34     ecut=    30.00 Ry     beta=0.70
     Davidson diagonalization with overlap
     ethr =  6.49E-04,  avg # of iterations =  1.0

     total cpu time spent up to now is        6.4 secs

     total energy              =     -31.58446961 Ry
     Harris-Foulkes estimate   =     -31.58739576 Ry
     estimated scf accuracy    <       0.14119140 Ry

     iteration # 35     ecut=    30.00 Ry     beta=0.70
     Davidson diagonalization with overlap
     ethr =  6.49E-04,  avg # of iterations =  1.0

     total cpu time spent up to now is        6.4 secs

     total energy              =     -31.58513538 Ry
     Harris-Foulkes estimate   =     -31.58547635 Ry
     estimated scf accuracy    <       0.01129348 Ry

     iteration # 36     ecut=    30.00 Ry     beta=0.70
     Davidson diagonalization with overlap
     ethr =  1.41E-04,  avg # of iterations =  1.0

     total cpu time spent up to now is        6.5 secs

     total energy              =     -31.58532187 Ry
     Harris-Foulkes estimate   =     -31.58533055 Ry
     estimated scf accuracy    <       0.00028580 Ry

     iteration # 37     ecut=    30.00 Ry     beta=0.70
     Davidson diagonalization with overlap
     ethr =  3.57E-06,  avg # of iterations = 15.0

     total cpu time spent up to now is        6.6 secs

     total energy              =     -31.58532537 Ry
     Harris-Foulkes estimate   =     -31.58532661 Ry
     estimated scf accuracy    <       0.00000561 Ry

     iteration # 38     ecut=    30.00 Ry     beta=0.70
     Davidson diagonalization with overlap
     ethr =  7.01E-08,  avg # of iterations =  1.0

     total cpu time spent up to now is        6.6 secs

     total energy              =     -31.58532527 Ry
     Harris-Foulkes estimate   =     -31.58532539 Ry
     estimated scf accuracy    <       0.00000333 Ry

     iteration # 39     ecut=    30.00 Ry     beta=0.70
     Davidson diagonalization with overlap
     ethr =  4.16E-08,  avg # of iterations =  1.0

     total cpu time spent up to now is        6.7 secs

     total energy              =     -31.58532516 Ry
     Harris-Foulkes estimate   =     -31.58532528 Ry
     estimated scf accuracy    <       0.00000654 Ry

     iteration # 40     ecut=    30.00 Ry     beta=0.70
     Davidson diagonalization with overlap
     ethr =  4.16E-08,  avg # of iterations =  1.0

     total cpu time spent up to now is        6.7 secs

     total energy              =     -31.58532518 Ry
     Harris-Foulkes estimate   =     -31.58532517 Ry
     estimated scf accuracy    <       0.00000340 Ry

     iteration # 41     ecut=    30.00 Ry     beta=0.70
     Davidson diagonalization with overlap
     ethr =  4.16E-08,  avg # of iterations =  1.0

     total cpu time spent up to now is        6.7 secs

     End of self-consistent calculation

          k = 0.0000 0.0000 0.0000 ( 22119 PWs)   bands (ev):

   -23.6251  -7.9031  -6.9459  -6.9451  -6.8113  -6.2080  -0.1302   0.6280

     the Fermi energy is    -6.7773 ev

!    total energy              =     -31.58532529 Ry
     Harris-Foulkes estimate   =     -31.58532522 Ry
     estimated scf accuracy    <          1.3E-09 Ry

     convergence has been achieved in  41 iterations

     Forces acting on atoms (Ry/au):

     atom    1 type  2   force =    -0.07090537    0.03033603   -0.03951730
     atom    2 type  1   force =     0.07071797   -0.02990155    0.03924736
     atom    3 type  1   force =     0.00018741   -0.00043448    0.00026994

     Total force =     0.122251     Total SCF correction =     0.000042

     Entering Dynamics:    iteration =     3
                           time      =   0.0145 pico-seconds


     Andersen thermostat:    3 collisions

ATOMIC_POSITIONS (bohr)
O        3.411102943  19.522634243   9.385634098
H        0.629298531   0.815213733   8.074316069
H        0.715401499   9.172942916   6.712812562


     kinetic energy (Ekin) =     0.03446521 Ry
     temperature           =  1813.87345685 K 
     Ekin + Etot (const)   =   -31.55086007 Ry
     Message from routine dynamics:
     Total linear momentum <> 0

     Linear momentum :    0.3679424336   -0.4059240373    0.0655390169

     Writing output data file pwscf.save

     second order wave-functions extrapolation
     Check: negative starting charge=   -0.341313
     second order charge density extrapolation
     Check: negative starting charge=   -0.343281

     negative rho (up, down):  1.392E-01 0.000E+00

     total cpu time spent up to now is        7.2 secs

     per-process dynamical memory:    20.4 Mb

     Self-consistent Calculation

     iteration #  1     ecut=    30.00 Ry     beta=0.70
     Davidson diagonalization with overlap
     ethr =  1.00E-06,  avg # of iterations = 10.0

     negative rho (up, down):  1.782E-02 0.000E+00

     total cpu time spent up to now is        7.4 secs

     total energy              =      59.97000659 Ry
     Harris-Foulkes estimate   =    -124.48048055 Ry
     estimated scf accuracy    <      37.20963524 Ry

     iteration #  2     ecut=    30.00 Ry     beta=0.70
     Davidson diagonalization with overlap
     ethr =  1.00E-02,  avg # of iterations =  4.0

     negative rho (up, down):  1.105E-02 0.000E+00

     total cpu time spent up to now is        7.4 secs

     total energy              =     -37.10867816 Ry
     Harris-Foulkes estimate   =     -54.85523356 Ry
     estimated scf accuracy    <      33.09570377 Ry

     iteration #  3     ecut=    30.00 Ry     beta=0.70
     Davidson diagonalization with overlap
     ethr =  1.00E-02,  avg # of iterations =  3.0

     negative rho (up, down):  6.781E-03 0.000E+00

     total cpu time spent up to now is        7.5 secs

     total energy              =     -33.16989226 Ry
     Harris-Foulkes estimate   =     -37.96616168 Ry
     estimated scf accuracy    <      10.18532502 Ry

     iteration #  4     ecut=    30.00 Ry     beta=0.70
     Davidson diagonalization with overlap
     ethr =  1.00E-02,  avg # of iterations =  2.0

     negative rho (up, down):  6.587E-03 0.000E+00

     total cpu time spent up to now is        7.6 secs

     total energy              =     -34.03467154 Ry
     Harris-Foulkes estimate   =     -34.41133887 Ry
     estimated scf accuracy    <       5.04079365 Ry

     iteration #  5     ecut=    30.00 Ry     beta=0.70
     Davidson diagonalization with overlap
     ethr =  1.00E-02,  avg # of iterations =  1.0

     negative rho (up, down):  6.497E-03 0.000E+00

     total cpu time spent up to now is        7.6 secs

     total energy              =     -33.81938340 Ry
     Harris-Foulkes estimate   =     -34.07386481 Ry
     estimated scf accuracy    <       4.36352349 Ry

     iteration #  6     ecut=    30.00 Ry     beta=0.70
     Davidson diagonalization with overlap
     ethr =  1.00E-02,  avg # of iterations =  1.0

     negative rho (up, down):  2.474E-03 0.000E+00

     total cpu time spent up to now is        7.6 secs

     total energy              =     -31.83536825 Ry
     Harris-Foulkes estimate   =     -33.87925173 Ry
     estimated scf accuracy    <       4.60868297 Ry

     iteration #  7     ecut=    30.00 Ry     beta=0.70
     Davidson diagonalization with overlap
     ethr =  1.00E-02,  avg # of iterations =  3.0

     negative rho (up, down):  3.745E-03 0.000E+00

     total cpu time spent up to now is        7.7 secs

     total energy              =     -32.47127060 Ry
     Harris-Foulkes estimate   =     -31.99291112 Ry
     estimated scf accuracy    <       1.55874302 Ry

     iteration #  8     ecut=    30.00 Ry     beta=0.70
     Davidson diagonalization with overlap
     ethr =  1.00E-02,  avg # of iterations =  1.0

     negative rho (up, down):  2.779E-03 0.000E+00

     total cpu time spent up to now is        7.8 secs

     total energy              =     -32.18719029 Ry
     Harris-Foulkes estimate   =     -32.62325112 Ry
     estimated scf accuracy    <       3.21726741 Ry

     iteration #  9     ecut=    30.00 Ry     beta=0.70
     Davidson diagonalization with overlap
     ethr =  1.00E-02,  avg # of iterations =  1.0

     negative rho (up, down):  2.471E-03 0.000E+00

     total cpu time spent up to now is        7.8 secs

     total energy              =     -32.04485478 Ry
     Harris-Foulkes estimate   =     -32.19878252 Ry
     estimated scf accuracy    <       2.40196983 Ry

     iteration # 10     ecut=    30.00 Ry     beta=0.70
     Davidson diagonalization with overlap
     ethr =  1.00E-02,  avg # of iterations =  1.0

     negative rho (up, down):  2.853E-05 0.000E+00

     total cpu time spent up to now is        7.8 secs

     total energy              =     -31.46782392 Ry
     Harris-Foulkes estimate   =     -32.04779797 Ry
     estimated scf accuracy    <       2.04151877 Ry

     iteration # 11     ecut=    30.00 Ry     beta=0.70
     Davidson diagonalization with overlap
     ethr =  1.00E-02,  avg # of iterations =  2.0

     negative rho (up, down):  2.106E-05 0.000E+00

     total cpu time spent up to now is        7.9 secs

     total energy              =     -31.96502708 Ry
     Harris-Foulkes estimate   =     -31.96114953 Ry
     estimated scf accuracy    <       2.58490012 Ry

     iteration # 12     ecut=    30.00 Ry     beta=0.70
     Davidson diagonalization with overlap
     ethr =  1.00E-02,  avg # of iterations =  1.0

     negative rho (up, down):  4.409E-04 0.000E+00

     total cpu time spent up to now is        8.0 secs

     total energy              =     -32.01189695 Ry
     Harris-Foulkes estimate   =     -31.96591238 Ry
     estimated scf accuracy    <       2.62276014 Ry

     iteration # 13     ecut=    30.00 Ry     beta=0.70
     Davidson diagonalization with overlap
     ethr =  1.00E-02,  avg # of iterations =  1.0

     negative rho (up, down):  3.933E-03 0.000E+00

     total cpu time spent up to now is        8.0 secs

     total energy              =     -32.02710708 Ry
     Harris-Foulkes estimate   =     -32.01239290 Ry
     estimated scf accuracy    <       2.69623241 Ry

     iteration # 14     ecut=    30.00 Ry     beta=0.70
     Davidson diagonalization with overlap
     ethr =  1.00E-02,  avg # of iterations =  1.0

     negative rho (up, down):  1.192E-01 0.000E+00

     total cpu time spent up to now is        8.1 secs

     total energy              =     -32.17605039 Ry
     Harris-Foulkes estimate   =     -32.02728566 Ry
     estimated scf accuracy    <       2.72376608 Ry

     iteration # 15     ecut=    30.00 Ry     beta=0.70
     Davidson diagonalization with overlap
     ethr =  1.00E-02,  avg # of iterations =  1.0

     negative rho (up, down):  1.610E-01 0.000E+00

     total cpu time spent up to now is        8.1 secs

     total energy              =     -32.07802316 Ry
     Harris-Foulkes estimate   =     -32.18383751 Ry
     estimated scf accuracy    <       2.98588933 Ry

     iteration # 16     ecut=    30.00 Ry     beta=0.70
     Davidson diagonalization with overlap
     ethr =  1.00E-02,  avg # of iterations =  1.0

     negative rho (up, down):  8.376E-02 0.000E+00

     total cpu time spent up to now is        8.2 secs

     total energy              =     -32.09171416 Ry
     Harris-Foulkes estimate   =     -32.08086421 Ry
     estimated scf accuracy    <       2.67915961 Ry

     iteration # 17     ecut=    30.00 Ry     beta=0.70
     Davidson diagonalization with overlap
     ethr =  1.00E-02,  avg # of iterations =  1.0

     negative rho (up, down):  4.319E-02 0.000E+00

     total cpu time spent up to now is        8.2 secs

     total energy              =     -32.21013619 Ry
     Harris-Foulkes estimate   =     -32.10344831 Ry
     estimated scf accuracy    <       2.33609702 Ry

     iteration # 18     ecut=    30.00 Ry     beta=0.70
     Davidson diagonalization with overlap
     ethr =  1.00E-02,  avg # of iterations =  1.0

     negative rho (up, down):  1.919E-02 0.000E+00

     total cpu time spent up to now is        8.2 secs

     total energy              =     -31.51780610 Ry
     Harris-Foulkes estimate   =     -32.21152044 Ry
     estimated scf accuracy    <       2.49257861 Ry

     iteration # 19     ecut=    30.00 Ry     beta=0.70
     Davidson diagonalization with overlap
     ethr =  1.00E-02,  avg # of iterations =  1.0

     negative rho (up, down):  7.963E-03 0.000E+00

     total cpu time spent up to now is        8.3 secs

     total energy              =     -31.59109641 Ry
     Harris-Foulkes estimate   =     -31.82407593 Ry
     estimated scf accuracy    <       1.12400633 Ry

     iteration # 20     ecut=    30.00 Ry     beta=0.70
     Davidson diagonalization with overlap
     ethr =  1.00E-02,  avg # of iterations =  1.0

     negative rho (up, down):  1.903E-05 0.000E+00

     total cpu time spent up to now is        8.3 secs

     total energy              =     -31.67888734 Ry
     Harris-Foulkes estimate   =     -31.86311248 Ry
     estimated scf accuracy    <       1.34300214 Ry

     iteration # 21     ecut=    30.00 Ry     beta=0.70
     Davidson diagonalization with overlap
     ethr =  1.00E-02,  avg # of iterations =  1.0

     negative rho (up, down):  4.978E-07 0.000E+00

     total cpu time spent up to now is        8.4 secs

     total energy              =     -31.66451424 Ry
     Harris-Foulkes estimate   =     -31.75021052 Ry
     estimated scf accuracy    <       0.78972936 Ry

     iteration # 22     ecut=    30.00 Ry     beta=0.70
     Davidson diagonalization with overlap
     ethr =  9.87E-03,  avg # of iterations =  1.0

     negative rho (up, down):  1.096E-07 0.000E+00

     total cpu time spent up to now is        8.4 secs

     total energy              =     -31.72636599 Ry
     Harris-Foulkes estimate   =     -31.78800519 Ry
     estimated scf accuracy    <       1.31527288 Ry

     iteration # 23     ecut=    30.00 Ry     beta=0.70
     Davidson diagonalization with overlap
     ethr =  9.87E-03,  avg # of iterations =  1.0

     total cpu time spent up to now is        8.5 secs

     total energy              =     -31.72245298 Ry
     Harris-Foulkes estimate   =     -31.73216708 Ry
     estimated scf accuracy    <       0.12415993 Ry

     iteration # 24     ecut=    30.00 Ry     beta=0.70
     Davidson diagonalization with overlap
     ethr =  1.55E-03,  avg # of iterations =  1.0

     total cpu time spent up to now is        8.5 secs

     total energy              =     -31.72649167 Ry
     Harris-Foulkes estimate   =     -31.73711829 Ry
     estimated scf accuracy    <       0.38609161 Ry

     iteration # 25     ecut=    30.00 Ry     beta=0.70
     Davidson diagonalization with overlap
     ethr =  1.55E-03,  avg # of iterations =  1.0

     total cpu time spent up to now is        8.6 secs

     total energy              =     -31.73070297 Ry
     Harris-Foulkes estimate   =     -31.73072789 Ry
     estimated scf accuracy    <       0.00652712 Ry

     iteration # 26     ecut=    30.00 Ry     beta=0.70
     Davidson diagonalization with overlap
     ethr =  8.16E-05,  avg # of iterations =  5.0

     total cpu time spent up to now is        8.7 secs

     total energy              =     -31.73059553 Ry
     Harris-Foulkes estimate   =     -31.73070747 Ry
     estimated scf accuracy    <       0.00476842 Ry

     iteration # 27     ecut=    30.00 Ry     beta=0.70
     Davidson diagonalization with overlap
     ethr =  5.96E-05,  avg # of iterations =  1.0

     total cpu time spent up to now is        8.7 secs

     total energy              =     -31.73063713 Ry
     Harris-Foulkes estimate   =     -31.73064529 Ry
     estimated scf accuracy    <       0.00005187 Ry

     iteration # 28     ecut=    30.00 Ry     beta=0.70
     Davidson diagonalization with overlap
     ethr =  6.48E-07,  avg # of iterations = 16.0

     total cpu time spent up to now is        8.8 secs

     total energy              =     -31.73063442 Ry
     Harris-Foulkes estimate   =     -31.73066350 Ry
     estimated scf accuracy    <       0.00145822 Ry

     iteration # 29     ecut=    30.00 Ry     beta=0.70
     Davidson diagonalization with overlap
     ethr =  6.48E-07,  avg # of iterations =  1.0

     total cpu time spent up to now is        8.8 secs

     total energy              =     -31.73064513 Ry
     Harris-Foulkes estimate   =     -31.73064559 Ry
     estimated scf accuracy    <       0.00007511 Ry

     iteration # 30     ecut=    30.00 Ry     beta=0.70
     Davidson diagonalization with overlap
     ethr =  6.48E-07,  avg # of iterations =  1.0

     total cpu time spent up to now is        8.9 secs

     total energy              =     -31.73064428 Ry
     Harris-Foulkes estimate   =     -31.73064519 Ry
     estimated scf accuracy    <       0.00004292 Ry

     iteration # 31     ecut=    30.00 Ry     beta=0.70
     Davidson diagonalization with overlap
     ethr =  5.37E-07,  avg # of iterations =  1.0

     total cpu time spent up to now is        8.9 secs

     total energy              =     -31.73064477 Ry
     Harris-Foulkes estimate   =     -31.73064472 Ry
     estimated scf accuracy    <       0.00000052 Ry

     iteration # 32     ecut=    30.00 Ry     beta=0.70
     Davidson diagonalization with overlap
     ethr =  6.46E-09,  avg # of iterations =  1.0

     total cpu time spent up to now is        9.0 secs

     total energy              =     -31.73064480 Ry
     Harris-Foulkes estimate   =     -31.73064479 Ry
     estimated scf accuracy    <       0.00000021 Ry

     iteration # 33     ecut=    30.00 Ry     beta=0.70
     Davidson diagonalization with overlap
     ethr =  2.64E-09,  avg # of iterations =  1.0

     total cpu time spent up to now is        9.0 secs

     End of self-consistent calculation

          k = 0.0000 0.0000 0.0000 ( 22119 PWs)   bands (ev):

   -23.6334  -8.7747  -6.9322  -6.9312  -6.7971  -4.3980  -0.0835   0.7058

     the Fermi energy is    -6.7629 ev

!    total energy              =     -31.73064480 Ry
     Harris-Foulkes estimate   =     -31.73064480 Ry
     estimated scf accuracy    <          7.8E-11 Ry

     convergence has been achieved in  33 iterations

     Forces acting on atoms (Ry/au):

     atom    1 type  2   force =    -0.14057586    0.06626231   -0.06715305
     atom    2 type  1   force =     0.14070285   -0.06594406    0.06671994
     atom    3 type  1   force =    -0.00012699   -0.00031824    0.00043311

     Total force =     0.239290     Total SCF correction =     0.000002

     Entering Dynamics:    iteration =     4
                           time      =   0.0194 pico-seconds


     Andersen thermostat:    3 collisions

ATOMIC_POSITIONS (bohr)
O        3.282226575  19.548717561   9.362210838
H        2.051430554  -0.138598579   8.594580390
H        1.334875300   9.713554152   6.563609778


     kinetic energy (Ekin) =     0.07632299 Ry
     temperature           =  4016.81085432 K 
     Ekin + Etot (const)   =   -31.65432181 Ry
     Message from routine dynamics:
     Total linear momentum <> 0

     Linear momentum :    0.2868737536    0.0527050046   -0.2617939527

     Writing output data file pwscf.save

     second order wave-functions extrapolation
     Check: negative starting charge=   -0.343281
     second order charge density extrapolation
     Check: negative starting charge=   -0.349681

     negative rho (up, down):  4.476E-01 0.000E+00

     total cpu time spent up to now is        9.5 secs

     per-process dynamical memory:    20.4 Mb

     Self-consistent Calculation

     iteration #  1     ecut=    30.00 Ry     beta=0.70
     Davidson diagonalization with overlap
     c_bands:  1 eigenvalues not converged
     ethr =  1.00E-06,  avg # of iterations = 20.0

     negative rho (up, down):  7.530E-02 0.000E+00

     total cpu time spent up to now is        9.6 secs

     total energy              =     -18.23772919 Ry
     Harris-Foulkes estimate   =     -35.05511346 Ry
     estimated scf accuracy    <       5.81537628 Ry

     iteration #  2     ecut=    30.00 Ry     beta=0.70
     Davidson diagonalization with overlap
     ethr =  1.00E-02,  avg # of iterations =  4.0

     negative rho (up, down):  4.324E-02 0.000E+00

     total cpu time spent up to now is        9.7 secs

     total energy              =     -32.17468773 Ry
     Harris-Foulkes estimate   =     -34.14286945 Ry
     estimated scf accuracy    <       3.27644609 Ry

     iteration #  3     ecut=    30.00 Ry     beta=0.70
     Davidson diagonalization with overlap
     ethr =  1.00E-02,  avg # of iterations =  2.0

     negative rho (up, down):  3.929E-02 0.000E+00

     total cpu time spent up to now is        9.7 secs

     total energy              =     -32.09935630 Ry
     Harris-Foulkes estimate   =     -32.46272138 Ry
     estimated scf accuracy    <       2.34216143 Ry

     iteration #  4     ecut=    30.00 Ry     beta=0.70
     Davidson diagonalization with overlap
     ethr =  1.00E-02,  avg # of iterations =  1.0

     negative rho (up, down):  2.373E-02 0.000E+00

     total cpu time spent up to now is        9.8 secs

     total energy              =     -31.92809649 Ry
     Harris-Foulkes estimate   =     -32.38095420 Ry
     estimated scf accuracy    <       2.02074777 Ry

     iteration #  5     ecut=    30.00 Ry     beta=0.70
     Davidson diagonalization with overlap
     ethr =  1.00E-02,  avg # of iterations =  1.0

     negative rho (up, down):  1.279E-02 0.000E+00

     total cpu time spent up to now is        9.8 secs

     total energy              =     -31.70344487 Ry
     Harris-Foulkes estimate   =     -31.93540213 Ry
     estimated scf accuracy    <       1.22665747 Ry

     iteration #  6     ecut=    30.00 Ry     beta=0.70
     Davidson diagonalization with overlap
     ethr =  1.00E-02,  avg # of iterations =  1.0

     negative rho (up, down):  4.278E-03 0.000E+00

     total cpu time spent up to now is        9.9 secs

     total energy              =     -31.73435375 Ry
     Harris-Foulkes estimate   =     -31.84131298 Ry
     estimated scf accuracy    <       1.46584930 Ry

     iteration #  7     ecut=    30.00 Ry     beta=0.70
     Davidson diagonalization with overlap
     ethr =  1.00E-02,  avg # of iterations =  1.0

     negative rho (up, down):  6.714E-04 0.000E+00

     total cpu time spent up to now is        9.9 secs

     total energy              =     -31.72260956 Ry
     Harris-Foulkes estimate   =     -31.74207234 Ry
     estimated scf accuracy    <       0.13750691 Ry

     iteration #  8     ecut=    30.00 Ry     beta=0.70
     Davidson diagonalization with overlap
     ethr =  1.72E-03,  avg # of iterations =  1.0

     negative rho (up, down):  3.989E-04 0.000E+00

     total cpu time spent up to now is       10.0 secs

     total energy              =     -31.74762145 Ry
     Harris-Foulkes estimate   =     -31.79238329 Ry
     estimated scf accuracy    <       0.91085355 Ry

     iteration #  9     ecut=    30.00 Ry     beta=0.70
     Davidson diagonalization with overlap
     ethr =  1.72E-03,  avg # of iterations =  1.0

     negative rho (up, down):  5.260E-05 0.000E+00

     total cpu time spent up to now is       10.0 secs

     total energy              =     -31.71804678 Ry
     Harris-Foulkes estimate   =     -31.75162483 Ry
     estimated scf accuracy    <       0.33080416 Ry

     iteration # 10     ecut=    30.00 Ry     beta=0.70
     Davidson diagonalization with overlap
     ethr =  1.72E-03,  avg # of iterations =  1.0

     total cpu time spent up to now is       10.1 secs

     total energy              =     -31.73622861 Ry
     Harris-Foulkes estimate   =     -31.78271235 Ry
     estimated scf accuracy    <       1.63297840 Ry

     iteration # 11     ecut=    30.00 Ry     beta=0.70
     Davidson diagonalization with overlap
     ethr =  1.72E-03,  avg # of iterations =  1.0

     total cpu time spent up to now is       10.1 secs

     total energy              =     -31.74332784 Ry
     Harris-Foulkes estimate   =     -31.74898404 Ry
     estimated scf accuracy    <       0.09795185 Ry

     iteration # 12     ecut=    30.00 Ry     beta=0.70
     Davidson diagonalization with overlap
     ethr =  1.22E-03,  avg # of iterations =  1.0

     total cpu time spent up to now is       10.2 secs

     total energy              =     -31.74618915 Ry
     Harris-Foulkes estimate   =     -31.74968780 Ry
     estimated scf accuracy    <       0.12953234 Ry

     iteration # 13     ecut=    30.00 Ry     beta=0.70
     Davidson diagonalization with overlap
     ethr =  1.22E-03,  avg # of iterations =  1.0

     total cpu time spent up to now is       10.2 secs

     total energy              =     -31.74776936 Ry
     Harris-Foulkes estimate   =     -31.74776296 Ry
     estimated scf accuracy    <       0.00052866 Ry

     iteration # 14     ecut=    30.00 Ry     beta=0.70
     Davidson diagonalization with overlap
     ethr =  6.61E-06,  avg # of iterations =  8.0

     total cpu time spent up to now is       10.3 secs

     total energy              =     -31.74781752 Ry
     Harris-Foulkes estimate   =     -31.74777148 Ry
     estimated scf accuracy    <       0.00108975 Ry

     iteration # 15     ecut=    30.00 Ry     beta=0.70
     Davidson diagonalization with overlap
     ethr =  6.61E-06,  avg # of iterations =  1.0

     total cpu time spent up to now is       10.4 secs

     total energy              =     -31.74766315 Ry
     Harris-Foulkes estimate   =     -31.74785053 Ry
     estimated scf accuracy    <       0.00681705 Ry

     iteration # 16     ecut=    30.00 Ry     beta=0.70
     Davidson diagonalization with overlap
     ethr =  6.61E-06,  avg # of iterations =  1.0

     total cpu time spent up to now is       10.4 secs

     total energy              =     -31.74775775 Ry
     Harris-Foulkes estimate   =     -31.74775761 Ry
     estimated scf accuracy    <       0.00000418 Ry

     iteration # 17     ecut=    30.00 Ry     beta=0.70
     Davidson diagonalization with overlap
     ethr =  5.22E-08,  avg # of iterations =  1.0

     total cpu time spent up to now is       10.5 secs

     total energy              =     -31.74775780 Ry
     Harris-Foulkes estimate   =     -31.74775783 Ry
     estimated scf accuracy    <       0.00001886 Ry

     iteration # 18     ecut=    30.00 Ry     beta=0.70
     Davidson diagonalization with overlap
     ethr =  5.22E-08,  avg # of iterations =  1.0

     total cpu time spent up to now is       10.5 secs

     total energy              =     -31.74775762 Ry
     Harris-Foulkes estimate   =     -31.74775784 Ry
     estimated scf accuracy    <       0.00000707 Ry

     iteration # 19     ecut=    30.00 Ry     beta=0.70
     Davidson diagonalization with overlap
     ethr =  5.22E-08,  avg # of iterations =  1.0

     total cpu time spent up to now is       10.5 secs

     total energy              =     -31.74775773 Ry
     Harris-Foulkes estimate   =     -31.74775772 Ry
     estimated scf accuracy    <       0.00000001 Ry

     iteration # 20     ecut=    30.00 Ry     beta=0.70
     Davidson diagonalization with overlap
     ethr =  1.38E-10,  avg # of iterations =  1.0

     total cpu time spent up to now is       10.6 secs

     End of self-consistent calculation

          k = 0.0000 0.0000 0.0000 ( 22119 PWs)   bands (ev):

   -26.8058 -11.2027  -7.2148  -7.2131  -7.0669  -0.4148   0.5975   0.7524

     the Fermi energy is    -7.0410 ev

!    total energy              =     -31.74775772 Ry
     Harris-Foulkes estimate   =     -31.74775773 Ry
     estimated scf accuracy    <          2.1E-10 Ry

     convergence has been achieved in  20 iterations

     Forces acting on atoms (Ry/au):

     atom    1 type  2   force =     0.80004531   -0.20331846    0.49795955
     atom    2 type  1   force =    -0.80049960    0.20342036   -0.49830714
     atom    3 type  1   force =     0.00045428   -0.00010191    0.00034759

     Total force =     1.363768     Total SCF correction =     0.000018

     Entering Dynamics:    iteration =     5
                           time      =   0.0242 pico-seconds


     Andersen thermostat:    3 collisions

ATOMIC_POSITIONS (bohr)
O        3.829910200  19.410195568   9.737670171
H       -7.087292339   2.221138438   2.832173490
H        1.797421958   9.548224957   6.378146062


     kinetic energy (Ekin) =     1.66141672 Ry
     temperature           = 87438.87992691 K 
     Ekin + Etot (const)   =   -30.08634100 Ry
     Message from routine dynamics:
     Total linear momentum <> 0

     Linear momentum :   -0.1210900472    0.3090709673    0.1362435771

     Writing output data file pwscf.save

     second order wave-functions extrapolation
     Check: negative starting charge=   -0.349681
     second order charge density extrapolation
     Check: negative starting charge=   -0.347994

     negative rho (up, down):  2.080E+00 0.000E+00

     total cpu time spent up to now is       11.2 secs

     per-process dynamical memory:    20.4 Mb

     Self-consistent Calculation

     iteration #  1     ecut=    30.00 Ry     beta=0.70
     Davidson diagonalization with overlap
     c_bands:  1 eigenvalues not converged
     ethr =  1.00E-06,  avg # of iterations = 20.0

     negative rho (up, down):  4.655E-01 0.000E+00

     total cpu time spent up to now is       11.4 secs

     total energy              =      90.31670809 Ry
     Harris-Foulkes estimate   =    -579.75369379 Ry
     estimated scf accuracy    <      19.96063383 Ry

     iteration #  2     ecut=    30.00 Ry     beta=0.70
     Davidson diagonalization with overlap
     ethr =  1.00E-02,  avg # of iterations =  8.0

     negative rho (up, down):  2.733E-01 0.000E+00

     total cpu time spent up to now is       11.5 secs

     total energy              =      66.57953756 Ry
     Harris-Foulkes estimate   =    -174.26015486 Ry
     estimated scf accuracy    <      26.54144087 Ry

     iteration #  3     ecut=    30.00 Ry     beta=0.70
     Davidson diagonalization with overlap
     ethr =  1.00E-02,  avg # of iterations =  9.0

     negative rho (up, down):  2.002E-01 0.000E+00

     total cpu time spent up to now is       11.6 secs

     total energy              =      43.51587094 Ry
     Harris-Foulkes estimate   =    -105.78706128 Ry
     estimated scf accuracy    <      20.44846723 Ry

     iteration #  4     ecut=    30.00 Ry     beta=0.70
     Davidson diagonalization with overlap
     ethr =  1.00E-02,  avg # of iterations =  6.0

     negative rho (up, down):  1.564E-01 0.000E+00

     total cpu time spent up to now is       11.6 secs

     total energy              =      -9.22323616 Ry
     Harris-Foulkes estimate   =     -61.57576110 Ry
     estimated scf accuracy    <      14.60439886 Ry

     iteration #  5     ecut=    30.00 Ry     beta=0.70
     Davidson diagonalization with overlap
     ethr =  1.00E-02,  avg # of iterations =  6.0

     negative rho (up, down):  1.431E-01 0.000E+00

     total cpu time spent up to now is       11.7 secs

     total energy              =     -29.68407293 Ry
     Harris-Foulkes estimate   =     -37.81630604 Ry
     estimated scf accuracy    <      11.39604876 Ry

     iteration #  6     ecut=    30.00 Ry     beta=0.70
     Davidson diagonalization with overlap
     ethr =  1.00E-02,  avg # of iterations =  4.0

     negative rho (up, down):  1.305E-01 0.000E+00

     total cpu time spent up to now is       11.8 secs

     total energy              =     -33.71177066 Ry
     Harris-Foulkes estimate   =     -35.17625981 Ry
     estimated scf accuracy    <       9.00323693 Ry

     iteration #  7     ecut=    30.00 Ry     beta=0.70
     Davidson diagonalization with overlap
     ethr =  1.00E-02,  avg # of iterations =  1.0

     negative rho (up, down):  1.288E-01 0.000E+00

     total cpu time spent up to now is       11.8 secs

     total energy              =     -33.83990319 Ry
     Harris-Foulkes estimate   =     -34.12158476 Ry
     estimated scf accuracy    <       4.98042619 Ry

     iteration #  8     ecut=    30.00 Ry     beta=0.70
     Davidson diagonalization with overlap
     ethr =  1.00E-02,  avg # of iterations =  1.0

     negative rho (up, down):  1.279E-01 0.000E+00

     total cpu time spent up to now is       11.9 secs

     total energy              =     -33.74789371 Ry
     Harris-Foulkes estimate   =     -33.89360116 Ry
     estimated scf accuracy    <       5.15955323 Ry

     iteration #  9     ecut=    30.00 Ry     beta=0.70
     Davidson diagonalization with overlap
     ethr =  1.00E-02,  avg # of iterations =  1.0

     negative rho (up, down):  1.244E-01 0.000E+00

     total cpu time spent up to now is       11.9 secs

     total energy              =     -33.55067256 Ry
     Harris-Foulkes estimate   =     -33.77320720 Ry
[...]

     total energy              =      26.90494937 Ry
     Harris-Foulkes estimate   =    -716.71034667 Ry
     estimated scf accuracy    <      23.79905774 Ry

     iteration # 59     ecut=    30.00 Ry     beta=0.70
     Davidson diagonalization with overlap
     ethr =  1.00E-02,  avg # of iterations =  8.0

     negative rho (up, down):  3.849E-02 0.000E+00

     total cpu time spent up to now is       16.2 secs

     total energy              =       6.01870589 Ry
     Harris-Foulkes estimate   =   -1568.14558790 Ry
     estimated scf accuracy    <      34.98423095 Ry

     iteration # 60     ecut=    30.00 Ry     beta=0.70
     Davidson diagonalization with overlap
     ethr =  1.00E-02,  avg # of iterations = 10.0

     negative rho (up, down):  3.049E-01 0.000E+00

     total cpu time spent up to now is       16.3 secs

     total energy              =      42.07784975 Ry
     Harris-Foulkes estimate   =    -252.86987866 Ry
     estimated scf accuracy    <      17.31188020 Ry

     iteration # 61     ecut=    30.00 Ry     beta=0.70
     Davidson diagonalization with overlap
     ethr =  1.00E-02,  avg # of iterations =  8.0

     negative rho (up, down):  7.482E-01 0.000E+00

     total cpu time spent up to now is       16.4 secs

     total energy              =      33.82711220 Ry
     Harris-Foulkes estimate   =    -732.46768893 Ry
     estimated scf accuracy    <      31.78584074 Ry

     iteration # 62     ecut=    30.00 Ry     beta=0.70
     Davidson diagonalization with overlap
     ethr =  1.00E-02,  avg # of iterations =  7.0

     negative rho (up, down):  1.016E+00 0.000E+00

     total cpu time spent up to now is       16.5 secs

     total energy              =    -120.69190555 Ry
     Harris-Foulkes estimate   =   -1577.68992906 Ry
     estimated scf accuracy    <      18.47356278 Ry

     iteration # 63     ecut=    30.00 Ry     beta=0.70
     Davidson diagonalization with overlap
     ethr =  1.00E-02,  avg # of iterations =  8.0

     negative rho (up, down):  9.302E-01 0.000E+00

     total cpu time spent up to now is       16.6 secs

     total energy              =      81.07054379 Ry
     Harris-Foulkes estimate   =   -6633.09252251 Ry
     estimated scf accuracy    <      45.52882875 Ry

     iteration # 64     ecut=    30.00 Ry     beta=0.70
     Davidson diagonalization with overlap
     ethr =  1.00E-02,  avg # of iterations =  7.0

     negative rho (up, down):  8.868E-01 0.000E+00

     total cpu time spent up to now is       16.7 secs

     total energy              =    -851.54691243 Ry
     Harris-Foulkes estimate   =   -2054.51426718 Ry
     estimated scf accuracy    <      29.19186344 Ry

     iteration # 65     ecut=    30.00 Ry     beta=0.70
     Davidson diagonalization with overlap
     ethr =  1.00E-02,  avg # of iterations =  7.0

     negative rho (up, down):  8.786E-01 0.000E+00

     total cpu time spent up to now is       16.7 secs

     total energy              =     -53.94481650 Ry
     Harris-Foulkes estimate   =  -10747.87593070 Ry
     estimated scf accuracy    <      21.60764382 Ry

     iteration # 66     ecut=    30.00 Ry     beta=0.70
     Davidson diagonalization with overlap
     ethr =  1.00E-02,  avg # of iterations =  9.0

     negative rho (up, down):  1.068E+00 0.000E+00

     total cpu time spent up to now is       16.8 secs

     total energy              =     -11.32765597 Ry
     Harris-Foulkes estimate   =   -3229.44596519 Ry
     estimated scf accuracy    <      48.90190925 Ry

     iteration # 67     ecut=    30.00 Ry     beta=0.70
     Davidson diagonalization with overlap
     ethr =  1.00E-02,  avg # of iterations =  8.0

     negative rho (up, down):  1.006E+00 0.000E+00

     total cpu time spent up to now is       16.9 secs

     total energy              =    -259.92270894 Ry
     Harris-Foulkes estimate   =    -601.16879849 Ry
     estimated scf accuracy    <      31.12866555 Ry

     iteration # 68     ecut=    30.00 Ry     beta=0.70
     Davidson diagonalization with overlap
     ethr =  1.00E-02,  avg # of iterations =  6.0

     negative rho (up, down):  1.749E-02 0.000E+00

     total cpu time spent up to now is       17.0 secs

     total energy              =     446.76512890 Ry
     Harris-Foulkes estimate   =  -10617.01260666 Ry
     estimated scf accuracy    <      23.18050629 Ry

     iteration # 69     ecut=    30.00 Ry     beta=0.70
     Davidson diagonalization with overlap
     ethr =  1.00E-02,  avg # of iterations = 11.0

     negative rho (up, down):  2.460E-02 0.000E+00

     total cpu time spent up to now is       17.1 secs

     total energy              =     -33.20793238 Ry
     Harris-Foulkes estimate   =     -71.45108440 Ry
     estimated scf accuracy    <      33.02920152 Ry

     iteration # 70     ecut=    30.00 Ry     beta=0.70
     Davidson diagonalization with overlap
     ethr =  1.00E-02,  avg # of iterations =  4.0

     negative rho (up, down):  6.724E-02 0.000E+00

     total cpu time spent up to now is       17.2 secs

     total energy              =     -14.31631944 Ry
     Harris-Foulkes estimate   =    -235.00662273 Ry
     estimated scf accuracy    <      25.89966201 Ry

     iteration # 71     ecut=    30.00 Ry     beta=0.70
     Davidson diagonalization with overlap
     ethr =  1.00E-02,  avg # of iterations =  7.0

     negative rho (up, down):  1.333E-01 0.000E+00

     total cpu time spent up to now is       17.3 secs

     total energy              =   -4705.58210421 Ry
     Harris-Foulkes estimate   =    -355.97138971 Ry
     estimated scf accuracy    <      44.17565317 Ry

     iteration # 72     ecut=    30.00 Ry     beta=0.70
     Davidson diagonalization with overlap
     ethr =  1.00E-02,  avg # of iterations =  6.0

     negative rho (up, down):  1.692E-02 0.000E+00

     total cpu time spent up to now is       17.4 secs

     total energy              =     102.80023624 Ry
     Harris-Foulkes estimate   =   -7503.27964162 Ry
     estimated scf accuracy    <      35.89139781 Ry

     iteration # 73     ecut=    30.00 Ry     beta=0.70
     Davidson diagonalization with overlap
     ethr =  1.00E-02,  avg # of iterations =  5.0

     negative rho (up, down):  2.419E-02 0.000E+00

     total cpu time spent up to now is       17.4 secs

     total energy              =     -16.65484157 Ry
     Harris-Foulkes estimate   =    -985.42691243 Ry
     estimated scf accuracy    <      17.72511404 Ry

     iteration # 74     ecut=    30.00 Ry     beta=0.70
     Davidson diagonalization with overlap
     ethr =  1.00E-02,  avg # of iterations =  5.0

     negative rho (up, down):  1.096E-02 0.000E+00

     total cpu time spent up to now is       17.5 secs

     total energy              =     129.30141972 Ry
     Harris-Foulkes estimate   =   -1608.54615888 Ry
     estimated scf accuracy    <      27.44204538 Ry

     iteration # 75     ecut=    30.00 Ry     beta=0.70
     Davidson diagonalization with overlap
     ethr =  1.00E-02,  avg # of iterations =  8.0

     negative rho (up, down):  7.122E-04 0.000E+00

     total cpu time spent up to now is       17.6 secs

     total energy              =     -18.58560355 Ry
     Harris-Foulkes estimate   =    -106.05238199 Ry
     estimated scf accuracy    <      20.90378374 Ry

     iteration # 76     ecut=    30.00 Ry     beta=0.70
     Davidson diagonalization with overlap
     ethr =  1.00E-02,  avg # of iterations =  8.0

     negative rho (up, down):  8.815E-04 0.000E+00

     total cpu time spent up to now is       17.7 secs

     total energy              =      26.26694805 Ry
     Harris-Foulkes estimate   =    -446.73808193 Ry
     estimated scf accuracy    <      14.01466420 Ry

     iteration # 77     ecut=    30.00 Ry     beta=0.70
     Davidson diagonalization with overlap
     ethr =  1.00E-02,  avg # of iterations =  9.0

     negative rho (up, down):  2.285E-01 0.000E+00

     total cpu time spent up to now is       17.8 secs

     total energy              =     -53.36926851 Ry
     Harris-Foulkes estimate   =     -57.43425898 Ry
     estimated scf accuracy    <      38.40325676 Ry

     iteration # 78     ecut=    30.00 Ry     beta=0.70
     Davidson diagonalization with overlap
     ethr =  1.00E-02,  avg # of iterations =  9.0

     negative rho (up, down):  8.660E-02 0.000E+00

     total cpu time spent up to now is       17.8 secs

     total energy              =   -8796.90122340 Ry
     Harris-Foulkes estimate   =   -1531.83626201 Ry
     estimated scf accuracy    <      33.64961523 Ry

     iteration # 79     ecut=    30.00 Ry     beta=0.70
     Davidson diagonalization with overlap
     ethr =  1.00E-02,  avg # of iterations =  7.0

     negative rho (up, down):  1.369E-04 0.000E+00

     total cpu time spent up to now is       17.9 secs

     total energy              =      36.34987273 Ry
     Harris-Foulkes estimate   =  -22754.57960778 Ry
     estimated scf accuracy    <      11.59738782 Ry

     iteration # 80     ecut=    30.00 Ry     beta=0.70
     Davidson diagonalization with overlap
     ethr =  1.00E-02,  avg # of iterations =  5.0

     negative rho (up, down):  2.073E-02 0.000E+00

     total cpu time spent up to now is       18.0 secs

     total energy              =     -49.55091635 Ry
     Harris-Foulkes estimate   =     -53.36733209 Ry
     estimated scf accuracy    <      32.40673833 Ry

     iteration # 81     ecut=    30.00 Ry     beta=0.70
     Davidson diagonalization with overlap
     ethr =  1.00E-02,  avg # of iterations =  6.0

     total cpu time spent up to now is       18.1 secs

     total energy              =      11.08629099 Ry
     Harris-Foulkes estimate   =    -105.83002930 Ry
     estimated scf accuracy    <      26.23525949 Ry

     iteration # 82     ecut=    30.00 Ry     beta=0.70
     Davidson diagonalization with overlap
     ethr =  1.00E-02,  avg # of iterations = 11.0

     negative rho (up, down):  4.057E-02 0.000E+00

     total cpu time spent up to now is       18.1 secs

     total energy              =     -48.01683613 Ry
     Harris-Foulkes estimate   =     -50.66210750 Ry
     estimated scf accuracy    <      28.88741458 Ry

     iteration # 83     ecut=    30.00 Ry     beta=0.70
     Davidson diagonalization with overlap
     ethr =  1.00E-02,  avg # of iterations =  5.0

     negative rho (up, down):  9.575E-02 0.000E+00

     total cpu time spent up to now is       18.2 secs

     total energy              =     -58.94693410 Ry
     Harris-Foulkes estimate   =     -50.41084596 Ry
     estimated scf accuracy    <      19.53599443 Ry

     iteration # 84     ecut=    30.00 Ry     beta=0.70
     Davidson diagonalization with overlap
     ethr =  1.00E-02,  avg # of iterations =  4.0

     negative rho (up, down):  1.255E-01 0.000E+00

     total cpu time spent up to now is       18.3 secs

     total energy              =     -36.42314035 Ry
     Harris-Foulkes estimate   =    -286.19723577 Ry
     estimated scf accuracy    <      33.95400481 Ry

     iteration # 85     ecut=    30.00 Ry     beta=0.70
     Davidson diagonalization with overlap
     ethr =  1.00E-02,  avg # of iterations =  6.0

     negative rho (up, down):  1.344E-01 0.000E+00

     total cpu time spent up to now is       18.4 secs

     total energy              =      92.83656483 Ry
     Harris-Foulkes estimate   =    -809.99463424 Ry
     estimated scf accuracy    <      28.73941488 Ry

     iteration # 86     ecut=    30.00 Ry     beta=0.70
     Davidson diagonalization with overlap
     ethr =  1.00E-02,  avg # of iterations =  7.0

     negative rho (up, down):  3.913E-02 0.000E+00

     total cpu time spent up to now is       18.4 secs

     total energy              =      13.36942688 Ry
     Harris-Foulkes estimate   =     -79.85437106 Ry
     estimated scf accuracy    <      33.50159050 Ry

     iteration # 87     ecut=    30.00 Ry     beta=0.70
     Davidson diagonalization with overlap
     ethr =  1.00E-02,  avg # of iterations =  5.0

     negative rho (up, down):  1.336E-01 0.000E+00

     total cpu time spent up to now is       18.5 secs

     total energy              =       1.95260685 Ry
     Harris-Foulkes estimate   =     -88.06112776 Ry
     estimated scf accuracy    <      21.77968039 Ry

     iteration # 88     ecut=    30.00 Ry     beta=0.70
     Davidson diagonalization with overlap
     ethr =  1.00E-02,  avg # of iterations =  9.0

     negative rho (up, down):  6.639E-01 0.000E+00

     total cpu time spent up to now is       18.6 secs

     total energy              =    -177.94301607 Ry
     Harris-Foulkes estimate   =    -558.30768557 Ry
     estimated scf accuracy    <      44.88102786 Ry

     iteration # 89     ecut=    30.00 Ry     beta=0.70
     Davidson diagonalization with overlap
     ethr =  1.00E-02,  avg # of iterations =  7.0

     negative rho (up, down):  9.179E-01 0.000E+00

     total cpu time spent up to now is       18.7 secs

     total energy              =    -955.67717525 Ry
     Harris-Foulkes estimate   =   -2818.48524058 Ry
     estimated scf accuracy    <      38.61421819 Ry

     iteration # 90     ecut=    30.00 Ry     beta=0.70
     Davidson diagonalization with overlap
     ethr =  1.00E-02,  avg # of iterations = 10.0

     negative rho (up, down):  1.032E+00 0.000E+00

     total cpu time spent up to now is       18.8 secs

     total energy              =    -196.13891902 Ry
     Harris-Foulkes estimate   =  -22404.58700893 Ry
     estimated scf accuracy    <      42.14052519 Ry

     iteration # 91     ecut=    30.00 Ry     beta=0.70
     Davidson diagonalization with overlap
     ethr =  1.00E-02,  avg # of iterations =  7.0

     negative rho (up, down):  1.252E+00 0.000E+00

     total cpu time spent up to now is       18.9 secs

     total energy              =      78.16772605 Ry
     Harris-Foulkes estimate   =   -2316.03333059 Ry
     estimated scf accuracy    <      37.16863154 Ry

     iteration # 92     ecut=    30.00 Ry     beta=0.70
     Davidson diagonalization with overlap
     ethr =  1.00E-02,  avg # of iterations =  8.0

     negative rho (up, down):  1.005E+00 0.000E+00

     total cpu time spent up to now is       19.0 secs

     total energy              =      51.02008772 Ry
     Harris-Foulkes estimate   =    -579.89417262 Ry
     estimated scf accuracy    <      23.94979302 Ry

     iteration # 93     ecut=    30.00 Ry     beta=0.70
     Davidson diagonalization with overlap
     ethr =  1.00E-02,  avg # of iterations =  7.0

     negative rho (up, down):  1.082E+00 0.000E+00

     total cpu time spent up to now is       19.1 secs

     total energy              =     -32.10581585 Ry
     Harris-Foulkes estimate   =   -2612.01570226 Ry
     estimated scf accuracy    <      30.13207959 Ry

     iteration # 94     ecut=    30.00 Ry     beta=0.70
     Davidson diagonalization with overlap
     ethr =  1.00E-02,  avg # of iterations =  9.0

     negative rho (up, down):  7.327E-01 0.000E+00

     total cpu time spent up to now is       19.2 secs

     total energy              =      73.00706493 Ry
     Harris-Foulkes estimate   =   -4249.25386694 Ry
     estimated scf accuracy    <      29.17509326 Ry

     iteration # 95     ecut=    30.00 Ry     beta=0.70
     Davidson diagonalization with overlap
     ethr =  1.00E-02,  avg # of iterations = 10.0

     negative rho (up, down):  6.167E-01 0.000E+00

     total cpu time spent up to now is       19.3 secs

     total energy              =      41.61315360 Ry
     Harris-Foulkes estimate   =   -1071.94713111 Ry
     estimated scf accuracy    <      21.84876915 Ry

     iteration # 96     ecut=    30.00 Ry     beta=0.70
     Davidson diagonalization with overlap
     ethr =  1.00E-02,  avg # of iterations =  9.0

     negative rho (up, down):  8.213E-01 0.000E+00

     total cpu time spent up to now is       19.3 secs

     total energy              =     129.50261879 Ry
     Harris-Foulkes estimate   =   -1554.45751679 Ry
     estimated scf accuracy    <      19.46748381 Ry

     iteration # 97     ecut=    30.00 Ry     beta=0.70
     Davidson diagonalization with overlap
     ethr =  1.00E-02,  avg # of iterations = 12.0

     negative rho (up, down):  3.055E-01 0.000E+00

     total cpu time spent up to now is       19.5 secs

     total energy              =      77.77831628 Ry
     Harris-Foulkes estimate   =    -240.32516223 Ry
     estimated scf accuracy    <      31.92176010 Ry

     iteration # 98     ecut=    30.00 Ry     beta=0.70
     Davidson diagonalization with overlap
     ethr =  1.00E-02,  avg # of iterations =  9.0

     negative rho (up, down):  3.103E-01 0.000E+00

     total cpu time spent up to now is       19.6 secs

     total energy              =      94.27327556 Ry
     Harris-Foulkes estimate   =   -1512.68051854 Ry
     estimated scf accuracy    <      25.74284579 Ry

     iteration # 99     ecut=    30.00 Ry     beta=0.70
     Davidson diagonalization with overlap
     ethr =  1.00E-02,  avg # of iterations =  5.0

     negative rho (up, down):  1.560E-01 0.000E+00

     total cpu time spent up to now is       19.6 secs

     total energy              =     123.79340536 Ry
     Harris-Foulkes estimate   =    -779.14036053 Ry
     estimated scf accuracy    <      25.69978467 Ry

     iteration #100     ecut=    30.00 Ry     beta=0.70
     Davidson diagonalization with overlap
     ethr =  1.00E-02,  avg # of iterations =  8.0

     negative rho (up, down):  4.197E-02 0.000E+00

     total cpu time spent up to now is       19.7 secs

     total energy              =      96.64170186 Ry
     Harris-Foulkes estimate   =   -1631.91072118 Ry
     estimated scf accuracy    <      23.84057935 Ry

     End of self-consistent calculation

     convergence NOT achieved after 100 iterations: stopping

     Writing output data file pwscf.save
 
     init_run     :      0.18s CPU      0.21s WALL (       1 calls)
     electrons    :     14.77s CPU     17.40s WALL (       6 calls)
     update_pot   :      1.05s CPU      1.41s WALL (       5 calls)
     forces       :      0.21s CPU      0.22s WALL (       5 calls)

     Called by init_run:
     wfcinit      :      0.01s CPU      0.02s WALL (       1 calls)
     potinit      :      0.05s CPU      0.05s WALL (       1 calls)

     Called by electrons:
     c_bands      :      8.08s CPU      8.32s WALL (     258 calls)
     sum_band     :      1.32s CPU      1.38s WALL (     258 calls)
     v_of_rho     :      3.20s CPU      3.32s WALL (     264 calls)
     mix_rho      :      1.81s CPU      3.58s WALL (     258 calls)

     Called by c_bands:
     init_us_2    :      0.04s CPU      0.05s WALL (     517 calls)
     cegterg      :      8.01s CPU      8.19s WALL (     258 calls)

     Called by sum_band:

     Called by *egterg:
     h_psi        :      6.80s CPU      6.93s WALL (    1303 calls)
     g_psi        :      0.08s CPU      0.08s WALL (    1044 calls)
     cdiaghg      :      0.46s CPU      0.48s WALL (    1297 calls)

     Called by h_psi:
     h_psi:pot    :      6.76s CPU      6.89s WALL (    1303 calls)
     h_psi:calbec :      0.06s CPU      0.08s WALL (    1303 calls)
     vloc_psi     :      6.67s CPU      6.79s WALL (    1303 calls)
     add_vuspsi   :      0.02s CPU      0.02s WALL (    1303 calls)

     General routines
     calbec       :      0.08s CPU      0.10s WALL (    1327 calls)
     fft          :      2.14s CPU      2.24s WALL (    2914 calls)
     fftw         :      6.94s CPU      7.08s WALL (   17404 calls)
     davcio       :      0.31s CPU      1.62s WALL (    4639 calls)
 
     Parallel routines
     fft_scatter  :      2.86s CPU      2.97s WALL (   20318 calls)
 
     PWSCF        :    16.57s CPU        19.83s WALL

 
   This run was terminated on:  16:28:17  13Feb2018            

=------------------------------------------------------------------------------=
   JOB DONE.
=------------------------------------------------------------------------------=
