
     Program PWSCF v.6.0 (svn rev. 13079) starts on 13Feb2018 at 16:29:20 

     This program is part of the open-source Quantum ESPRESSO suite
     for quantum simulation of materials; please cite
         "P. Giannozzi et al., J. Phys.:Condens. Matter 21 395502 (2009);
          URL http://www.quantum-espresso.org", 
     in publications or presentations arising from this work. More details at
     http://www.quantum-espresso.org/quote

     Parallel version (MPI), running on    28 processors
     R & G space division:  proc/nbgrp/npool/nimage =      28
     Reading input from inputs/MD-H2O-round1/658.in

     Current dimensions of program PWSCF are:
     Max number of different atomic species (ntypx) = 10
     Max number of k-points (npk) =  40000
     Max angular momentum in pseudopotentials (lmaxx) =  3

     Subspace diagonalization in iterative solution of the eigenvalue problem:
     a serial algorithm will be used

 
     Parallelization info
     --------------------
     sticks:   dense  smooth     PW     G-vecs:    dense   smooth      PW
     Min         136     136     33                 6338     6338     787
     Max         137     137     34                 6341     6341     792
     Sum        3809    3809    949               177509   177509   22119
 


     bravais-lattice index     =            1
     lattice parameter (alat)  =      20.0000  a.u.
     unit-cell volume          =    8000.0000 (a.u.)^3
     number of atoms/cell      =            3
     number of atomic types    =            2
     number of electrons       =         8.00
     number of Kohn-Sham states=            8
     kinetic-energy cutoff     =      30.0000  Ry
     charge density cutoff     =     120.0000  Ry
     convergence threshold     =      1.0E-08
     mixing beta               =       0.7000
     number of iterations used =            8  plain     mixing
     Exchange-correlation      = BLYP ( 1  3  1  3 0 0)
     nstep                     =         5000


     celldm(1)=  20.000000  celldm(2)=   0.000000  celldm(3)=   0.000000
     celldm(4)=   0.000000  celldm(5)=   0.000000  celldm(6)=   0.000000

     crystal axes: (cart. coord. in units of alat)
               a(1) = (   1.000000   0.000000   0.000000 )  
               a(2) = (   0.000000   1.000000   0.000000 )  
               a(3) = (   0.000000   0.000000   1.000000 )  

     reciprocal axes: (cart. coord. in units 2 pi/alat)
               b(1) = (  1.000000  0.000000  0.000000 )  
               b(2) = (  0.000000  1.000000  0.000000 )  
               b(3) = (  0.000000  0.000000  1.000000 )  


     PseudoPot. # 1 for  H read from file:
     ./H.blyp-hgh.UPF
     MD5 check sum: c576e69559cde411e611be972c763230
     Pseudo is Norm-conserving, Zval =  1.0
     Generated in analytical, separable form
     Using radial grid of  929 points,  0 beta functions with: 

     PseudoPot. # 2 for  O read from file:
     ./O.blyp-hgh.UPF
     MD5 check sum: d0b7156309aa9befef28faac7bc56342
     Pseudo is Norm-conserving, Zval =  6.0
     Generated in analytical, separable form
     Using radial grid of 1095 points,  1 beta functions with: 
                l(1) =   0

     atomic species   valence    mass     pseudopotential
        H              1.00     1.01000      H( 1.00)
        O              6.00    16.00000      O( 1.00)

     No symmetry found



   Cartesian axes

     site n.     atom                  positions (alat units)
         1           O   tau(   1) = (   0.0552788   0.5547397  -0.0151171  )
         2           H   tau(   2) = (   0.2293579   0.7750149   0.5356215  )
         3           H   tau(   3) = (   0.0271693   0.5612268   0.9102057  )

     number of k points=     1  Marzari-Vanderbilt smearing, width (Ry)=  0.0250
                       cart. coord. in units 2pi/alat
        k(    1) = (   0.0000000   0.0000000   0.0000000), wk =   2.0000000

     Dense  grid:   177509 G-vectors     FFT dimensions: (  72,  72,  72)

     Estimated max dynamical RAM per process >       6.09Mb

     Estimated total allocated dynamical RAM >     170.64Mb

     Initial potential from superposition of free atoms
     Check: negative starting charge=   -0.348993

     starting charge    7.99998, renormalised to    8.00000

     negative rho (up, down):  3.490E-01 0.000E+00
     Starting wfc are    6 randomized atomic wfcs +    2 random wfc

     total cpu time spent up to now is        0.4 secs

     per-process dynamical memory:    18.8 Mb

     Self-consistent Calculation

     iteration #  1     ecut=    30.00 Ry     beta=0.70
     Davidson diagonalization with overlap
     ethr =  1.00E-02,  avg # of iterations =  8.0

     negative rho (up, down):  9.420E-02 0.000E+00

     total cpu time spent up to now is        0.4 secs

     total energy              =     -31.56834805 Ry
     Harris-Foulkes estimate   =     -32.07068298 Ry
     estimated scf accuracy    <       0.53041008 Ry

     iteration #  2     ecut=    30.00 Ry     beta=0.70
     Davidson diagonalization with overlap
     ethr =  6.63E-03,  avg # of iterations =  3.0

     negative rho (up, down):  7.308E-02 0.000E+00

     total cpu time spent up to now is        0.5 secs

     total energy              =     -31.71083827 Ry
     Harris-Foulkes estimate   =     -32.37751199 Ry
     estimated scf accuracy    <       2.26081099 Ry

     iteration #  3     ecut=    30.00 Ry     beta=0.70
     Davidson diagonalization with overlap
     ethr =  6.63E-03,  avg # of iterations =  2.0

     negative rho (up, down):  2.579E-02 0.000E+00

     total cpu time spent up to now is        0.5 secs

     total energy              =     -31.71734439 Ry
     Harris-Foulkes estimate   =     -31.79371251 Ry
     estimated scf accuracy    <       0.48380071 Ry

     iteration #  4     ecut=    30.00 Ry     beta=0.70
     Davidson diagonalization with overlap
     ethr =  6.05E-03,  avg # of iterations =  1.0

     negative rho (up, down):  8.934E-03 0.000E+00

     total cpu time spent up to now is        0.6 secs

     total energy              =     -31.65247865 Ry
     Harris-Foulkes estimate   =     -31.96270780 Ry
     estimated scf accuracy    <       1.41580813 Ry

     iteration #  5     ecut=    30.00 Ry     beta=0.70
     Davidson diagonalization with overlap
     ethr =  6.05E-03,  avg # of iterations =  1.0

     negative rho (up, down):  5.734E-04 0.000E+00

     total cpu time spent up to now is        0.6 secs

     total energy              =     -31.86645464 Ry
     Harris-Foulkes estimate   =     -31.96963253 Ry
     estimated scf accuracy    <       1.04011521 Ry

     iteration #  6     ecut=    30.00 Ry     beta=0.70
     Davidson diagonalization with overlap
     ethr =  6.05E-03,  avg # of iterations =  1.0

     negative rho (up, down):  6.791E-04 0.000E+00

     total cpu time spent up to now is        0.7 secs

     total energy              =     -31.79776872 Ry
     Harris-Foulkes estimate   =     -31.86727415 Ry
     estimated scf accuracy    <       0.86349150 Ry

     iteration #  7     ecut=    30.00 Ry     beta=0.70
     Davidson diagonalization with overlap
     ethr =  6.05E-03,  avg # of iterations =  1.0

     negative rho (up, down):  2.510E-04 0.000E+00

     total cpu time spent up to now is        0.7 secs

     total energy              =     -31.83451552 Ry
     Harris-Foulkes estimate   =     -31.85726214 Ry
     estimated scf accuracy    <       1.23279522 Ry

     iteration #  8     ecut=    30.00 Ry     beta=0.70
     Davidson diagonalization with overlap
     ethr =  6.05E-03,  avg # of iterations =  1.0

     negative rho (up, down):  4.351E-05 0.000E+00

     total cpu time spent up to now is        0.8 secs

     total energy              =     -31.83739632 Ry
     Harris-Foulkes estimate   =     -31.84115244 Ry
     estimated scf accuracy    <       0.16153276 Ry

     iteration #  9     ecut=    30.00 Ry     beta=0.70
     Davidson diagonalization with overlap
     ethr =  2.02E-03,  avg # of iterations =  1.0

     total cpu time spent up to now is        0.8 secs

     total energy              =     -31.83887737 Ry
     Harris-Foulkes estimate   =     -31.83917723 Ry
     estimated scf accuracy    <       0.00066457 Ry

     iteration # 10     ecut=    30.00 Ry     beta=0.70
     Davidson diagonalization with overlap
     ethr =  8.31E-06,  avg # of iterations = 10.0

     negative rho (up, down):  1.720E-07 0.000E+00

     total cpu time spent up to now is        0.9 secs

     total energy              =     -31.83936483 Ry
     Harris-Foulkes estimate   =     -31.84258831 Ry
     estimated scf accuracy    <       0.22085621 Ry

     iteration # 11     ecut=    30.00 Ry     beta=0.70
     Davidson diagonalization with overlap
     ethr =  8.31E-06,  avg # of iterations =  1.0

     total cpu time spent up to now is        0.9 secs

     total energy              =     -31.83848909 Ry
     Harris-Foulkes estimate   =     -31.84007418 Ry
     estimated scf accuracy    <       0.06437946 Ry

     iteration # 12     ecut=    30.00 Ry     beta=0.70
     Davidson diagonalization with overlap
     ethr =  8.31E-06,  avg # of iterations =  1.0

     total cpu time spent up to now is        1.0 secs

     total energy              =     -31.83923303 Ry
     Harris-Foulkes estimate   =     -31.83918463 Ry
     estimated scf accuracy    <       0.00064653 Ry

     iteration # 13     ecut=    30.00 Ry     beta=0.70
     Davidson diagonalization with overlap
     ethr =  8.08E-06,  avg # of iterations =  1.0

     total cpu time spent up to now is        1.0 secs

     total energy              =     -31.83901580 Ry
     Harris-Foulkes estimate   =     -31.83929314 Ry
     estimated scf accuracy    <       0.00859557 Ry

     iteration # 14     ecut=    30.00 Ry     beta=0.70
     Davidson diagonalization with overlap
     ethr =  8.08E-06,  avg # of iterations =  1.0

     total cpu time spent up to now is        1.1 secs

     total energy              =     -31.83916257 Ry
     Harris-Foulkes estimate   =     -31.83918377 Ry
     estimated scf accuracy    <       0.00045069 Ry

     iteration # 15     ecut=    30.00 Ry     beta=0.70
     Davidson diagonalization with overlap
     ethr =  5.63E-06,  avg # of iterations =  1.0

     total cpu time spent up to now is        1.1 secs

     total energy              =     -31.83917382 Ry
     Harris-Foulkes estimate   =     -31.83918293 Ry
     estimated scf accuracy    <       0.00034153 Ry

     iteration # 16     ecut=    30.00 Ry     beta=0.70
     Davidson diagonalization with overlap
     ethr =  4.27E-06,  avg # of iterations =  1.0

     total cpu time spent up to now is        1.2 secs

     total energy              =     -31.83917849 Ry
     Harris-Foulkes estimate   =     -31.83917845 Ry
     estimated scf accuracy    <       0.00000022 Ry

     iteration # 17     ecut=    30.00 Ry     beta=0.70
     Davidson diagonalization with overlap
     ethr =  2.77E-09,  avg # of iterations =  1.0

     total cpu time spent up to now is        1.2 secs

     total energy              =     -31.83917852 Ry
     Harris-Foulkes estimate   =     -31.83917850 Ry
     estimated scf accuracy    <       0.00000031 Ry

     iteration # 18     ecut=    30.00 Ry     beta=0.70
     Davidson diagonalization with overlap
     ethr =  2.77E-09,  avg # of iterations =  1.0

     total cpu time spent up to now is        1.3 secs

     total energy              =     -31.83917850 Ry
     Harris-Foulkes estimate   =     -31.83917853 Ry
     estimated scf accuracy    <       0.00000081 Ry

     iteration # 19     ecut=    30.00 Ry     beta=0.70
     Davidson diagonalization with overlap
     ethr =  2.77E-09,  avg # of iterations =  1.0

     total cpu time spent up to now is        1.3 secs

     End of self-consistent calculation

          k = 0.0000 0.0000 0.0000 ( 22119 PWs)   bands (ev):

   -26.1947 -11.0952  -7.1747  -7.1742  -7.0297  -0.4597   0.4497   0.8335

     the Fermi energy is    -7.0023 ev

!    total energy              =     -31.83917852 Ry
     Harris-Foulkes estimate   =     -31.83917851 Ry
     estimated scf accuracy    <          1.8E-09 Ry

     convergence has been achieved in  19 iterations

     Forces acting on atoms (Ry/au):

     atom    1 type  2   force =     0.21814105   -0.05098770    0.57813777
     atom    2 type  1   force =     0.00032247    0.00028320    0.00100094
     atom    3 type  1   force =    -0.21846352    0.05070450   -0.57913871

     Total force =     0.877570     Total SCF correction =     0.000029

     Molecular Dynamics Calculation

     Starting temperature  =  1000.00 K

     temperature is controlled by Andersen thermostat
     Collision frequency = 1.0000/timestep
     mass H                =     1.01
     mass O                =    16.00
     Time step             =   100.00 a.u.,  4.8378 femto-seconds

     Entering Dynamics:    iteration =     1
                           time      =   0.0048 pico-seconds


     Andersen thermostat:    3 collisions

ATOMIC_POSITIONS (bohr)
O        1.167859156  11.069881920  -0.125850526
H        4.590443161  15.682288350  10.620531586
H       -0.446562022  11.437192460  15.500123719


     kinetic energy (Ekin) =     0.01337019 Ry
     temperature           =   703.66124461 K 
     Ekin + Etot (const)   =   -31.82580833 Ry

     Linear momentum :    0.0000000000   -0.0000000000   -0.0000000000

     Writing output data file pwscf.save
     Check: negative starting charge=   -0.348993
     NEW-OLD atomic charge density approx. for the potential
     Check: negative starting charge=   -0.342396

     negative rho (up, down):  3.630E-01 0.000E+00

     total cpu time spent up to now is        1.7 secs

     per-process dynamical memory:    20.4 Mb

     Self-consistent Calculation

     iteration #  1     ecut=    30.00 Ry     beta=0.70
     Davidson diagonalization with overlap
     ethr =  1.00E-06,  avg # of iterations = 12.0

     negative rho (up, down):  8.868E-02 0.000E+00

     total cpu time spent up to now is        1.8 secs

     total energy              =     -19.83500032 Ry
     Harris-Foulkes estimate   =     -34.33974743 Ry
     estimated scf accuracy    <       6.28959050 Ry

     iteration #  2     ecut=    30.00 Ry     beta=0.70
     Davidson diagonalization with overlap
     ethr =  1.00E-02,  avg # of iterations =  4.0

     negative rho (up, down):  6.291E-02 0.000E+00

     total cpu time spent up to now is        1.9 secs

     total energy              =     -32.19385065 Ry
     Harris-Foulkes estimate   =     -37.83953119 Ry
     estimated scf accuracy    <      13.22368341 Ry

     iteration #  3     ecut=    30.00 Ry     beta=0.70
     Davidson diagonalization with overlap
     ethr =  1.00E-02,  avg # of iterations =  3.0

     negative rho (up, down):  4.467E-02 0.000E+00

     total cpu time spent up to now is        1.9 secs

     total energy              =     -31.32934175 Ry
     Harris-Foulkes estimate   =     -32.63860802 Ry
     estimated scf accuracy    <       4.30491243 Ry

     iteration #  4     ecut=    30.00 Ry     beta=0.70
     Davidson diagonalization with overlap
     ethr =  1.00E-02,  avg # of iterations =  2.0

     negative rho (up, down):  3.801E-02 0.000E+00

     total cpu time spent up to now is        2.0 secs

     total energy              =     -31.17561011 Ry
     Harris-Foulkes estimate   =     -32.04736614 Ry
     estimated scf accuracy    <       4.05093580 Ry

     iteration #  5     ecut=    30.00 Ry     beta=0.70
     Davidson diagonalization with overlap
     ethr =  1.00E-02,  avg # of iterations =  1.0

     negative rho (up, down):  2.985E-02 0.000E+00

     total cpu time spent up to now is        2.0 secs

     total energy              =     -31.81154703 Ry
     Harris-Foulkes estimate   =     -32.02791478 Ry
     estimated scf accuracy    <       3.11381821 Ry

     iteration #  6     ecut=    30.00 Ry     beta=0.70
     Davidson diagonalization with overlap
     ethr =  1.00E-02,  avg # of iterations =  1.0

     negative rho (up, down):  2.408E-02 0.000E+00

     total cpu time spent up to now is        2.1 secs

     total energy              =     -31.58279705 Ry
     Harris-Foulkes estimate   =     -31.81537193 Ry
     estimated scf accuracy    <       2.57950828 Ry

     iteration #  7     ecut=    30.00 Ry     beta=0.70
     Davidson diagonalization with overlap
     ethr =  1.00E-02,  avg # of iterations =  1.0

     negative rho (up, down):  1.109E-02 0.000E+00

     total cpu time spent up to now is        2.1 secs

     total energy              =     -31.49821086 Ry
     Harris-Foulkes estimate   =     -31.60663469 Ry
     estimated scf accuracy    <       0.41965721 Ry

     iteration #  8     ecut=    30.00 Ry     beta=0.70
     Davidson diagonalization with overlap
     ethr =  5.25E-03,  avg # of iterations =  1.0

     negative rho (up, down):  1.014E-02 0.000E+00

     total cpu time spent up to now is        2.2 secs

     total energy              =     -31.69906762 Ry
     Harris-Foulkes estimate   =     -31.73048989 Ry
     estimated scf accuracy    <       2.43544662 Ry

     iteration #  9     ecut=    30.00 Ry     beta=0.70
     Davidson diagonalization with overlap
     ethr =  5.25E-03,  avg # of iterations =  1.0

     negative rho (up, down):  8.804E-03 0.000E+00

     total cpu time spent up to now is        2.2 secs

     total energy              =     -31.65724068 Ry
     Harris-Foulkes estimate   =     -31.69994756 Ry
     estimated scf accuracy    <       2.20298873 Ry

     iteration # 10     ecut=    30.00 Ry     beta=0.70
     Davidson diagonalization with overlap
     ethr =  5.25E-03,  avg # of iterations =  1.0

     negative rho (up, down):  2.056E-03 0.000E+00

     total cpu time spent up to now is        2.3 secs

     total energy              =     -31.23697853 Ry
     Harris-Foulkes estimate   =     -31.65797911 Ry
     estimated scf accuracy    <       1.96806909 Ry

     iteration # 11     ecut=    30.00 Ry     beta=0.70
     Davidson diagonalization with overlap
     ethr =  5.25E-03,  avg # of iterations =  2.0

     negative rho (up, down):  1.557E-03 0.000E+00

     total cpu time spent up to now is        2.3 secs

     total energy              =     -32.03491783 Ry
     Harris-Foulkes estimate   =     -31.87713945 Ry
     estimated scf accuracy    <       1.96707719 Ry

     iteration # 12     ecut=    30.00 Ry     beta=0.70
     Davidson diagonalization with overlap
     ethr =  5.25E-03,  avg # of iterations =  1.0

     negative rho (up, down):  1.154E-03 0.000E+00

     total cpu time spent up to now is        2.4 secs

     total energy              =     -32.09173544 Ry
     Harris-Foulkes estimate   =     -32.04392796 Ry
     estimated scf accuracy    <       2.63886712 Ry

     iteration # 13     ecut=    30.00 Ry     beta=0.70
     Davidson diagonalization with overlap
     ethr =  5.25E-03,  avg # of iterations =  1.0

     negative rho (up, down):  1.037E-04 0.000E+00

     total cpu time spent up to now is        2.4 secs

     total energy              =     -32.36350405 Ry
     Harris-Foulkes estimate   =     -32.09189657 Ry
     estimated scf accuracy    <       2.73712049 Ry

     iteration # 14     ecut=    30.00 Ry     beta=0.70
     Davidson diagonalization with overlap
     ethr =  5.25E-03,  avg # of iterations =  1.0

     negative rho (up, down):  9.867E-07 0.000E+00

     total cpu time spent up to now is        2.5 secs

     total energy              =     -31.73937141 Ry
     Harris-Foulkes estimate   =     -32.36386505 Ry
     estimated scf accuracy    <       3.16066985 Ry

     iteration # 15     ecut=    30.00 Ry     beta=0.70
     Davidson diagonalization with overlap
     ethr =  5.25E-03,  avg # of iterations =  1.0

     negative rho (up, down):  8.226E-06 0.000E+00

     total cpu time spent up to now is        2.5 secs

     total energy              =     -31.62978413 Ry
     Harris-Foulkes estimate   =     -31.76780343 Ry
     estimated scf accuracy    <       1.53376865 Ry

     iteration # 16     ecut=    30.00 Ry     beta=0.70
     Davidson diagonalization with overlap
     ethr =  5.25E-03,  avg # of iterations =  1.0

     negative rho (up, down):  1.902E-04 0.000E+00

     total cpu time spent up to now is        2.6 secs

     total energy              =     -31.51101058 Ry
     Harris-Foulkes estimate   =     -31.63328392 Ry
     estimated scf accuracy    <       1.07573750 Ry

     iteration # 17     ecut=    30.00 Ry     beta=0.70
     Davidson diagonalization with overlap
     ethr =  5.25E-03,  avg # of iterations =  1.0

     negative rho (up, down):  1.020E-06 0.000E+00

     total cpu time spent up to now is        2.6 secs

     total energy              =     -31.50561501 Ry
     Harris-Foulkes estimate   =     -31.61859492 Ry
     estimated scf accuracy    <       1.41398735 Ry

     iteration # 18     ecut=    30.00 Ry     beta=0.70
     Davidson diagonalization with overlap
     ethr =  5.25E-03,  avg # of iterations =  1.0

     negative rho (up, down):  5.462E-08 0.000E+00

     total cpu time spent up to now is        2.7 secs

     total energy              =     -31.57285653 Ry
     Harris-Foulkes estimate   =     -31.60101031 Ry
     estimated scf accuracy    <       0.98941616 Ry

     iteration # 19     ecut=    30.00 Ry     beta=0.70
     Davidson diagonalization with overlap
     ethr =  5.25E-03,  avg # of iterations =  1.0

     negative rho (up, down):  1.966E-07 0.000E+00

     total cpu time spent up to now is        2.8 secs

     total energy              =     -31.53792180 Ry
     Harris-Foulkes estimate   =     -31.57794323 Ry
     estimated scf accuracy    <       0.26002749 Ry

     iteration # 20     ecut=    30.00 Ry     beta=0.70
     Davidson diagonalization with overlap
     ethr =  3.25E-03,  avg # of iterations =  1.0

     total cpu time spent up to now is        2.8 secs

     total energy              =     -31.62118467 Ry
     Harris-Foulkes estimate   =     -31.64694840 Ry
     estimated scf accuracy    <       1.34598040 Ry

     iteration # 21     ecut=    30.00 Ry     beta=0.70
     Davidson diagonalization with overlap
     ethr =  3.25E-03,  avg # of iterations =  1.0

     total cpu time spent up to now is        2.9 secs

     total energy              =     -31.58359678 Ry
     Harris-Foulkes estimate   =     -31.62044641 Ry
     estimated scf accuracy    <       1.53454104 Ry

     iteration # 22     ecut=    30.00 Ry     beta=0.70
     Davidson diagonalization with overlap
     ethr =  3.25E-03,  avg # of iterations =  1.0

     total cpu time spent up to now is        2.9 secs

     total energy              =     -31.58424411 Ry
     Harris-Foulkes estimate   =     -31.58474905 Ry
     estimated scf accuracy    <       0.82113815 Ry

     iteration # 23     ecut=    30.00 Ry     beta=0.70
     Davidson diagonalization with overlap
     ethr =  3.25E-03,  avg # of iterations =  1.0

     total cpu time spent up to now is        3.0 secs

     total energy              =     -31.56712787 Ry
     Harris-Foulkes estimate   =     -31.58425172 Ry
     estimated scf accuracy    <       0.78664273 Ry

     iteration # 24     ecut=    30.00 Ry     beta=0.70
     Davidson diagonalization with overlap
     ethr =  3.25E-03,  avg # of iterations =  1.0

     total cpu time spent up to now is        3.0 secs

     total energy              =     -31.57415825 Ry
     Harris-Foulkes estimate   =     -31.57427016 Ry
     estimated scf accuracy    <       0.01375424 Ry

     iteration # 25     ecut=    30.00 Ry     beta=0.70
     Davidson diagonalization with overlap
     ethr =  1.72E-04,  avg # of iterations =  1.0

     total cpu time spent up to now is        3.1 secs

     total energy              =     -31.57407021 Ry
     Harris-Foulkes estimate   =     -31.57418033 Ry
     estimated scf accuracy    <       0.00586140 Ry

     iteration # 26     ecut=    30.00 Ry     beta=0.70
     Davidson diagonalization with overlap
     ethr =  7.33E-05,  avg # of iterations =  1.0

     total cpu time spent up to now is        3.1 secs

     total energy              =     -31.57413813 Ry
     Harris-Foulkes estimate   =     -31.57411140 Ry
     estimated scf accuracy    <       0.00038616 Ry

     iteration # 27     ecut=    30.00 Ry     beta=0.70
     Davidson diagonalization with overlap
     ethr =  4.83E-06,  avg # of iterations = 14.0

     total cpu time spent up to now is        3.2 secs

     total energy              =     -31.57417131 Ry
     Harris-Foulkes estimate   =     -31.57417031 Ry
     estimated scf accuracy    <       0.00490868 Ry

     iteration # 28     ecut=    30.00 Ry     beta=0.70
     Davidson diagonalization with overlap
     ethr =  4.83E-06,  avg # of iterations =  1.0

     total cpu time spent up to now is        3.3 secs

     total energy              =     -31.57424292 Ry
     Harris-Foulkes estimate   =     -31.57417142 Ry
     estimated scf accuracy    <       0.00513291 Ry

     iteration # 29     ecut=    30.00 Ry     beta=0.70
     Davidson diagonalization with overlap
     ethr =  4.83E-06,  avg # of iterations =  1.0

     total cpu time spent up to now is        3.3 secs

     total energy              =     -31.57419645 Ry
     Harris-Foulkes estimate   =     -31.57426752 Ry
     estimated scf accuracy    <       0.01344744 Ry

     iteration # 30     ecut=    30.00 Ry     beta=0.70
     Davidson diagonalization with overlap
     ethr =  4.83E-06,  avg # of iterations =  1.0

     total cpu time spent up to now is        3.3 secs

     total energy              =     -31.57399489 Ry
     Harris-Foulkes estimate   =     -31.57420391 Ry
     estimated scf accuracy    <       0.00836399 Ry

     iteration # 31     ecut=    30.00 Ry     beta=0.70
     Davidson diagonalization with overlap
     ethr =  4.83E-06,  avg # of iterations =  1.0

     total cpu time spent up to now is        3.4 secs

     total energy              =     -31.57409807 Ry
     Harris-Foulkes estimate   =     -31.57409834 Ry
     estimated scf accuracy    <       0.00000022 Ry

     iteration # 32     ecut=    30.00 Ry     beta=0.70
     Davidson diagonalization with overlap
     ethr =  2.78E-09,  avg # of iterations =  2.0

     total cpu time spent up to now is        3.4 secs

     total energy              =     -31.57409808 Ry
     Harris-Foulkes estimate   =     -31.57409809 Ry
     estimated scf accuracy    <       0.00000005 Ry

     iteration # 33     ecut=    30.00 Ry     beta=0.70
     Davidson diagonalization with overlap
     ethr =  5.65E-10,  avg # of iterations =  1.0

     total cpu time spent up to now is        3.5 secs

     total energy              =     -31.57409805 Ry
     Harris-Foulkes estimate   =     -31.57409808 Ry
     estimated scf accuracy    <       0.00000001 Ry

     iteration # 34     ecut=    30.00 Ry     beta=0.70
     Davidson diagonalization with overlap
     ethr =  1.71E-10,  avg # of iterations =  1.0

     total cpu time spent up to now is        3.5 secs

     End of self-consistent calculation

          k = 0.0000 0.0000 0.0000 ( 22119 PWs)   bands (ev):

   -23.6442  -7.8424  -6.9653  -6.9648  -6.8336  -6.3247  -0.1426   0.7855

     the Fermi energy is    -6.7986 ev

!    total energy              =     -31.57409801 Ry
     Harris-Foulkes estimate   =     -31.57409805 Ry
     estimated scf accuracy    <          7.7E-10 Ry

     convergence has been achieved in  34 iterations

     Forces acting on atoms (Ry/au):

     atom    1 type  2   force =    -0.02615982    0.00567673   -0.07344005
     atom    2 type  1   force =    -0.00057621    0.00032062    0.00006143
     atom    3 type  1   force =     0.02673603   -0.00599734    0.07337862

     Total force =     0.110660     Total SCF correction =     0.000023

     Entering Dynamics:    iteration =     2
                           time      =   0.0097 pico-seconds


     Andersen thermostat:    3 collisions

ATOMIC_POSITIONS (bohr)
O        1.152430309  11.058096077  -0.180307504
H        4.627979924  15.560226355  10.765329189
H       -0.239681402  11.745960887  16.218010911


     kinetic energy (Ekin) =     0.01481172 Ry
     temperature           =   779.52749610 K 
     Ekin + Etot (const)   =   -31.55928629 Ry
     Message from routine dynamics:
     Total linear momentum <> 0

     Linear momentum :    0.0316409203    0.3676783473    0.1781879288

     Writing output data file pwscf.save

     first order wave-functions extrapolation
     Check: negative starting charge=   -0.342396
     first order charge density extrapolation
     Check: negative starting charge=   -0.343347

     negative rho (up, down):  5.110E-01 0.000E+00

     total cpu time spent up to now is        4.0 secs

     per-process dynamical memory:    20.4 Mb

     Self-consistent Calculation

     iteration #  1     ecut=    30.00 Ry     beta=0.70
     Davidson diagonalization with overlap
     ethr =  1.00E-06,  avg # of iterations = 12.0

     negative rho (up, down):  1.414E-01 0.000E+00

     total cpu time spent up to now is        4.1 secs

     total energy              =     -11.69065673 Ry
     Harris-Foulkes estimate   =     -42.58536432 Ry
     estimated scf accuracy    <       6.50079389 Ry

     iteration #  2     ecut=    30.00 Ry     beta=0.70
     Davidson diagonalization with overlap
     ethr =  1.00E-02,  avg # of iterations =  4.0

     negative rho (up, down):  2.572E-02 0.000E+00

     total cpu time spent up to now is        4.2 secs

     total energy              =     -29.63095449 Ry
     Harris-Foulkes estimate   =     -37.00373219 Ry
     estimated scf accuracy    <      18.55742046 Ry

     iteration #  3     ecut=    30.00 Ry     beta=0.70
     Davidson diagonalization with overlap
     ethr =  1.00E-02,  avg # of iterations =  5.0

     negative rho (up, down):  1.595E-02 0.000E+00

     total cpu time spent up to now is        4.2 secs

     total energy              =     -31.57472684 Ry
     Harris-Foulkes estimate   =     -33.35870695 Ry
     estimated scf accuracy    <       5.95610985 Ry

     iteration #  4     ecut=    30.00 Ry     beta=0.70
     Davidson diagonalization with overlap
     ethr =  1.00E-02,  avg # of iterations =  2.0

     negative rho (up, down):  1.659E-02 0.000E+00

     total cpu time spent up to now is        4.3 secs

     total energy              =     -31.98457558 Ry
     Harris-Foulkes estimate   =     -32.21565325 Ry
     estimated scf accuracy    <       2.30524538 Ry

     iteration #  5     ecut=    30.00 Ry     beta=0.70
     Davidson diagonalization with overlap
     ethr =  1.00E-02,  avg # of iterations =  1.0

     negative rho (up, down):  2.102E-02 0.000E+00

     total cpu time spent up to now is        4.3 secs

     total energy              =     -31.66302694 Ry
     Harris-Foulkes estimate   =     -32.02174156 Ry
     estimated scf accuracy    <       2.70882739 Ry

     iteration #  6     ecut=    30.00 Ry     beta=0.70
     Davidson diagonalization with overlap
     ethr =  1.00E-02,  avg # of iterations =  1.0

     negative rho (up, down):  1.767E-02 0.000E+00

     total cpu time spent up to now is        4.4 secs

     total energy              =     -31.64630056 Ry
     Harris-Foulkes estimate   =     -31.88840710 Ry
     estimated scf accuracy    <       1.78737211 Ry

     iteration #  7     ecut=    30.00 Ry     beta=0.70
     Davidson diagonalization with overlap
     ethr =  1.00E-02,  avg # of iterations =  1.0

     negative rho (up, down):  2.544E-02 0.000E+00

     total cpu time spent up to now is        4.4 secs

     total energy              =     -31.63242062 Ry
     Harris-Foulkes estimate   =     -31.74440287 Ry
     estimated scf accuracy    <       1.92411815 Ry

     iteration #  8     ecut=    30.00 Ry     beta=0.70
     Davidson diagonalization with overlap
     ethr =  1.00E-02,  avg # of iterations =  1.0

     negative rho (up, down):  3.815E-02 0.000E+00

     total cpu time spent up to now is        4.5 secs

     total energy              =     -31.62547562 Ry
     Harris-Foulkes estimate   =     -31.65898715 Ry
     estimated scf accuracy    <       0.14686596 Ry

     iteration #  9     ecut=    30.00 Ry     beta=0.70
     Davidson diagonalization with overlap
     ethr =  1.84E-03,  avg # of iterations =  1.0

     negative rho (up, down):  3.711E-02 0.000E+00

     total cpu time spent up to now is        4.5 secs

     total energy              =     -31.62759439 Ry
     Harris-Foulkes estimate   =     -31.62709544 Ry
     estimated scf accuracy    <       0.05355507 Ry

     iteration # 10     ecut=    30.00 Ry     beta=0.70
     Davidson diagonalization with overlap
     ethr =  6.69E-04,  avg # of iterations =  1.0

     negative rho (up, down):  2.786E-02 0.000E+00

     total cpu time spent up to now is        4.6 secs

     total energy              =     -31.64620069 Ry
     Harris-Foulkes estimate   =     -31.62902584 Ry
     estimated scf accuracy    <       0.02269143 Ry

     iteration # 11     ecut=    30.00 Ry     beta=0.70
     Davidson diagonalization with overlap
     ethr =  2.84E-04,  avg # of iterations =  4.0

     negative rho (up, down):  1.256E-04 0.000E+00

     total cpu time spent up to now is        4.6 secs

     total energy              =     -31.64694330 Ry
     Harris-Foulkes estimate   =     -31.64799101 Ry
     estimated scf accuracy    <       0.01340326 Ry

     iteration # 12     ecut=    30.00 Ry     beta=0.70
     Davidson diagonalization with overlap
     ethr =  1.68E-04,  avg # of iterations =  3.0

     negative rho (up, down):  6.346E-05 0.000E+00

     total cpu time spent up to now is        4.7 secs

     total energy              =     -31.64743176 Ry
     Harris-Foulkes estimate   =     -31.64752887 Ry
     estimated scf accuracy    <       0.06592822 Ry

     iteration # 13     ecut=    30.00 Ry     beta=0.70
     Davidson diagonalization with overlap
     ethr =  1.68E-04,  avg # of iterations =  1.0

     negative rho (up, down):  6.985E-08 0.000E+00

     total cpu time spent up to now is        4.7 secs

     total energy              =     -31.64326359 Ry
     Harris-Foulkes estimate   =     -31.64744292 Ry
     estimated scf accuracy    <       0.07451069 Ry

     iteration # 14     ecut=    30.00 Ry     beta=0.70
     Davidson diagonalization with overlap
     ethr =  1.68E-04,  avg # of iterations =  1.0

     negative rho (up, down):  1.545E-07 0.000E+00

     total cpu time spent up to now is        4.8 secs

     total energy              =     -31.64609331 Ry
     Harris-Foulkes estimate   =     -31.64652008 Ry
     estimated scf accuracy    <       0.05375477 Ry

     iteration # 15     ecut=    30.00 Ry     beta=0.70
     Davidson diagonalization with overlap
     ethr =  1.68E-04,  avg # of iterations =  1.0

     total cpu time spent up to now is        4.8 secs

     total energy              =     -31.64537026 Ry
     Harris-Foulkes estimate   =     -31.64615381 Ry
     estimated scf accuracy    <       0.02824401 Ry

     iteration # 16     ecut=    30.00 Ry     beta=0.70
     Davidson diagonalization with overlap
     ethr =  1.68E-04,  avg # of iterations =  1.0

     negative rho (up, down):  1.540E-07 0.000E+00

     total cpu time spent up to now is        4.9 secs

     total energy              =     -31.64566815 Ry
     Harris-Foulkes estimate   =     -31.64570385 Ry
     estimated scf accuracy    <       0.00026753 Ry

     iteration # 17     ecut=    30.00 Ry     beta=0.70
     Davidson diagonalization with overlap
     ethr =  3.34E-06,  avg # of iterations = 16.0

     total cpu time spent up to now is        5.0 secs

     total energy              =     -31.64568387 Ry
     Harris-Foulkes estimate   =     -31.64568897 Ry
     estimated scf accuracy    <       0.00021308 Ry

     iteration # 18     ecut=    30.00 Ry     beta=0.70
     Davidson diagonalization with overlap
     ethr =  2.66E-06,  avg # of iterations =  1.0

     negative rho (up, down):  5.944E-08 0.000E+00

     total cpu time spent up to now is        5.0 secs

     total energy              =     -31.64568481 Ry
     Harris-Foulkes estimate   =     -31.64568572 Ry
     estimated scf accuracy    <       0.00002594 Ry

     iteration # 19     ecut=    30.00 Ry     beta=0.70
     Davidson diagonalization with overlap
     ethr =  3.24E-07,  avg # of iterations =  1.0

     negative rho (up, down):  4.641E-08 0.000E+00

     total cpu time spent up to now is        5.0 secs

     total energy              =     -31.64568523 Ry
     Harris-Foulkes estimate   =     -31.64568513 Ry
     estimated scf accuracy    <       0.00000103 Ry

     iteration # 20     ecut=    30.00 Ry     beta=0.70
     Davidson diagonalization with overlap
     ethr =  1.28E-08,  avg # of iterations =  1.0

     total cpu time spent up to now is        5.1 secs

     total energy              =     -31.64568526 Ry
     Harris-Foulkes estimate   =     -31.64568526 Ry
     estimated scf accuracy    <       0.00000010 Ry

     iteration # 21     ecut=    30.00 Ry     beta=0.70
     Davidson diagonalization with overlap
     ethr =  1.19E-09,  avg # of iterations =  1.0

     total cpu time spent up to now is        5.1 secs

     total energy              =     -31.64568523 Ry
     Harris-Foulkes estimate   =     -31.64568527 Ry
     estimated scf accuracy    <       0.00000002 Ry

     iteration # 22     ecut=    30.00 Ry     beta=0.70
     Davidson diagonalization with overlap
     ethr =  2.15E-10,  avg # of iterations =  1.0

     total cpu time spent up to now is        5.2 secs

     End of self-consistent calculation

          k = 0.0000 0.0000 0.0000 ( 22119 PWs)   bands (ev):

   -23.6277  -8.2691  -6.9463  -6.9461  -6.8124  -5.5323  -0.1201   0.7928

     the Fermi energy is    -6.7777 ev

!    total energy              =     -31.64568518 Ry
     Harris-Foulkes estimate   =     -31.64568523 Ry
     estimated scf accuracy    <          1.8E-09 Ry

     convergence has been achieved in  22 iterations

     Forces acting on atoms (Ry/au):

     atom    1 type  2   force =    -0.03949467    0.01892694   -0.10361440
     atom    2 type  1   force =    -0.00036528    0.00063713   -0.00037768
     atom    3 type  1   force =     0.03985995   -0.01956407    0.10399208

     Total force =     0.159501     Total SCF correction =     0.000069

     Entering Dynamics:    iteration =     3
                           time      =   0.0145 pico-seconds


     Andersen thermostat:    3 collisions

ATOMIC_POSITIONS (bohr)
O        1.110066129  11.077482193  -0.253476838
H        4.751983219  15.653309206  11.050865387
H        0.307431033  11.345771247  17.091592872


     kinetic energy (Ekin) =     0.02377006 Ry
     temperature           =  1250.99719418 K 
     Ekin + Etot (const)   =   -31.62191512 Ry
     Message from routine dynamics:
     Total linear momentum <> 0

     Linear momentum :    0.3679424336   -0.4059240373    0.0655390169

     Writing output data file pwscf.save

     second order wave-functions extrapolation
     Check: negative starting charge=   -0.343347
     second order charge density extrapolation
     Check: negative starting charge=   -0.344716

     negative rho (up, down):  1.675E-01 0.000E+00

     total cpu time spent up to now is        5.6 secs

     per-process dynamical memory:    20.4 Mb

     Self-consistent Calculation

     iteration #  1     ecut=    30.00 Ry     beta=0.70
     Davidson diagonalization with overlap
     c_bands:  1 eigenvalues not converged
     ethr =  1.00E-06,  avg # of iterations = 20.0

     negative rho (up, down):  3.202E-02 0.000E+00

     total cpu time spent up to now is        5.9 secs

     total energy              =      -8.71535682 Ry
     Harris-Foulkes estimate   =     -50.22494430 Ry
     estimated scf accuracy    <       6.31790257 Ry

     iteration #  2     ecut=    30.00 Ry     beta=0.70
     Davidson diagonalization with overlap
     ethr =  1.00E-02,  avg # of iterations =  3.0

     negative rho (up, down):  1.956E-02 0.000E+00

     total cpu time spent up to now is        5.9 secs

     total energy              =     -32.30473131 Ry
     Harris-Foulkes estimate   =     -35.11260008 Ry
     estimated scf accuracy    <       5.94412904 Ry

     iteration #  3     ecut=    30.00 Ry     beta=0.70
     Davidson diagonalization with overlap
     ethr =  1.00E-02,  avg # of iterations =  2.0

     negative rho (up, down):  1.738E-02 0.000E+00

     total cpu time spent up to now is        6.0 secs

     total energy              =     -32.23411333 Ry
     Harris-Foulkes estimate   =     -33.02161174 Ry
     estimated scf accuracy    <       3.68133203 Ry

     iteration #  4     ecut=    30.00 Ry     beta=0.70
     Davidson diagonalization with overlap
     ethr =  1.00E-02,  avg # of iterations =  1.0

     negative rho (up, down):  1.293E-02 0.000E+00

     total cpu time spent up to now is        6.0 secs

     total energy              =     -32.06392986 Ry
     Harris-Foulkes estimate   =     -32.50915494 Ry
     estimated scf accuracy    <       2.14257350 Ry

     iteration #  5     ecut=    30.00 Ry     beta=0.70
     Davidson diagonalization with overlap
     ethr =  1.00E-02,  avg # of iterations =  1.0

     negative rho (up, down):  7.985E-03 0.000E+00

     total cpu time spent up to now is        6.1 secs

     total energy              =     -31.83304624 Ry
     Harris-Foulkes estimate   =     -32.10248158 Ry
     estimated scf accuracy    <       0.99063205 Ry

     iteration #  6     ecut=    30.00 Ry     beta=0.70
     Davidson diagonalization with overlap
     ethr =  1.00E-02,  avg # of iterations =  2.0

     negative rho (up, down):  6.836E-03 0.000E+00

     total cpu time spent up to now is        6.1 secs

     total energy              =     -31.90018419 Ry
     Harris-Foulkes estimate   =     -32.00262897 Ry
     estimated scf accuracy    <       1.41000012 Ry

     iteration #  7     ecut=    30.00 Ry     beta=0.70
     Davidson diagonalization with overlap
     ethr =  1.00E-02,  avg # of iterations =  1.0

     negative rho (up, down):  4.185E-03 0.000E+00

     total cpu time spent up to now is        6.1 secs

     total energy              =     -31.83126423 Ry
     Harris-Foulkes estimate   =     -31.90442959 Ry
     estimated scf accuracy    <       0.35745004 Ry

     iteration #  8     ecut=    30.00 Ry     beta=0.70
     Davidson diagonalization with overlap
     ethr =  4.47E-03,  avg # of iterations =  1.0

     negative rho (up, down):  2.713E-03 0.000E+00

     total cpu time spent up to now is        6.2 secs

     total energy              =     -31.81531113 Ry
     Harris-Foulkes estimate   =     -31.86434304 Ry
     estimated scf accuracy    <       1.00314771 Ry

     iteration #  9     ecut=    30.00 Ry     beta=0.70
     Davidson diagonalization with overlap
     ethr =  4.47E-03,  avg # of iterations =  1.0

     negative rho (up, down):  1.261E-03 0.000E+00

     total cpu time spent up to now is        6.2 secs

     total energy              =     -31.81514150 Ry
     Harris-Foulkes estimate   =     -31.82797223 Ry
     estimated scf accuracy    <       0.06742000 Ry

     iteration # 10     ecut=    30.00 Ry     beta=0.70
     Davidson diagonalization with overlap
     ethr =  8.43E-04,  avg # of iterations =  1.0

     negative rho (up, down):  1.836E-06 0.000E+00

     total cpu time spent up to now is        6.3 secs

     total energy              =     -31.82419110 Ry
     Harris-Foulkes estimate   =     -31.81813484 Ry
     estimated scf accuracy    <       0.03582843 Ry

     iteration # 11     ecut=    30.00 Ry     beta=0.70
     Davidson diagonalization with overlap
     ethr =  4.48E-04,  avg # of iterations =  1.0

     negative rho (up, down):  1.334E-06 0.000E+00

     total cpu time spent up to now is        6.3 secs

     total energy              =     -31.81980212 Ry
     Harris-Foulkes estimate   =     -31.82674979 Ry
     estimated scf accuracy    <       0.11594774 Ry

     iteration # 12     ecut=    30.00 Ry     beta=0.70
     Davidson diagonalization with overlap
     ethr =  4.48E-04,  avg # of iterations =  1.0

     negative rho (up, down):  1.557E-07 0.000E+00

     total cpu time spent up to now is        6.4 secs

     total energy              =     -31.81832712 Ry
     Harris-Foulkes estimate   =     -31.82621416 Ry
     estimated scf accuracy    <       0.11633624 Ry

     iteration # 13     ecut=    30.00 Ry     beta=0.70
     Davidson diagonalization with overlap
     ethr =  4.48E-04,  avg # of iterations =  1.0

     total cpu time spent up to now is        6.4 secs

     total energy              =     -31.82020189 Ry
     Harris-Foulkes estimate   =     -31.82827752 Ry
     estimated scf accuracy    <       0.24398568 Ry

     iteration # 14     ecut=    30.00 Ry     beta=0.70
     Davidson diagonalization with overlap
     ethr =  4.48E-04,  avg # of iterations =  1.0

     total cpu time spent up to now is        6.5 secs

     total energy              =     -31.82459598 Ry
     Harris-Foulkes estimate   =     -31.82465656 Ry
     estimated scf accuracy    <       0.00705311 Ry

     iteration # 15     ecut=    30.00 Ry     beta=0.70
     Davidson diagonalization with overlap
     ethr =  8.82E-05,  avg # of iterations =  3.0

     total cpu time spent up to now is        6.5 secs

     total energy              =     -31.82453771 Ry
     Harris-Foulkes estimate   =     -31.82461189 Ry
     estimated scf accuracy    <       0.00259124 Ry

     iteration # 16     ecut=    30.00 Ry     beta=0.70
     Davidson diagonalization with overlap
     ethr =  3.24E-05,  avg # of iterations =  1.0

     total cpu time spent up to now is        6.6 secs

     total energy              =     -31.82460867 Ry
     Harris-Foulkes estimate   =     -31.82458316 Ry
     estimated scf accuracy    <       0.00009327 Ry

     iteration # 17     ecut=    30.00 Ry     beta=0.70
     Davidson diagonalization with overlap
     ethr =  1.17E-06,  avg # of iterations = 10.0

     total cpu time spent up to now is        6.6 secs

     total energy              =     -31.82460366 Ry
     Harris-Foulkes estimate   =     -31.82461153 Ry
     estimated scf accuracy    <       0.00030165 Ry

     iteration # 18     ecut=    30.00 Ry     beta=0.70
     Davidson diagonalization with overlap
     ethr =  1.17E-06,  avg # of iterations =  1.0

     total cpu time spent up to now is        6.7 secs

     total energy              =     -31.82461044 Ry
     Harris-Foulkes estimate   =     -31.82461134 Ry
     estimated scf accuracy    <       0.00004714 Ry

     iteration # 19     ecut=    30.00 Ry     beta=0.70
     Davidson diagonalization with overlap
     ethr =  5.89E-07,  avg # of iterations =  1.0

     total cpu time spent up to now is        6.7 secs

     total energy              =     -31.82461118 Ry
     Harris-Foulkes estimate   =     -31.82461106 Ry
     estimated scf accuracy    <       0.00000012 Ry

     iteration # 20     ecut=    30.00 Ry     beta=0.70
     Davidson diagonalization with overlap
     ethr =  1.51E-09,  avg # of iterations =  1.0

     total cpu time spent up to now is        6.8 secs

     total energy              =     -31.82461125 Ry
     Harris-Foulkes estimate   =     -31.82461119 Ry
     estimated scf accuracy    <       0.00000012 Ry

     iteration # 21     ecut=    30.00 Ry     beta=0.70
     Davidson diagonalization with overlap
     ethr =  1.49E-09,  avg # of iterations =  1.0

     total cpu time spent up to now is        6.8 secs

     End of self-consistent calculation

          k = 0.0000 0.0000 0.0000 ( 22119 PWs)   bands (ev):

   -23.7864  -9.4219  -6.9586  -6.9580  -6.8233  -2.8746  -0.0346   0.8396

     the Fermi energy is    -6.7894 ev

!    total energy              =     -31.82461128 Ry
     Harris-Foulkes estimate   =     -31.82461126 Ry
     estimated scf accuracy    <          9.5E-09 Ry

     convergence has been achieved in  21 iterations

     Forces acting on atoms (Ry/au):

     atom    1 type  2   force =    -0.05164188    0.01545901   -0.17039245
     atom    2 type  1   force =     0.00027493    0.00092891   -0.00006571
     atom    3 type  1   force =     0.05136696   -0.01638791    0.17045816

     Total force =     0.252791     Total SCF correction =     0.000062

     Entering Dynamics:    iteration =     4
                           time      =   0.0194 pico-seconds


     Andersen thermostat:    3 collisions

ATOMIC_POSITIONS (bohr)
O        1.042174004  11.068728423  -0.347693926
H        4.648651114  15.425935861  10.845639362
H        1.486281945  11.711818175  18.789366838


     kinetic energy (Ekin) =     0.08393820 Ry
     temperature           =  4417.59280531 K 
     Ekin + Etot (const)   =   -31.74067308 Ry
     Message from routine dynamics:
     Total linear momentum <> 0

     Linear momentum :    0.2868737536    0.0527050046   -0.2617939527

     Writing output data file pwscf.save

     second order wave-functions extrapolation
     Check: negative starting charge=   -0.344716
     second order charge density extrapolation
     Check: negative starting charge=   -0.350653

     negative rho (up, down):  5.246E-01 0.000E+00

     total cpu time spent up to now is        7.3 secs

     per-process dynamical memory:    20.4 Mb

     Self-consistent Calculation

     iteration #  1     ecut=    30.00 Ry     beta=0.70
     Davidson diagonalization with overlap
     ethr =  1.00E-06,  avg # of iterations = 13.0

     negative rho (up, down):  1.003E-01 0.000E+00

     total cpu time spent up to now is        7.5 secs

     total energy              =      23.49864306 Ry
     Harris-Foulkes estimate   =     -70.33558923 Ry
     estimated scf accuracy    <      18.06084894 Ry

     iteration #  2     ecut=    30.00 Ry     beta=0.70
     Davidson diagonalization with overlap
     ethr =  1.00E-02,  avg # of iterations = 10.0

     negative rho (up, down):  3.875E-02 0.000E+00

     total cpu time spent up to now is        7.5 secs

     total energy              =      18.93929157 Ry
     Harris-Foulkes estimate   =     -56.40871767 Ry
     estimated scf accuracy    <       9.42695441 Ry

     iteration #  3     ecut=    30.00 Ry     beta=0.70
     Davidson diagonalization with overlap
     ethr =  1.00E-02,  avg # of iterations =  6.0

     negative rho (up, down):  3.793E-02 0.000E+00

     total cpu time spent up to now is        7.6 secs

     total energy              =     -34.72185223 Ry
     Harris-Foulkes estimate   =     -42.48404387 Ry
     estimated scf accuracy    <      16.78454282 Ry

     iteration #  4     ecut=    30.00 Ry     beta=0.70
     Davidson diagonalization with overlap
     ethr =  1.00E-02,  avg # of iterations =  3.0

     negative rho (up, down):  3.503E-02 0.000E+00

     total cpu time spent up to now is        7.7 secs

     total energy              =     -33.59942378 Ry
     Harris-Foulkes estimate   =     -35.17201295 Ry
     estimated scf accuracy    <       7.17627883 Ry

     iteration #  5     ecut=    30.00 Ry     beta=0.70
     Davidson diagonalization with overlap
     ethr =  1.00E-02,  avg # of iterations =  1.0

     negative rho (up, down):  2.773E-02 0.000E+00

     total cpu time spent up to now is        7.7 secs

     total energy              =     -31.87597266 Ry
     Harris-Foulkes estimate   =     -34.43609223 Ry
     estimated scf accuracy    <       6.03027357 Ry

     iteration #  6     ecut=    30.00 Ry     beta=0.70
     Davidson diagonalization with overlap
     ethr =  1.00E-02,  avg # of iterations =  2.0

     negative rho (up, down):  2.228E-02 0.000E+00

     total cpu time spent up to now is        7.8 secs

     total energy              =     -31.43143193 Ry
     Harris-Foulkes estimate   =     -31.95007832 Ry
     estimated scf accuracy    <       2.25648737 Ry

     iteration #  7     ecut=    30.00 Ry     beta=0.70
     Davidson diagonalization with overlap
     ethr =  1.00E-02,  avg # of iterations =  1.0

     negative rho (up, down):  1.016E-01 0.000E+00

     total cpu time spent up to now is        7.8 secs

     total energy              =     -31.57406729 Ry
     Harris-Foulkes estimate   =     -31.65489524 Ry
     estimated scf accuracy    <       2.10180737 Ry

     iteration #  8     ecut=    30.00 Ry     beta=0.70
     Davidson diagonalization with overlap
     ethr =  1.00E-02,  avg # of iterations =  5.0

     negative rho (up, down):  1.010E-01 0.000E+00

     total cpu time spent up to now is        7.9 secs

     total energy              =     -30.48742080 Ry
     Harris-Foulkes estimate   =    -205.09795721 Ry
     estimated scf accuracy    <      18.31799497 Ry

     iteration #  9     ecut=    30.00 Ry     beta=0.70
     Davidson diagonalization with overlap
     ethr =  1.00E-02,  avg # of iterations =  5.0

     negative rho (up, down):  1.018E-01 0.000E+00

     total cpu time spent up to now is        8.0 secs

     total energy              =     -54.22535531 Ry
     Harris-Foulkes estimate   =     -43.04658236 Ry
     estimated scf accuracy    <      15.04930893 Ry

     iteration # 10     ecut=    30.00 Ry     beta=0.70
     Davidson diagonalization with overlap
     ethr =  1.00E-02,  avg # of iterations =  3.0

     negative rho (up, down):  4.165E-01 0.000E+00

     total cpu time spent up to now is        8.0 secs

     total energy              =     -65.19129501 Ry
     Harris-Foulkes estimate   =     -59.83547424 Ry
     estimated scf accuracy    <      17.14175163 Ry

     iteration # 11     ecut=    30.00 Ry     beta=0.70
     Davidson diagonalization with overlap
     ethr =  1.00E-02,  avg # of iterations =  5.0

     negative rho (up, down):  2.356E-01 0.000E+00

     total cpu time spent up to now is        8.1 secs

     total energy              =       1.71263803 Ry
     Harris-Foulkes estimate   =    -223.72298080 Ry
     estimated scf accuracy    <      43.70837867 Ry

     iteration # 12     ecut=    30.00 Ry     beta=0.70
     Davidson diagonalization with overlap
     ethr =  1.00E-02,  avg # of iterations =  5.0

     negative rho (up, down):  1.859E-01 0.000E+00

     total cpu time spent up to now is        8.2 secs

     total energy              =      -1.82145971 Ry
     Harris-Foulkes estimate   =    -219.41276081 Ry
     estimated scf accuracy    <      29.19040920 Ry

     iteration # 13     ecut=    30.00 Ry     beta=0.70
     Davidson diagonalization with overlap
     ethr =  1.00E-02,  avg # of iterations =  5.0

     negative rho (up, down):  1.716E-01 0.000E+00

     total cpu time spent up to now is        8.2 secs

     total energy              =    -226.45133269 Ry
     Harris-Foulkes estimate   =    -346.06314384 Ry
     estimated scf accuracy    <      18.82120493 Ry

     iteration # 14     ecut=    30.00 Ry     beta=0.70
     Davidson diagonalization with overlap
     ethr =  1.00E-02,  avg # of iterations =  5.0

     negative rho (up, down):  5.533E-03 0.000E+00

     total cpu time spent up to now is        8.3 secs

     total energy              =      77.42450041 Ry
     Harris-Foulkes estimate   =    -918.52051363 Ry
     estimated scf accuracy    <      69.28627644 Ry

     iteration # 15     ecut=    30.00 Ry     beta=0.70
     Davidson diagonalization with overlap
     ethr =  1.00E-02,  avg # of iterations =  9.0

     negative rho (up, down):  3.758E-01 0.000E+00

     total cpu time spent up to now is        8.4 secs

     total energy              =     -33.65568657 Ry
     Harris-Foulkes estimate   =     -31.55407839 Ry
     estimated scf accuracy    <       2.06897104 Ry

     iteration # 16     ecut=    30.00 Ry     beta=0.70
     Davidson diagonalization with overlap
     ethr =  1.00E-02,  avg # of iterations =  6.0

     negative rho (up, down):  4.376E-01 0.000E+00

     total cpu time spent up to now is        8.5 secs

     total energy              =    -208.20643672 Ry
     Harris-Foulkes estimate   =   -4554.97034334 Ry
     estimated scf accuracy    <      57.68918752 Ry

     iteration # 17     ecut=    30.00 Ry     beta=0.70
     Davidson diagonalization with overlap
     ethr =  1.00E-02,  avg # of iterations =  9.0

     negative rho (up, down):  4.067E-01 0.000E+00

     total cpu time spent up to now is        8.5 secs

     total energy              =    -765.08505312 Ry
     Harris-Foulkes estimate   =   -1695.24199827 Ry
     estimated scf accuracy    <      53.47237130 Ry

     iteration # 18     ecut=    30.00 Ry     beta=0.70
     Davidson diagonalization with overlap
     ethr =  1.00E-02,  avg # of iterations =  9.0

     negative rho (up, down):  3.213E-01 0.000E+00

     total cpu time spent up to now is        8.6 secs

     total energy              =      84.03454807 Ry
     Harris-Foulkes estimate   =   -1882.22610200 Ry
     estimated scf accuracy    <      57.45714784 Ry

     iteration # 19     ecut=    30.00 Ry     beta=0.70
     Davidson diagonalization with overlap
     ethr =  1.00E-02,  avg # of iterations =  8.0

     negative rho (up, down):  3.450E-01 0.000E+00

     total cpu time spent up to now is        8.7 secs

     total energy              =      45.26121441 Ry
     Harris-Foulkes estimate   =    -134.13651733 Ry
     estimated scf accuracy    <      35.59757969 Ry

     iteration # 20     ecut=    30.00 Ry     beta=0.70
     Davidson diagonalization with overlap
     ethr =  1.00E-02,  avg # of iterations =  7.0

     negative rho (up, down):  3.611E-01 0.000E+00

     total cpu time spent up to now is        8.8 secs

     total energy              =      39.25871058 Ry
     Harris-Foulkes estimate   =    -198.47721627 Ry
     estimated scf accuracy    <      58.68433327 Ry

     iteration # 21     ecut=    30.00 Ry     beta=0.70
     Davidson diagonalization with overlap
     ethr =  1.00E-02,  avg # of iterations =  7.0

     negative rho (up, down):  3.885E-01 0.000E+00

     total cpu time spent up to now is        8.9 secs

     total energy              =    -845.44349226 Ry
     Harris-Foulkes estimate   =    -318.89802404 Ry
     estimated scf accuracy    <      53.64652647 Ry

     iteration # 22     ecut=    30.00 Ry     beta=0.70
     Davidson diagonalization with overlap
     ethr =  1.00E-02,  avg # of iterations =  5.0

     negative rho (up, down):  2.379E-01 0.000E+00

     total cpu time spent up to now is        9.0 secs

     total energy              =    -141.58018113 Ry
     Harris-Foulkes estimate   =   -6458.70255626 Ry
     estimated scf accuracy    <      66.04279879 Ry

     iteration # 23     ecut=    30.00 Ry     beta=0.70
     Davidson diagonalization with overlap
     ethr =  1.00E-02,  avg # of iterations =  7.0

     negative rho (up, down):  1.534E-01 0.000E+00

     total cpu time spent up to now is        9.1 secs

     total energy              =      19.35910415 Ry
     Harris-Foulkes estimate   =    -619.13762491 Ry
     estimated scf accuracy    <      54.87201615 Ry

     iteration # 24     ecut=    30.00 Ry     beta=0.70
     Davidson diagonalization with overlap
     ethr =  1.00E-02,  avg # of iterations =  8.0

     negative rho (up, down):  6.541E-01 0.000E+00

     total cpu time spent up to now is        9.1 secs

     total energy              =    -107.37853828 Ry
     Harris-Foulkes estimate   =    -860.52639488 Ry
     estimated scf accuracy    <      55.48357836 Ry

     iteration # 25     ecut=    30.00 Ry     beta=0.70
     Davidson diagonalization with overlap
     ethr =  1.00E-02,  avg # of iterations =  9.0

     negative rho (up, down):  1.448E+00 0.000E+00

     total cpu time spent up to now is        9.2 secs

     total energy              =      92.57779341 Ry
     Harris-Foulkes estimate   =   -2976.46445083 Ry
     estimated scf accuracy    <      24.61603749 Ry

     iteration # 26     ecut=    30.00 Ry     beta=0.70
     Davidson diagonalization with overlap
     ethr =  1.00E-02,  avg # of iterations =  9.0

     negative rho (up, down):  1.631E+00 0.000E+00

     total cpu time spent up to now is        9.3 secs

     total energy              =      64.89104391 Ry
     Harris-Foulkes estimate   =   -1495.44093881 Ry
     estimated scf accuracy    <      32.19099748 Ry

     iteration # 27     ecut=    30.00 Ry     beta=0.70
     Davidson diagonalization with overlap
     ethr =  1.00E-02,  avg # of iterations =  7.0

     negative rho (up, down):  1.689E+00 0.000E+00

     total cpu time spent up to now is        9.4 secs

     total energy              =      97.86892072 Ry
     Harris-Foulkes estimate   =   -4103.25296894 Ry
     estimated scf accuracy    <      42.02341191 Ry

     iteration # 28     ecut=    30.00 Ry     beta=0.70
     Davidson diagonalization with overlap
     ethr =  1.00E-02,  avg # of iterations =  9.0

     negative rho (up, down):  6.100E-01 0.000E+00

     total cpu time spent up to now is        9.5 secs

     total energy              =      56.03118649 Ry
     Harris-Foulkes estimate   =   -1094.14029173 Ry
     estimated scf accuracy    <      22.28174833 Ry

     iteration # 29     ecut=    30.00 Ry     beta=0.70
     Davidson diagonalization with overlap
     ethr =  1.00E-02,  avg # of iterations = 10.0

     negative rho (up, down):  6.132E-01 0.000E+00

     total cpu time spent up to now is        9.6 secs

     total energy              =     -79.40104722 Ry
     Harris-Foulkes estimate   =    -849.35880207 Ry
     estimated scf accuracy    <      29.51622541 Ry

     iteration # 30     ecut=    30.00 Ry     beta=0.70
     Davidson diagonalization with overlap
     ethr =  1.00E-02,  avg # of iterations =  5.0

     negative rho (up, down):  4.368E-01 0.000E+00

     total cpu time spent up to now is        9.7 secs

     total energy              =    -738.19419872 Ry
     Harris-Foulkes estimate   =   -1387.30764420 Ry
     estimated scf accuracy    <      23.65464323 Ry

     iteration # 31     ecut=    30.00 Ry     beta=0.70
     Davidson diagonalization with overlap
     ethr =  1.00E-02,  avg # of iterations =  9.0

     negative rho (up, down):  1.463E-01 0.000E+00

     total cpu time spent up to now is        9.8 secs

     total energy              =     155.53329671 Ry
     Harris-Foulkes estimate   =   -1592.10964411 Ry
     estimated scf accuracy    <      18.44121835 Ry

     iteration # 32     ecut=    30.00 Ry     beta=0.70
     Davidson diagonalization with overlap
     ethr =  1.00E-02,  avg # of iterations =  9.0

     negative rho (up, down):  1.644E-03 0.000E+00

     total cpu time spent up to now is        9.9 secs

     total energy              =     -22.22396373 Ry
     Harris-Foulkes estimate   =     -88.63907042 Ry
     estimated scf accuracy    <      46.91791734 Ry

     iteration # 33     ecut=    30.00 Ry     beta=0.70
     Davidson diagonalization with overlap
     ethr =  1.00E-02,  avg # of iterations =  5.0

     negative rho (up, down):  1.146E-02 0.000E+00

     total cpu time spent up to now is        9.9 secs

     total energy              =      46.75564394 Ry
     Harris-Foulkes estimate   =   -1370.35754493 Ry
     estimated scf accuracy    <      12.73417754 Ry

     iteration # 34     ecut=    30.00 Ry     beta=0.70
     Davidson diagonalization with overlap
     ethr =  1.00E-02,  avg # of iterations =  6.0

     negative rho (up, down):  3.793E-02 0.000E+00

     total cpu time spent up to now is       10.0 secs

     total energy              =     -13.08167204 Ry
     Harris-Foulkes estimate   =    -134.37936059 Ry
     estimated scf accuracy    <      24.61720730 Ry

     iteration # 35     ecut=    30.00 Ry     beta=0.70
     Davidson diagonalization with overlap
     ethr =  1.00E-02,  avg # of iterations =  6.0

     negative rho (up, down):  1.204E-01 0.000E+00

     total cpu time spent up to now is       10.1 secs

     total energy              =     100.31560059 Ry
     Harris-Foulkes estimate   =    -159.17133505 Ry
     estimated scf accuracy    <      32.34658049 Ry

     iteration # 36     ecut=    30.00 Ry     beta=0.70
     Davidson diagonalization with overlap
     ethr =  1.00E-02,  avg # of iterations =  6.0

     negative rho (up, down):  8.145E-02 0.000E+00

     total cpu time spent up to now is       10.2 secs

     total energy              =      48.50436024 Ry
     Harris-Foulkes estimate   =    -407.01400137 Ry
     estimated scf accuracy    <      19.03710660 Ry

     iteration # 37     ecut=    30.00 Ry     beta=0.70
     Davidson diagonalization with overlap
     ethr =  1.00E-02,  avg # of iterations =  5.0

     negative rho (up, down):  6.640E-02 0.000E+00

     total cpu time spent up to now is       10.2 secs

     total energy              =     -74.04544451 Ry
     Harris-Foulkes estimate   =    -258.29435354 Ry
     estimated scf accuracy    <      21.64535480 Ry

     iteration # 38     ecut=    30.00 Ry     beta=0.70
     Davidson diagonalization with overlap
     ethr =  1.00E-02,  avg # of iterations =  5.0

     negative rho (up, down):  2.528E-02 0.000E+00

     total cpu time spent up to now is       10.3 secs

     total energy              =      69.41332722 Ry
     Harris-Foulkes estimate   =    -431.18650490 Ry
     estimated scf accuracy    <      14.41090347 Ry

     iteration # 39     ecut=    30.00 Ry     beta=0.70
     Davidson diagonalization with overlap
     ethr =  1.00E-02,  avg # of iterations =  6.0

     negative rho (up, down):  5.902E-02 0.000E+00

     total cpu time spent up to now is       10.4 secs

     total energy              =      45.86775408 Ry
     Harris-Foulkes estimate   =    -600.21220978 Ry
     estimated scf accuracy    <      21.40685973 Ry

     iteration # 40     ecut=    30.00 Ry     beta=0.70
     Davidson diagonalization with overlap
     ethr =  1.00E-02,  avg # of iterations =  4.0

     negative rho (up, down):  2.049E-01 0.000E+00

     total cpu time spent up to now is       10.5 secs

     total energy              =     168.38550143 Ry
     Harris-Foulkes estimate   =    -967.95542997 Ry
     estimated scf accuracy    <      19.06457566 Ry

     iteration # 41     ecut=    30.00 Ry     beta=0.70
     Davidson diagonalization with overlap
     ethr =  1.00E-02,  avg # of iterations =  7.0

     negative rho (up, down):  1.076E-01 0.000E+00

     total cpu time spent up to now is       10.5 secs

     total energy              =      98.41022399 Ry
     Harris-Foulkes estimate   =    -549.93920577 Ry
     estimated scf accuracy    <      41.12411921 Ry

     iteration # 42     ecut=    30.00 Ry     beta=0.70
     Davidson diagonalization with overlap
     ethr =  1.00E-02,  avg # of iterations =  6.0

     negative rho (up, down):  1.483E-01 0.000E+00

     total cpu time spent up to now is       10.6 secs

     total energy              =   -3546.47656400 Ry
     Harris-Foulkes estimate   =    -801.86185255 Ry
     estimated scf accuracy    <      15.37267683 Ry

     iteration # 43     ecut=    30.00 Ry     beta=0.70
     Davidson diagonalization with overlap
     ethr =  1.00E-02,  avg # of iterations =  4.0

     negative rho (up, down):  2.554E-01 0.000E+00

     total cpu time spent up to now is       10.7 secs

     total energy              =    -327.17505349 Ry
     Harris-Foulkes estimate   =  -31358.56150114 Ry
     estimated scf accuracy    <      26.58553713 Ry

     iteration # 44     ecut=    30.00 Ry     beta=0.70
     Davidson diagonalization with overlap
     ethr =  1.00E-02,  avg # of iterations = 10.0

     negative rho (up, down):  2.660E-01 0.000E+00

     total cpu time spent up to now is       10.8 secs

     total energy              =     110.48937159 Ry
     Harris-Foulkes estimate   =   -1052.74100842 Ry
     estimated scf accuracy    <      19.28906742 Ry

     iteration # 45     ecut=    30.00 Ry     beta=0.70
     Davidson diagonalization with overlap
     ethr =  1.00E-02,  avg # of iterations = 10.0

     negative rho (up, down):  1.620E-01 0.000E+00

     total cpu time spent up to now is       10.9 secs

     total energy              =     114.13787065 Ry
     Harris-Foulkes estimate   =    -362.05309782 Ry
     estimated scf accuracy    <      17.64222540 Ry

     iteration # 46     ecut=    30.00 Ry     beta=0.70
     Davidson diagonalization with overlap
     ethr =  1.00E-02,  avg # of iterations = 11.0

     negative rho (up, down):  2.268E-02 0.000E+00

     total cpu time spent up to now is       11.0 secs

     total energy              =      45.93325566 Ry
     Harris-Foulkes estimate   =    -329.65799201 Ry
     estimated scf accuracy    <      18.90215074 Ry

     iteration # 47     ecut=    30.00 Ry     beta=0.70
     Davidson diagonalization with overlap
     ethr =  1.00E-02,  avg # of iterations =  7.0

     negative rho (up, down):  5.116E-02 0.000E+00

     total cpu time spent up to now is       11.1 secs

     total energy              =     -15.21282701 Ry
     Harris-Foulkes estimate   =    -189.51195386 Ry
     estimated scf accuracy    <      27.83835387 Ry

     iteration # 48     ecut=    30.00 Ry     beta=0.70
     Davidson diagonalization with overlap
     ethr =  1.00E-02,  avg # of iterations =  7.0

     negative rho (up, down):  9.771E-02 0.000E+00

     total cpu time spent up to now is       11.2 secs

     total energy              =     115.83481940 Ry
     Harris-Foulkes estimate   =    -481.33798046 Ry
     estimated scf accuracy    <      29.44995013 Ry

     iteration # 49     ecut=    30.00 Ry     beta=0.70
     Davidson diagonalization with overlap
     ethr =  1.00E-02,  avg # of iterations =  5.0

     negative rho (up, down):  9.838E-02 0.000E+00

     total cpu time spent up to now is       11.2 secs

     total energy              =      19.60160057 Ry
     Harris-Foulkes estimate   =    -218.31562545 Ry
     estimated scf accuracy    <      23.88224252 Ry

     iteration # 50     ecut=    30.00 Ry     beta=0.70
     Davidson diagonalization with overlap
     ethr =  1.00E-02,  avg # of iterations =  8.0

     negative rho (up, down):  2.982E-05 0.000E+00

     total cpu time spent up to now is       11.3 secs

     total energy              =      41.47579796 Ry
     Harris-Foulkes estimate   =   -1608.13270641 Ry
     estimated scf accuracy    <      16.15884675 Ry

     iteration # 51     ecut=    30.00 Ry     beta=0.70
     Davidson diagonalization with overlap
     ethr =  1.00E-02,  avg # of iterations =  8.0

     negative rho (up, down):  8.711E-02 0.000E+00

     total cpu time spent up to now is       11.4 secs

     total energy              =     -56.95729406 Ry
     Harris-Foulkes estimate   =     -59.68446981 Ry
     estimated scf accuracy    <      38.82667758 Ry

     iteration # 52     ecut=    30.00 Ry     beta=0.70
     Davidson diagonalization with overlap
     ethr =  1.00E-02,  avg # of iterations =  5.0

     negative rho (up, down):  2.905E-01 0.000E+00

     total cpu time spent up to now is       11.5 secs

     total energy              =     -34.44782619 Ry
     Harris-Foulkes estimate   =     -82.90661638 Ry
     estimated scf accuracy    <      21.74955611 Ry

     iteration # 53     ecut=    30.00 Ry     beta=0.70
     Davidson diagonalization with overlap
     ethr =  1.00E-02,  avg # of iterations =  7.0

     negative rho (up, down):  4.377E-01 0.000E+00

     total cpu time spent up to now is       11.5 secs

     total energy              =      45.03643519 Ry
     Harris-Foulkes estimate   =    -252.54205264 Ry
     estimated scf accuracy    <      20.18214826 Ry

     iteration # 54     ecut=    30.00 Ry     beta=0.70
     Davidson diagonalization with overlap
     ethr =  1.00E-02,  avg # of iterations =  7.0

     negative rho (up, down):  4.681E-01 0.000E+00

     total cpu time spent up to now is       11.6 secs

     total energy              =      50.19303256 Ry
     Harris-Foulkes estimate   =    -604.40051468 Ry
     estimated scf accuracy    <      22.07646248 Ry

     iteration # 55     ecut=    30.00 Ry     beta=0.70
     Davidson diagonalization with overlap
     ethr =  1.00E-02,  avg # of iterations =  9.0

     negative rho (up, down):  2.024E-01 0.000E+00

     total cpu time spent up to now is       11.7 secs

     total energy              =     -93.97331499 Ry
     Harris-Foulkes estimate   =    -346.64966899 Ry
     estimated scf accuracy    <      14.17356732 Ry

     iteration # 56     ecut=    30.00 Ry     beta=0.70
     Davidson diagonalization with overlap
     ethr =  1.00E-02,  avg # of iterations =  5.0

     negative rho (up, down):  1.032E-02 0.000E+00

     total cpu time spent up to now is       11.8 secs

     total energy              =      24.98636178 Ry
     Harris-Foulkes estimate   =    -357.79769892 Ry
     estimated scf accuracy    <      10.41115614 Ry

     iteration # 57     ecut=    30.00 Ry     beta=0.70
     Davidson diagonalization with overlap
     ethr =  1.00E-02,  avg # of iterations =  8.0

     negative rho (up, down):  9.132E-03 0.000E+00

     total cpu time spent up to now is       11.8 secs

     total energy              =     -24.43447221 Ry
     Harris-Foulkes estimate   =     -52.52280870 Ry
     estimated scf accuracy    <      22.22252450 Ry

     iteration # 58     ecut=    30.00 Ry     beta=0.70
     Davidson diagonalization with overlap
     ethr =  1.00E-02,  avg # of iterations =  8.0

     negative rho (up, down):  2.743E-02 0.000E+00

     total cpu time spent up to now is       11.9 secs

     total energy              =     -47.25939200 Ry
     Harris-Foulkes estimate   =     -49.65610157 Ry
     estimated scf accuracy    <      26.63196956 Ry

     iteration # 59     ecut=    30.00 Ry     beta=0.70
     Davidson diagonalization with overlap
     ethr =  1.00E-02,  avg # of iterations =  9.0

     negative rho (up, down):  2.781E-04 0.000E+00

     total cpu time spent up to now is       12.0 secs

     total energy              =     136.94964770 Ry
     Harris-Foulkes estimate   =    -561.58425056 Ry
     estimated scf accuracy    <      46.66576365 Ry

     iteration # 60     ecut=    30.00 Ry     beta=0.70
     Davidson diagonalization with overlap
     ethr =  1.00E-02,  avg # of iterations =  9.0

     negative rho (up, down):  3.259E-01 0.000E+00

     total cpu time spent up to now is       12.1 secs

     total energy              =     -45.55074706 Ry
     Harris-Foulkes estimate   =     -46.93609200 Ry
     estimated scf accuracy    <      22.84632315 Ry

     iteration # 61     ecut=    30.00 Ry     beta=0.70
     Davidson diagonalization with overlap
     ethr =  1.00E-02,  avg # of iterations =  5.0

     negative rho (up, down):  2.865E-01 0.000E+00

     total cpu time spent up to now is       12.1 secs

     total energy              =      93.46319255 Ry
     Harris-Foulkes estimate   =    -461.50111273 Ry
     estimated scf accuracy    <      31.13534339 Ry

     iteration # 62     ecut=    30.00 Ry     beta=0.70
     Davidson diagonalization with overlap
     ethr =  1.00E-02,  avg # of iterations =  9.0

     negative rho (up, down):  2.964E-01 0.000E+00

     total cpu time spent up to now is       12.2 secs

     total energy              =      -8.95700012 Ry
     Harris-Foulkes estimate   =    -565.74058035 Ry
     estimated scf accuracy    <      17.30698090 Ry

     iteration # 63     ecut=    30.00 Ry     beta=0.70
     Davidson diagonalization with overlap
     ethr =  1.00E-02,  avg # of iterations =  8.0

     negative rho (up, down):  5.764E-02 0.000E+00

     total cpu time spent up to now is       12.3 secs

     total energy              =      22.44491015 Ry
     Harris-Foulkes estimate   =    -117.88650125 Ry
     estimated scf accuracy    <      15.00777057 Ry

     iteration # 64     ecut=    30.00 Ry     beta=0.70
     Davidson diagonalization with overlap
     ethr =  1.00E-02,  avg # of iterations =  5.0

     negative rho (up, down):  1.209E-01 0.000E+00

     total cpu time spent up to now is       12.4 secs

     total energy              =      -9.39340723 Ry
     Harris-Foulkes estimate   =     -82.10095936 Ry
     estimated scf accuracy    <      15.36634615 Ry

     iteration # 65     ecut=    30.00 Ry     beta=0.70
     Davidson diagonalization with overlap
     ethr =  1.00E-02,  avg # of iterations =  5.0

     negative rho (up, down):  3.619E-01 0.000E+00

     total cpu time spent up to now is       12.4 secs

     total energy              =     -26.54312798 Ry
     Harris-Foulkes estimate   =     -57.71008061 Ry
     estimated scf accuracy    <      15.40753625 Ry

     iteration # 66     ecut=    30.00 Ry     beta=0.70
     Davidson diagonalization with overlap
     ethr =  1.00E-02,  avg # of iterations =  7.0

     negative rho (up, down):  6.415E-04 0.000E+00

     total cpu time spent up to now is       12.5 secs

     total energy              =     104.82419411 Ry
     Harris-Foulkes estimate   =    -185.81560175 Ry
     estimated scf accuracy    <      32.84265931 Ry

     iteration # 67     ecut=    30.00 Ry     beta=0.70
     Davidson diagonalization with overlap
     ethr =  1.00E-02,  avg # of iterations =  5.0

     negative rho (up, down):  8.290E-02 0.000E+00

     total cpu time spent up to now is       12.6 secs

     total energy              =    -520.97558081 Ry
     Harris-Foulkes estimate   =    -277.21979794 Ry
     estimated scf accuracy    <      13.10994863 Ry

     iteration # 68     ecut=    30.00 Ry     beta=0.70
     Davidson diagonalization with overlap
     ethr =  1.00E-02,  avg # of iterations = 11.0

     negative rho (up, down):  1.835E-01 0.000E+00

     total cpu time spent up to now is       12.7 secs

     total energy              =      49.12021615 Ry
     Harris-Foulkes estimate   =   -1482.33113845 Ry
     estimated scf accuracy    <      26.69636944 Ry

     iteration # 69     ecut=    30.00 Ry     beta=0.70
     Davidson diagonalization with overlap
     ethr =  1.00E-02,  avg # of iterations =  5.0

     negative rho (up, down):  3.979E-01 0.000E+00

     total cpu time spent up to now is       12.7 secs

     total energy              =      54.91048152 Ry
     Harris-Foulkes estimate   =    -590.87543055 Ry
     estimated scf accuracy    <      36.62817506 Ry

     iteration # 70     ecut=    30.00 Ry     beta=0.70
     Davidson diagonalization with overlap
     ethr =  1.00E-02,  avg # of iterations =  6.0

     negative rho (up, down):  3.699E-01 0.000E+00

     total cpu time spent up to now is       12.8 secs

     total energy              =      94.43041136 Ry
     Harris-Foulkes estimate   =    -453.89524151 Ry
     estimated scf accuracy    <      29.12458742 Ry

     iteration # 71     ecut=    30.00 Ry     beta=0.70
     Davidson diagonalization with overlap
     ethr =  1.00E-02,  avg # of iterations =  8.0

     negative rho (up, down):  4.114E-01 0.000E+00

     total cpu time spent up to now is       12.9 secs

     total energy              =       9.50938998 Ry
     Harris-Foulkes estimate   =    -240.37112332 Ry
     estimated scf accuracy    <      29.18156552 Ry

     iteration # 72     ecut=    30.00 Ry     beta=0.70
     Davidson diagonalization with overlap
     ethr =  1.00E-02,  avg # of iterations =  8.0

     negative rho (up, down):  4.257E-01 0.000E+00

     total cpu time spent up to now is       13.0 secs

     total energy              =     -73.74879944 Ry
     Harris-Foulkes estimate   =   -3226.82202029 Ry
     estimated scf accuracy    <      41.57043817 Ry

     iteration # 73     ecut=    30.00 Ry     beta=0.70
     Davidson diagonalization with overlap
     ethr =  1.00E-02,  avg # of iterations =  5.0

     negative rho (up, down):  4.661E-01 0.000E+00

     total cpu time spent up to now is       13.1 secs

     total energy              =     -68.24721512 Ry
     Harris-Foulkes estimate   =    -486.98845119 Ry
     estimated scf accuracy    <      42.63776907 Ry

     iteration # 74     ecut=    30.00 Ry     beta=0.70
     Davidson diagonalization with overlap
     ethr =  1.00E-02,  avg # of iterations =  9.0

     negative rho (up, down):  5.076E-01 0.000E+00

     total cpu time spent up to now is       13.2 secs

     total energy              =      28.39586340 Ry
     Harris-Foulkes estimate   =    -381.03053064 Ry
     estimated scf accuracy    <      49.97563724 Ry

     iteration # 75     ecut=    30.00 Ry     beta=0.70
     Davidson diagonalization with overlap
     ethr =  1.00E-02,  avg # of iterations =  6.0

     negative rho (up, down):  9.333E-01 0.000E+00

     total cpu time spent up to now is       13.2 secs

     total energy              =      85.99882017 Ry
     Harris-Foulkes estimate   =   -1767.72409650 Ry
     estimated scf accuracy    <      30.78643548 Ry

     iteration # 76     ecut=    30.00 Ry     beta=0.70
     Davidson diagonalization with overlap
     ethr =  1.00E-02,  avg # of iterations =  4.0

     negative rho (up, down):  7.450E-01 0.000E+00

     total cpu time spent up to now is       13.3 secs

     total energy              =      79.55090988 Ry
     Harris-Foulkes estimate   =   -1371.12277811 Ry
     estimated scf accuracy    <      27.60367745 Ry

     iteration # 77     ecut=    30.00 Ry     beta=0.70
     Davidson diagonalization with overlap
     ethr =  1.00E-02,  avg # of iterations =  7.0

     negative rho (up, down):  1.031E+00 0.000E+00

     total cpu time spent up to now is       13.4 secs

     total energy              =     -26.20311586 Ry
     Harris-Foulkes estimate   =  -21089.87462905 Ry
     estimated scf accuracy    <      29.44289356 Ry

     iteration # 78     ecut=    30.00 Ry     beta=0.70
     Davidson diagonalization with overlap
     ethr =  1.00E-02,  avg # of iterations = 10.0

     negative rho (up, down):  1.186E+00 0.000E+00

     total cpu time spent up to now is       13.5 secs

     total energy              =    -327.08252061 Ry
     Harris-Foulkes estimate   =   -4511.72076952 Ry
     estimated scf accuracy    <      23.22472757 Ry

     iteration # 79     ecut=    30.00 Ry     beta=0.70
     Davidson diagonalization with overlap
     ethr =  1.00E-02,  avg # of iterations =  8.0

     negative rho (up, down):  1.278E+00 0.000E+00

     total cpu time spent up to now is       13.6 secs

     total energy              =    -240.49017246 Ry
     Harris-Foulkes estimate   =  -21648.94325594 Ry
     estimated scf accuracy    <      36.15724953 Ry

     iteration # 80     ecut=    30.00 Ry     beta=0.70
     Davidson diagonalization with overlap
     ethr =  1.00E-02,  avg # of iterations =  6.0

     negative rho (up, down):  1.149E+00 0.000E+00

     total cpu time spent up to now is       13.7 secs

     total energy              =    -233.74378564 Ry
     Harris-Foulkes estimate   =   -5468.65804643 Ry
     estimated scf accuracy    <      24.55198192 Ry

     iteration # 81     ecut=    30.00 Ry     beta=0.70
     Davidson diagonalization with overlap
     ethr =  1.00E-02,  avg # of iterations =  7.0

     negative rho (up, down):  1.169E+00 0.000E+00

     total cpu time spent up to now is       13.8 secs

     total energy              =     -85.99415802 Ry
     Harris-Foulkes estimate   =  -10726.21700821 Ry
     estimated scf accuracy    <      32.68441685 Ry

     iteration # 82     ecut=    30.00 Ry     beta=0.70
     Davidson diagonalization with overlap
     ethr =  1.00E-02,  avg # of iterations =  8.0

     negative rho (up, down):  1.046E+00 0.000E+00

     total cpu time spent up to now is       13.8 secs

     total energy              =    1730.91450273 Ry
     Harris-Foulkes estimate   =   -8207.74397878 Ry
     estimated scf accuracy    <      26.93297221 Ry

     iteration # 83     ecut=    30.00 Ry     beta=0.70
     Davidson diagonalization with overlap
     ethr =  1.00E-02,  avg # of iterations =  7.0

     negative rho (up, down):  1.321E-02 0.000E+00

     total cpu time spent up to now is       13.9 secs

     total energy              =     154.11460006 Ry
     Harris-Foulkes estimate   =   -3430.02472426 Ry
     estimated scf accuracy    <      27.04380555 Ry

     iteration # 84     ecut=    30.00 Ry     beta=0.70
     Davidson diagonalization with overlap
     ethr =  1.00E-02,  avg # of iterations = 10.0

     negative rho (up, down):  9.711E-02 0.000E+00

     total cpu time spent up to now is       14.0 secs

     total energy              =      22.30978509 Ry
     Harris-Foulkes estimate   =    -708.14809806 Ry
     estimated scf accuracy    <      25.28272105 Ry

     iteration # 85     ecut=    30.00 Ry     beta=0.70
     Davidson diagonalization with overlap
     ethr =  1.00E-02,  avg # of iterations =  5.0

     negative rho (up, down):  3.315E-01 0.000E+00

     total cpu time spent up to now is       14.1 secs

     total energy              =       6.62361893 Ry
     Harris-Foulkes estimate   =    -540.95148886 Ry
     estimated scf accuracy    <      20.98247899 Ry

     iteration # 86     ecut=    30.00 Ry     beta=0.70
     Davidson diagonalization with overlap
     ethr =  1.00E-02,  avg # of iterations =  7.0

     negative rho (up, down):  3.698E-01 0.000E+00

     total cpu time spent up to now is       14.2 secs

     total energy              =      96.71165212 Ry
     Harris-Foulkes estimate   =    -453.34337850 Ry
     estimated scf accuracy    <      19.57092782 Ry

     iteration # 87     ecut=    30.00 Ry     beta=0.70
     Davidson diagonalization with overlap
     ethr =  1.00E-02,  avg # of iterations =  9.0

     negative rho (up, down):  2.681E-01 0.000E+00

     total cpu time spent up to now is       14.3 secs

     total energy              =     -24.34414304 Ry
     Harris-Foulkes estimate   =     -94.61856742 Ry
     estimated scf accuracy    <      30.73070571 Ry

     iteration # 88     ecut=    30.00 Ry     beta=0.70
     Davidson diagonalization with overlap
     ethr =  1.00E-02,  avg # of iterations = 12.0

     negative rho (up, down):  7.932E-02 0.000E+00

     total cpu time spent up to now is       14.4 secs

     total energy              =     -60.89868818 Ry
     Harris-Foulkes estimate   =     -63.51662347 Ry
     estimated scf accuracy    <      43.02458634 Ry

     iteration # 89     ecut=    30.00 Ry     beta=0.70
     Davidson diagonalization with overlap
     ethr =  1.00E-02,  avg # of iterations =  5.0

     negative rho (up, down):  3.241E-04 0.000E+00

     total cpu time spent up to now is       14.5 secs

     total energy              =      82.69461270 Ry
     Harris-Foulkes estimate   =    -411.58961935 Ry
     estimated scf accuracy    <      21.41274291 Ry

     iteration # 90     ecut=    30.00 Ry     beta=0.70
     Davidson diagonalization with overlap
     ethr =  1.00E-02,  avg # of iterations =  5.0

     negative rho (up, down):  3.764E-04 0.000E+00

     total cpu time spent up to now is       14.5 secs

     total energy              =     -12.35825711 Ry
     Harris-Foulkes estimate   =    -100.35859299 Ry
     estimated scf accuracy    <      23.01750201 Ry

     iteration # 91     ecut=    30.00 Ry     beta=0.70
     Davidson diagonalization with overlap
     ethr =  1.00E-02,  avg # of iterations =  3.0

     negative rho (up, down):  6.045E-02 0.000E+00

     total cpu time spent up to now is       14.6 secs

     total energy              =     -68.17056457 Ry
     Harris-Foulkes estimate   =     -68.83486308 Ry
     estimated scf accuracy    <      42.84985857 Ry

     iteration # 92     ecut=    30.00 Ry     beta=0.70
     Davidson diagonalization with overlap
     ethr =  1.00E-02,  avg # of iterations =  5.0

     negative rho (up, down):  2.753E-02 0.000E+00

     total cpu time spent up to now is       14.7 secs

     total energy              =      32.94993305 Ry
     Harris-Foulkes estimate   =    -378.51344154 Ry
     estimated scf accuracy    <      33.54283734 Ry

     iteration # 93     ecut=    30.00 Ry     beta=0.70
     Davidson diagonalization with overlap
     ethr =  1.00E-02,  avg # of iterations =  9.0

     negative rho (up, down):  1.127E-02 0.000E+00

     total cpu time spent up to now is       14.8 secs

     total energy              =     -21.92629476 Ry
     Harris-Foulkes estimate   =    -151.73349853 Ry
     estimated scf accuracy    <      37.39275419 Ry

     iteration # 94     ecut=    30.00 Ry     beta=0.70
     Davidson diagonalization with overlap
     ethr =  1.00E-02,  avg # of iterations =  5.0

     negative rho (up, down):  3.088E-02 0.000E+00

     total cpu time spent up to now is       14.8 secs

     total energy              =     -16.01583765 Ry
     Harris-Foulkes estimate   =    -696.73377977 Ry
     estimated scf accuracy    <      23.68719918 Ry

     iteration # 95     ecut=    30.00 Ry     beta=0.70
     Davidson diagonalization with overlap
     ethr =  1.00E-02,  avg # of iterations =  7.0

     negative rho (up, down):  1.018E-02 0.000E+00

     total cpu time spent up to now is       14.9 secs

     total energy              =      40.64000292 Ry
     Harris-Foulkes estimate   =   -1147.36870391 Ry
     estimated scf accuracy    <      21.96501677 Ry

     iteration # 96     ecut=    30.00 Ry     beta=0.70
     Davidson diagonalization with overlap
     ethr =  1.00E-02,  avg # of iterations =  4.0

     negative rho (up, down):  4.267E-02 0.000E+00

     total cpu time spent up to now is       15.0 secs

     total energy              =     -15.37258229 Ry
     Harris-Foulkes estimate   =     -79.15438204 Ry
     estimated scf accuracy    <      24.50972594 Ry

     iteration # 97     ecut=    30.00 Ry     beta=0.70
     Davidson diagonalization with overlap
     ethr =  1.00E-02,  avg # of iterations =  4.0

     negative rho (up, down):  3.020E-01 0.000E+00

     total cpu time spent up to now is       15.0 secs

     total energy              =    -117.11235363 Ry
     Harris-Foulkes estimate   =    -352.62806326 Ry
     estimated scf accuracy    <      19.81750329 Ry

     iteration # 98     ecut=    30.00 Ry     beta=0.70
     Davidson diagonalization with overlap
     ethr =  1.00E-02,  avg # of iterations =  7.0

     negative rho (up, down):  2.413E-01 0.000E+00

     total cpu time spent up to now is       15.1 secs

     total energy              =     103.17372202 Ry
     Harris-Foulkes estimate   =   -5144.87804924 Ry
     estimated scf accuracy    <      23.11479175 Ry

     iteration # 99     ecut=    30.00 Ry     beta=0.70
     Davidson diagonalization with overlap
     ethr =  1.00E-02,  avg # of iterations =  8.0

     negative rho (up, down):  1.455E-01 0.000E+00

     total cpu time spent up to now is       15.2 secs

     total energy              =    -562.40604812 Ry
     Harris-Foulkes estimate   =    -380.78097483 Ry
     estimated scf accuracy    <      16.58071477 Ry

     iteration #100     ecut=    30.00 Ry     beta=0.70
     Davidson diagonalization with overlap
     ethr =  1.00E-02,  avg # of iterations =  6.0

     negative rho (up, down):  2.856E-01 0.000E+00

     total cpu time spent up to now is       15.3 secs

     total energy              =     -72.06289829 Ry
     Harris-Foulkes estimate   =  -11104.77186377 Ry
     estimated scf accuracy    <      14.28145444 Ry

     End of self-consistent calculation

     convergence NOT achieved after 100 iterations: stopping

     Writing output data file pwscf.save
 
     init_run     :      0.17s CPU      0.19s WALL (       1 calls)
     electrons    :     11.50s CPU     13.48s WALL (       5 calls)
     update_pot   :      0.83s CPU      1.04s WALL (       4 calls)
     forces       :      0.17s CPU      0.17s WALL (       4 calls)

     Called by init_run:
     wfcinit      :      0.01s CPU      0.02s WALL (       1 calls)
     potinit      :      0.05s CPU      0.05s WALL (       1 calls)

     Called by electrons:
     c_bands      :      6.38s CPU      6.68s WALL (     196 calls)
     sum_band     :      1.01s CPU      1.05s WALL (     196 calls)
     v_of_rho     :      2.40s CPU      2.48s WALL (     201 calls)
     mix_rho      :      1.43s CPU      2.63s WALL (     196 calls)

     Called by c_bands:
     init_us_2    :      0.03s CPU      0.04s WALL (     393 calls)
     cegterg      :      6.33s CPU      6.57s WALL (     196 calls)

     Called by sum_band:

     Called by *egterg:
     h_psi        :      5.34s CPU      5.52s WALL (    1091 calls)
     g_psi        :      0.06s CPU      0.06s WALL (     894 calls)
     cdiaghg      :      0.39s CPU      0.40s WALL (    1086 calls)

     Called by h_psi:
     h_psi:pot    :      5.31s CPU      5.49s WALL (    1091 calls)
     h_psi:calbec :      0.05s CPU      0.05s WALL (    1091 calls)
     vloc_psi     :      5.24s CPU      5.41s WALL (    1091 calls)
     add_vuspsi   :      0.01s CPU      0.01s WALL (    1091 calls)

     General routines
     calbec       :      0.06s CPU      0.07s WALL (    1110 calls)
     fft          :      1.39s CPU      1.43s WALL (    2219 calls)
     fftw         :      5.43s CPU      5.63s WALL (   13558 calls)
     davcio       :      0.23s CPU      1.04s WALL (    3488 calls)
 
     Parallel routines
     fft_scatter  :      1.97s CPU      2.12s WALL (   15777 calls)
 
     PWSCF        :    12.97s CPU        15.41s WALL

 
   This run was terminated on:  16:29:35  13Feb2018            

=------------------------------------------------------------------------------=
   JOB DONE.
=------------------------------------------------------------------------------=
