
     Program PWSCF v.6.0 (svn rev. 13079) starts on 13Feb2018 at 16:38:12 

     This program is part of the open-source Quantum ESPRESSO suite
     for quantum simulation of materials; please cite
         "P. Giannozzi et al., J. Phys.:Condens. Matter 21 395502 (2009);
          URL http://www.quantum-espresso.org", 
     in publications or presentations arising from this work. More details at
     http://www.quantum-espresso.org/quote

     Parallel version (MPI), running on    28 processors
     R & G space division:  proc/nbgrp/npool/nimage =      28
     Reading input from inputs/MD-H2O-round1/688.in

     Current dimensions of program PWSCF are:
     Max number of different atomic species (ntypx) = 10
     Max number of k-points (npk) =  40000
     Max angular momentum in pseudopotentials (lmaxx) =  3

     Subspace diagonalization in iterative solution of the eigenvalue problem:
     a serial algorithm will be used

 
     Parallelization info
     --------------------
     sticks:   dense  smooth     PW     G-vecs:    dense   smooth      PW
     Min         136     136     33                 6338     6338     787
     Max         137     137     34                 6341     6341     792
     Sum        3809    3809    949               177509   177509   22119
 


     bravais-lattice index     =            1
     lattice parameter (alat)  =      20.0000  a.u.
     unit-cell volume          =    8000.0000 (a.u.)^3
     number of atoms/cell      =            3
     number of atomic types    =            2
     number of electrons       =         8.00
     number of Kohn-Sham states=            8
     kinetic-energy cutoff     =      30.0000  Ry
     charge density cutoff     =     120.0000  Ry
     convergence threshold     =      1.0E-08
     mixing beta               =       0.7000
     number of iterations used =            8  plain     mixing
     Exchange-correlation      = BLYP ( 1  3  1  3 0 0)
     nstep                     =         5000


     celldm(1)=  20.000000  celldm(2)=   0.000000  celldm(3)=   0.000000
     celldm(4)=   0.000000  celldm(5)=   0.000000  celldm(6)=   0.000000

     crystal axes: (cart. coord. in units of alat)
               a(1) = (   1.000000   0.000000   0.000000 )  
               a(2) = (   0.000000   1.000000   0.000000 )  
               a(3) = (   0.000000   0.000000   1.000000 )  

     reciprocal axes: (cart. coord. in units 2 pi/alat)
               b(1) = (  1.000000  0.000000  0.000000 )  
               b(2) = (  0.000000  1.000000  0.000000 )  
               b(3) = (  0.000000  0.000000  1.000000 )  


     PseudoPot. # 1 for  H read from file:
     ./H.blyp-hgh.UPF
     MD5 check sum: c576e69559cde411e611be972c763230
     Pseudo is Norm-conserving, Zval =  1.0
     Generated in analytical, separable form
     Using radial grid of  929 points,  0 beta functions with: 

     PseudoPot. # 2 for  O read from file:
     ./O.blyp-hgh.UPF
     MD5 check sum: d0b7156309aa9befef28faac7bc56342
     Pseudo is Norm-conserving, Zval =  6.0
     Generated in analytical, separable form
     Using radial grid of 1095 points,  1 beta functions with: 
                l(1) =   0

     atomic species   valence    mass     pseudopotential
        H              1.00     1.01000      H( 1.00)
        O              6.00    16.00000      O( 1.00)

     No symmetry found



   Cartesian axes

     site n.     atom                  positions (alat units)
         1           O   tau(   1) = (   0.4339238   0.4832733   0.7178912  )
         2           H   tau(   2) = (   0.5650053   0.0887303   0.2270000  )
         3           H   tau(   3) = (   0.4917102   0.4778887   0.7745042  )

     number of k points=     1  Marzari-Vanderbilt smearing, width (Ry)=  0.0250
                       cart. coord. in units 2pi/alat
        k(    1) = (   0.0000000   0.0000000   0.0000000), wk =   2.0000000

     Dense  grid:   177509 G-vectors     FFT dimensions: (  72,  72,  72)

     Estimated max dynamical RAM per process >       6.09Mb

     Estimated total allocated dynamical RAM >     170.64Mb

     Initial potential from superposition of free atoms
     Check: negative starting charge=   -0.352371

     starting charge    7.99998, renormalised to    8.00000

     negative rho (up, down):  3.524E-01 0.000E+00
     Starting wfc are    6 randomized atomic wfcs +    2 random wfc

     total cpu time spent up to now is        0.4 secs

     per-process dynamical memory:    18.8 Mb

     Self-consistent Calculation

     iteration #  1     ecut=    30.00 Ry     beta=0.70
     Davidson diagonalization with overlap
     ethr =  1.00E-02,  avg # of iterations =  5.0

     negative rho (up, down):  9.479E-02 0.000E+00

     total cpu time spent up to now is        0.4 secs

     total energy              =     -31.62683379 Ry
     Harris-Foulkes estimate   =     -32.08303160 Ry
     estimated scf accuracy    <       0.46531420 Ry

     iteration #  2     ecut=    30.00 Ry     beta=0.70
     Davidson diagonalization with overlap
     ethr =  5.82E-03,  avg # of iterations =  2.0

     negative rho (up, down):  7.459E-02 0.000E+00

     total cpu time spent up to now is        0.5 secs

     total energy              =     -31.66993871 Ry
     Harris-Foulkes estimate   =     -32.24375714 Ry
     estimated scf accuracy    <       2.01503187 Ry

     iteration #  3     ecut=    30.00 Ry     beta=0.70
     Davidson diagonalization with overlap
     ethr =  5.82E-03,  avg # of iterations =  2.0

     negative rho (up, down):  2.800E-02 0.000E+00

     total cpu time spent up to now is        0.5 secs

     total energy              =     -31.69011949 Ry
     Harris-Foulkes estimate   =     -31.85927393 Ry
     estimated scf accuracy    <       1.09051656 Ry

     iteration #  4     ecut=    30.00 Ry     beta=0.70
     Davidson diagonalization with overlap
     ethr =  5.82E-03,  avg # of iterations =  1.0

     negative rho (up, down):  1.044E-02 0.000E+00

     total cpu time spent up to now is        0.6 secs

     total energy              =     -31.72977491 Ry
     Harris-Foulkes estimate   =     -31.94761099 Ry
     estimated scf accuracy    <       1.38400883 Ry

     iteration #  5     ecut=    30.00 Ry     beta=0.70
     Davidson diagonalization with overlap
     ethr =  5.82E-03,  avg # of iterations =  1.0

     negative rho (up, down):  1.041E-03 0.000E+00

     total cpu time spent up to now is        0.6 secs

     total energy              =     -31.85397456 Ry
     Harris-Foulkes estimate   =     -31.91740214 Ry
     estimated scf accuracy    <       0.96105277 Ry

     iteration #  6     ecut=    30.00 Ry     beta=0.70
     Davidson diagonalization with overlap
     ethr =  5.82E-03,  avg # of iterations =  1.0

     negative rho (up, down):  5.704E-04 0.000E+00

     total cpu time spent up to now is        0.7 secs

     total energy              =     -31.81994025 Ry
     Harris-Foulkes estimate   =     -31.85765918 Ry
     estimated scf accuracy    <       0.37978415 Ry

     iteration #  7     ecut=    30.00 Ry     beta=0.70
     Davidson diagonalization with overlap
     ethr =  4.75E-03,  avg # of iterations =  1.0

     negative rho (up, down):  1.832E-04 0.000E+00

     total cpu time spent up to now is        0.7 secs

     total energy              =     -31.86148407 Ry
     Harris-Foulkes estimate   =     -31.88631920 Ry
     estimated scf accuracy    <       1.65897981 Ry

     iteration #  8     ecut=    30.00 Ry     beta=0.70
     Davidson diagonalization with overlap
     ethr =  4.75E-03,  avg # of iterations =  1.0

     negative rho (up, down):  1.475E-07 0.000E+00

     total cpu time spent up to now is        0.8 secs

     total energy              =     -31.81436516 Ry
     Harris-Foulkes estimate   =     -31.86355273 Ry
     estimated scf accuracy    <       0.91874383 Ry

     iteration #  9     ecut=    30.00 Ry     beta=0.70
     Davidson diagonalization with overlap
     ethr =  4.75E-03,  avg # of iterations =  1.0

     negative rho (up, down):  1.708E-08 0.000E+00

     total cpu time spent up to now is        0.8 secs

     total energy              =     -31.84808370 Ry
     Harris-Foulkes estimate   =     -31.86372654 Ry
     estimated scf accuracy    <       0.61558046 Ry

     iteration # 10     ecut=    30.00 Ry     beta=0.70
     Davidson diagonalization with overlap
     ethr =  4.75E-03,  avg # of iterations =  1.0

     negative rho (up, down):  4.279E-08 0.000E+00

     total cpu time spent up to now is        0.9 secs

     total energy              =     -31.85223309 Ry
     Harris-Foulkes estimate   =     -31.85246048 Ry
     estimated scf accuracy    <       0.07561599 Ry

     iteration # 11     ecut=    30.00 Ry     beta=0.70
     Davidson diagonalization with overlap
     ethr =  9.45E-04,  avg # of iterations =  1.0

     negative rho (up, down):  4.518E-08 0.000E+00

     total cpu time spent up to now is        0.9 secs

     total energy              =     -31.85400877 Ry
     Harris-Foulkes estimate   =     -31.85224776 Ry
     estimated scf accuracy    <       0.06044009 Ry

     iteration # 12     ecut=    30.00 Ry     beta=0.70
     Davidson diagonalization with overlap
     ethr =  7.56E-04,  avg # of iterations =  1.0

     negative rho (up, down):  2.661E-08 0.000E+00

     total cpu time spent up to now is        1.0 secs

     total energy              =     -31.85607053 Ry
     Harris-Foulkes estimate   =     -31.85482788 Ry
     estimated scf accuracy    <       0.22436456 Ry

     iteration # 13     ecut=    30.00 Ry     beta=0.70
     Davidson diagonalization with overlap
     ethr =  7.56E-04,  avg # of iterations =  1.0

     negative rho (up, down):  3.852E-06 0.000E+00

     total cpu time spent up to now is        1.0 secs

     total energy              =     -31.84564752 Ry
     Harris-Foulkes estimate   =     -31.85616693 Ry
     estimated scf accuracy    <       0.29913296 Ry

     iteration # 14     ecut=    30.00 Ry     beta=0.70
     Davidson diagonalization with overlap
     ethr =  7.56E-04,  avg # of iterations =  1.0

     negative rho (up, down):  5.028E-08 0.000E+00

     total cpu time spent up to now is        1.0 secs

     total energy              =     -31.85125113 Ry
     Harris-Foulkes estimate   =     -31.85160783 Ry
     estimated scf accuracy    <       0.01513527 Ry

     iteration # 15     ecut=    30.00 Ry     beta=0.70
     Davidson diagonalization with overlap
     ethr =  1.89E-04,  avg # of iterations =  1.0

     negative rho (up, down):  2.110E-08 0.000E+00

     total cpu time spent up to now is        1.1 secs

     total energy              =     -31.85142292 Ry
     Harris-Foulkes estimate   =     -31.85142278 Ry
     estimated scf accuracy    <       0.00004062 Ry

     iteration # 16     ecut=    30.00 Ry     beta=0.70
     Davidson diagonalization with overlap
     ethr =  5.08E-07,  avg # of iterations = 11.0

     total cpu time spent up to now is        1.2 secs

     total energy              =     -31.85142292 Ry
     Harris-Foulkes estimate   =     -31.85142298 Ry
     estimated scf accuracy    <       0.00003578 Ry

     iteration # 17     ecut=    30.00 Ry     beta=0.70
     Davidson diagonalization with overlap
     ethr =  4.47E-07,  avg # of iterations =  1.0

     total cpu time spent up to now is        1.2 secs

     total energy              =     -31.85142326 Ry
     Harris-Foulkes estimate   =     -31.85142294 Ry
     estimated scf accuracy    <       0.00003505 Ry

     iteration # 18     ecut=    30.00 Ry     beta=0.70
     Davidson diagonalization with overlap
     ethr =  4.38E-07,  avg # of iterations =  1.0

     total cpu time spent up to now is        1.3 secs

     total energy              =     -31.85141978 Ry
     Harris-Foulkes estimate   =     -31.85142338 Ry
     estimated scf accuracy    <       0.00007634 Ry

     iteration # 19     ecut=    30.00 Ry     beta=0.70
     Davidson diagonalization with overlap
     ethr =  4.38E-07,  avg # of iterations =  1.0

     total cpu time spent up to now is        1.3 secs

     total energy              =     -31.85142090 Ry
     Harris-Foulkes estimate   =     -31.85142148 Ry
     estimated scf accuracy    <       0.00000705 Ry

     iteration # 20     ecut=    30.00 Ry     beta=0.70
     Davidson diagonalization with overlap
     ethr =  8.81E-08,  avg # of iterations =  1.0

     total cpu time spent up to now is        1.3 secs

     total energy              =     -31.85142099 Ry
     Harris-Foulkes estimate   =     -31.85142094 Ry
     estimated scf accuracy    <       0.00000324 Ry

     iteration # 21     ecut=    30.00 Ry     beta=0.70
     Davidson diagonalization with overlap
     ethr =  4.05E-08,  avg # of iterations =  1.0

     total cpu time spent up to now is        1.4 secs

     total energy              =     -31.85142104 Ry
     Harris-Foulkes estimate   =     -31.85142099 Ry
     estimated scf accuracy    <       0.00000177 Ry

     iteration # 22     ecut=    30.00 Ry     beta=0.70
     Davidson diagonalization with overlap
     ethr =  2.21E-08,  avg # of iterations =  1.0

     total cpu time spent up to now is        1.4 secs

     total energy              =     -31.85142100 Ry
     Harris-Foulkes estimate   =     -31.85142106 Ry
     estimated scf accuracy    <       0.00000535 Ry

     iteration # 23     ecut=    30.00 Ry     beta=0.70
     Davidson diagonalization with overlap
     ethr =  2.21E-08,  avg # of iterations =  1.0

     total cpu time spent up to now is        1.5 secs

     End of self-consistent calculation

          k = 0.0000 0.0000 0.0000 ( 22119 PWs)   bands (ev):

   -26.0855 -11.0615  -7.1586  -7.1582  -7.0146  -0.4630   0.5389   0.8031

     the Fermi energy is    -6.9865 ev

!    total energy              =     -31.85142110 Ry
     Harris-Foulkes estimate   =     -31.85142106 Ry
     estimated scf accuracy    <          7.2E-10 Ry

     convergence has been achieved in  23 iterations

     Forces acting on atoms (Ry/au):

     atom    1 type  2   force =    -0.40918200    0.03755143   -0.40262260
     atom    2 type  1   force =    -0.00054378    0.00038803    0.00049044
     atom    3 type  1   force =     0.40972578   -0.03793946    0.40213216

     Total force =     0.813616     Total SCF correction =     0.000101

     Molecular Dynamics Calculation

     Starting temperature  =  1000.00 K

     temperature is controlled by Andersen thermostat
     Collision frequency = 1.0000/timestep
     mass H                =     1.01
     mass O                =    16.00
     Time step             =   100.00 a.u.,  4.8378 femto-seconds

     Entering Dynamics:    iteration =     1
                           time      =   0.0048 pico-seconds


     Andersen thermostat:    3 collisions

ATOMIC_POSITIONS (bohr)
O        8.570829726   9.642947877  14.197815959
H       10.962903948   2.268000634   4.774588988
H       11.876692563   9.421118945  17.790258019


     kinetic energy (Ekin) =     0.02315124 Ry
     temperature           =  1218.42910824 K 
     Ekin + Etot (const)   =   -31.82826986 Ry

     Linear momentum :    0.0000000000    0.0000000000    0.0000000000

     Writing output data file pwscf.save
     Check: negative starting charge=   -0.352371
     NEW-OLD atomic charge density approx. for the potential
     Check: negative starting charge=   -0.343023

     negative rho (up, down):  3.860E-01 0.000E+00

     total cpu time spent up to now is        1.9 secs

     per-process dynamical memory:    20.4 Mb

     Self-consistent Calculation

     iteration #  1     ecut=    30.00 Ry     beta=0.70
     Davidson diagonalization with overlap
     c_bands:  1 eigenvalues not converged
     ethr =  1.00E-06,  avg # of iterations = 20.0

     negative rho (up, down):  9.068E-02 0.000E+00

     total cpu time spent up to now is        2.0 secs

     total energy              =     -28.99396718 Ry
     Harris-Foulkes estimate   =     -32.28776765 Ry
     estimated scf accuracy    <       2.31400822 Ry

     iteration #  2     ecut=    30.00 Ry     beta=0.70
     Davidson diagonalization with overlap
     ethr =  1.00E-02,  avg # of iterations =  4.0

     negative rho (up, down):  6.886E-02 0.000E+00

     total cpu time spent up to now is        2.1 secs

     total energy              =     -31.81616015 Ry
     Harris-Foulkes estimate   =     -35.04328456 Ry
     estimated scf accuracy    <       8.75790127 Ry

     iteration #  3     ecut=    30.00 Ry     beta=0.70
     Davidson diagonalization with overlap
     ethr =  1.00E-02,  avg # of iterations =  2.0

     negative rho (up, down):  5.864E-02 0.000E+00

     total cpu time spent up to now is        2.1 secs

     total energy              =     -31.63449266 Ry
     Harris-Foulkes estimate   =     -32.08832277 Ry
     estimated scf accuracy    <       2.95073221 Ry

     iteration #  4     ecut=    30.00 Ry     beta=0.70
     Davidson diagonalization with overlap
     ethr =  1.00E-02,  avg # of iterations =  1.0

     negative rho (up, down):  5.764E-02 0.000E+00

     total cpu time spent up to now is        2.2 secs

     total energy              =     -31.69738443 Ry
     Harris-Foulkes estimate   =     -31.72748400 Ry
     estimated scf accuracy    <       1.14782095 Ry

     iteration #  5     ecut=    30.00 Ry     beta=0.70
     Davidson diagonalization with overlap
     ethr =  1.00E-02,  avg # of iterations =  1.0

     negative rho (up, down):  3.672E-02 0.000E+00

     total cpu time spent up to now is        2.2 secs

     total energy              =     -31.40788540 Ry
     Harris-Foulkes estimate   =     -31.86796736 Ry
     estimated scf accuracy    <       2.75869295 Ry

     iteration #  6     ecut=    30.00 Ry     beta=0.70
     Davidson diagonalization with overlap
     ethr =  1.00E-02,  avg # of iterations =  4.0

     negative rho (up, down):  2.237E-02 0.000E+00

     total cpu time spent up to now is        2.3 secs

     total energy              =     -31.71952993 Ry
     Harris-Foulkes estimate   =     -31.72367776 Ry
     estimated scf accuracy    <       1.23465299 Ry

     iteration #  7     ecut=    30.00 Ry     beta=0.70
     Davidson diagonalization with overlap
     ethr =  1.00E-02,  avg # of iterations =  1.0

     negative rho (up, down):  1.802E-02 0.000E+00

     total cpu time spent up to now is        2.3 secs

     total energy              =     -31.46451226 Ry
     Harris-Foulkes estimate   =     -31.73172172 Ry
     estimated scf accuracy    <       1.29326745 Ry

     iteration #  8     ecut=    30.00 Ry     beta=0.70
     Davidson diagonalization with overlap
     ethr =  1.00E-02,  avg # of iterations =  1.0

     negative rho (up, down):  1.909E-03 0.000E+00

     total cpu time spent up to now is        2.4 secs

     total energy              =     -31.25890268 Ry
     Harris-Foulkes estimate   =     -31.58075870 Ry
     estimated scf accuracy    <       1.05700237 Ry

     iteration #  9     ecut=    30.00 Ry     beta=0.70
     Davidson diagonalization with overlap
     ethr =  1.00E-02,  avg # of iterations =  1.0

     negative rho (up, down):  6.994E-05 0.000E+00

     total cpu time spent up to now is        2.4 secs

     total energy              =     -32.07169254 Ry
     Harris-Foulkes estimate   =     -32.00172642 Ry
     estimated scf accuracy    <       1.85330599 Ry

     iteration # 10     ecut=    30.00 Ry     beta=0.70
     Davidson diagonalization with overlap
     ethr =  1.00E-02,  avg # of iterations =  1.0

     negative rho (up, down):  1.003E-05 0.000E+00

     total cpu time spent up to now is        2.5 secs

     total energy              =     -32.09530515 Ry
     Harris-Foulkes estimate   =     -32.07478481 Ry
     estimated scf accuracy    <       2.18767752 Ry

     iteration # 11     ecut=    30.00 Ry     beta=0.70
     Davidson diagonalization with overlap
     ethr =  1.00E-02,  avg # of iterations =  1.0

     negative rho (up, down):  9.233E-05 0.000E+00

     total cpu time spent up to now is        2.5 secs

     total energy              =     -31.76434061 Ry
     Harris-Foulkes estimate   =     -32.09551226 Ry
     estimated scf accuracy    <       2.25698805 Ry

     iteration # 12     ecut=    30.00 Ry     beta=0.70
     Davidson diagonalization with overlap
     ethr =  1.00E-02,  avg # of iterations =  1.0

     negative rho (up, down):  1.949E-04 0.000E+00

     total cpu time spent up to now is        2.6 secs

     total energy              =     -31.67445859 Ry
     Harris-Foulkes estimate   =     -31.77170117 Ry
     estimated scf accuracy    <       1.50692183 Ry

     iteration # 13     ecut=    30.00 Ry     beta=0.70
     Davidson diagonalization with overlap
     ethr =  1.00E-02,  avg # of iterations =  1.0

     negative rho (up, down):  3.466E-04 0.000E+00

     total cpu time spent up to now is        2.6 secs

     total energy              =     -31.65132231 Ry
     Harris-Foulkes estimate   =     -31.67559542 Ry
     estimated scf accuracy    <       1.37660927 Ry

     iteration # 14     ecut=    30.00 Ry     beta=0.70
     Davidson diagonalization with overlap
     ethr =  1.00E-02,  avg # of iterations =  1.0

     negative rho (up, down):  3.904E-04 0.000E+00

     total cpu time spent up to now is        2.7 secs

     total energy              =     -31.61338681 Ry
     Harris-Foulkes estimate   =     -31.65146830 Ry
     estimated scf accuracy    <       1.35598722 Ry

     iteration # 15     ecut=    30.00 Ry     beta=0.70
     Davidson diagonalization with overlap
     ethr =  1.00E-02,  avg # of iterations =  1.0

     negative rho (up, down):  4.445E-03 0.000E+00

     total cpu time spent up to now is        2.7 secs

     total energy              =     -32.01385662 Ry
     Harris-Foulkes estimate   =     -31.61321786 Ry
     estimated scf accuracy    <       1.50197099 Ry

     iteration # 16     ecut=    30.00 Ry     beta=0.70
     Davidson diagonalization with overlap
     ethr =  1.00E-02,  avg # of iterations =  1.0

     negative rho (up, down):  1.425E-02 0.000E+00

     total cpu time spent up to now is        2.8 secs

     total energy              =     -32.06748675 Ry
     Harris-Foulkes estimate   =     -32.00675751 Ry
     estimated scf accuracy    <       2.10475857 Ry

     iteration # 17     ecut=    30.00 Ry     beta=0.70
     Davidson diagonalization with overlap
     ethr =  1.00E-02,  avg # of iterations =  1.0

     negative rho (up, down):  3.299E-02 0.000E+00

     total cpu time spent up to now is        2.8 secs

     total energy              =     -30.81234141 Ry
     Harris-Foulkes estimate   =     -32.06849877 Ry
     estimated scf accuracy    <       2.23194745 Ry

     iteration # 18     ecut=    30.00 Ry     beta=0.70
     Davidson diagonalization with overlap
     ethr =  1.00E-02,  avg # of iterations =  2.0

     negative rho (up, down):  9.970E-04 0.000E+00

     total cpu time spent up to now is        2.9 secs

     total energy              =     -31.71345836 Ry
     Harris-Foulkes estimate   =     -32.60745877 Ry
     estimated scf accuracy    <       2.73065710 Ry

     iteration # 19     ecut=    30.00 Ry     beta=0.70
     Davidson diagonalization with overlap
     ethr =  1.00E-02,  avg # of iterations =  1.0

     negative rho (up, down):  1.365E-04 0.000E+00

     total cpu time spent up to now is        2.9 secs

     total energy              =     -31.47775560 Ry
     Harris-Foulkes estimate   =     -31.73164800 Ry
     estimated scf accuracy    <       1.19459421 Ry

     iteration # 20     ecut=    30.00 Ry     beta=0.70
     Davidson diagonalization with overlap
     ethr =  1.00E-02,  avg # of iterations =  1.0

     negative rho (up, down):  3.198E-06 0.000E+00

     total cpu time spent up to now is        3.0 secs

     total energy              =     -31.48676282 Ry
     Harris-Foulkes estimate   =     -31.62184592 Ry
     estimated scf accuracy    <       1.31196239 Ry

     iteration # 21     ecut=    30.00 Ry     beta=0.70
     Davidson diagonalization with overlap
     ethr =  1.00E-02,  avg # of iterations =  1.0

     negative rho (up, down):  1.030E-05 0.000E+00

     total cpu time spent up to now is        3.0 secs

     total energy              =     -31.56224503 Ry
     Harris-Foulkes estimate   =     -31.59769135 Ry
     estimated scf accuracy    <       0.93337007 Ry

     iteration # 22     ecut=    30.00 Ry     beta=0.70
     Davidson diagonalization with overlap
     ethr =  1.00E-02,  avg # of iterations =  1.0

     negative rho (up, down):  6.157E-06 0.000E+00

     total cpu time spent up to now is        3.1 secs

     total energy              =     -31.55261927 Ry
     Harris-Foulkes estimate   =     -31.56557406 Ry
     estimated scf accuracy    <       0.37900552 Ry

     iteration # 23     ecut=    30.00 Ry     beta=0.70
     Davidson diagonalization with overlap
     ethr =  4.74E-03,  avg # of iterations =  1.0

     negative rho (up, down):  2.238E-08 0.000E+00

     total cpu time spent up to now is        3.1 secs

     total energy              =     -31.55619986 Ry
     Harris-Foulkes estimate   =     -31.55947579 Ry
     estimated scf accuracy    <       0.01086633 Ry

     iteration # 24     ecut=    30.00 Ry     beta=0.70
     Davidson diagonalization with overlap
     ethr =  1.36E-04,  avg # of iterations =  3.0

     negative rho (up, down):  1.085E-07 0.000E+00

     total cpu time spent up to now is        3.2 secs

     total energy              =     -31.58295754 Ry
     Harris-Foulkes estimate   =     -31.57819681 Ry
     estimated scf accuracy    <       0.78778835 Ry

     iteration # 25     ecut=    30.00 Ry     beta=0.70
     Davidson diagonalization with overlap
     ethr =  1.36E-04,  avg # of iterations =  1.0

     negative rho (up, down):  8.596E-06 0.000E+00

     total cpu time spent up to now is        3.2 secs

     total energy              =     -31.52757221 Ry
     Harris-Foulkes estimate   =     -31.58306302 Ry
     estimated scf accuracy    <       0.85875283 Ry

     iteration # 26     ecut=    30.00 Ry     beta=0.70
     Davidson diagonalization with overlap
     ethr =  1.36E-04,  avg # of iterations =  1.0

     negative rho (up, down):  4.409E-08 0.000E+00

     total cpu time spent up to now is        3.3 secs

     total energy              =     -31.51469110 Ry
     Harris-Foulkes estimate   =     -31.56788718 Ry
     estimated scf accuracy    <       0.67103260 Ry

     iteration # 27     ecut=    30.00 Ry     beta=0.70
     Davidson diagonalization with overlap
     ethr =  1.36E-04,  avg # of iterations =  1.0

     total cpu time spent up to now is        3.3 secs

     total energy              =     -31.56510932 Ry
     Harris-Foulkes estimate   =     -31.58904377 Ry
     estimated scf accuracy    <       0.91668669 Ry

     iteration # 28     ecut=    30.00 Ry     beta=0.70
     Davidson diagonalization with overlap
     ethr =  1.36E-04,  avg # of iterations =  1.0

     total cpu time spent up to now is        3.4 secs

     total energy              =     -31.56262624 Ry
     Harris-Foulkes estimate   =     -31.56729493 Ry
     estimated scf accuracy    <       0.47554891 Ry

     iteration # 29     ecut=    30.00 Ry     beta=0.70
     Davidson diagonalization with overlap
     ethr =  1.36E-04,  avg # of iterations =  1.0

     total cpu time spent up to now is        3.4 secs

     total energy              =     -31.55545897 Ry
     Harris-Foulkes estimate   =     -31.56318654 Ry
     estimated scf accuracy    <       0.26308874 Ry

     iteration # 30     ecut=    30.00 Ry     beta=0.70
     Davidson diagonalization with overlap
     ethr =  1.36E-04,  avg # of iterations =  1.0

     total cpu time spent up to now is        3.5 secs

     total energy              =     -31.55918863 Ry
     Harris-Foulkes estimate   =     -31.55929736 Ry
     estimated scf accuracy    <       0.00078512 Ry

     iteration # 31     ecut=    30.00 Ry     beta=0.70
     Davidson diagonalization with overlap
     ethr =  9.81E-06,  avg # of iterations = 16.0

     total cpu time spent up to now is        3.6 secs

     total energy              =     -31.55905648 Ry
     Harris-Foulkes estimate   =     -31.55941873 Ry
     estimated scf accuracy    <       0.01118373 Ry

     iteration # 32     ecut=    30.00 Ry     beta=0.70
     Davidson diagonalization with overlap
     ethr =  9.81E-06,  avg # of iterations =  1.0

     total cpu time spent up to now is        3.6 secs

     total energy              =     -31.55924727 Ry
     Harris-Foulkes estimate   =     -31.55928916 Ry
     estimated scf accuracy    <       0.00101820 Ry

     iteration # 33     ecut=    30.00 Ry     beta=0.70
     Davidson diagonalization with overlap
     ethr =  9.81E-06,  avg # of iterations =  1.0

     total cpu time spent up to now is        3.6 secs

     total energy              =     -31.55926693 Ry
     Harris-Foulkes estimate   =     -31.55928131 Ry
     estimated scf accuracy    <       0.00039145 Ry

     iteration # 34     ecut=    30.00 Ry     beta=0.70
     Davidson diagonalization with overlap
     ethr =  4.89E-06,  avg # of iterations =  1.0

     total cpu time spent up to now is        3.7 secs

     total energy              =     -31.55927441 Ry
     Harris-Foulkes estimate   =     -31.55927888 Ry
     estimated scf accuracy    <       0.00012141 Ry

     iteration # 35     ecut=    30.00 Ry     beta=0.70
     Davidson diagonalization with overlap
     ethr =  1.52E-06,  avg # of iterations =  1.0

     total cpu time spent up to now is        3.7 secs

     total energy              =     -31.55927705 Ry
     Harris-Foulkes estimate   =     -31.55927788 Ry
     estimated scf accuracy    <       0.00003335 Ry

     iteration # 36     ecut=    30.00 Ry     beta=0.70
     Davidson diagonalization with overlap
     ethr =  4.17E-07,  avg # of iterations =  1.0

     total cpu time spent up to now is        3.8 secs

     total energy              =     -31.55927755 Ry
     Harris-Foulkes estimate   =     -31.55927750 Ry
     estimated scf accuracy    <       0.00000007 Ry

     iteration # 37     ecut=    30.00 Ry     beta=0.70
     Davidson diagonalization with overlap
     ethr =  9.15E-10,  avg # of iterations =  1.0

     total cpu time spent up to now is        3.8 secs

     total energy              =     -31.55927755 Ry
     Harris-Foulkes estimate   =     -31.55927758 Ry
     estimated scf accuracy    <       0.00000171 Ry

     iteration # 38     ecut=    30.00 Ry     beta=0.70
     Davidson diagonalization with overlap
     ethr =  9.15E-10,  avg # of iterations =  1.0

     total cpu time spent up to now is        3.9 secs

     total energy              =     -31.55927757 Ry
     Harris-Foulkes estimate   =     -31.55927756 Ry
     estimated scf accuracy    <       0.00000002 Ry

     iteration # 39     ecut=    30.00 Ry     beta=0.70
     Davidson diagonalization with overlap
     ethr =  3.02E-10,  avg # of iterations =  1.0

     total cpu time spent up to now is        3.9 secs

     End of self-consistent calculation

          k = 0.0000 0.0000 0.0000 ( 22119 PWs)   bands (ev):

   -23.6293  -7.7064  -6.9605  -6.9603  -6.8309  -6.4255  -0.1560   0.6849

     the Fermi energy is    -6.7976 ev

!    total energy              =     -31.55927757 Ry
     Harris-Foulkes estimate   =     -31.55927757 Ry
     estimated scf accuracy    <          3.5E-12 Ry

     convergence has been achieved in  39 iterations

     Forces acting on atoms (Ry/au):

     atom    1 type  2   force =     0.04292224   -0.00453461    0.04778600
     atom    2 type  1   force =     0.00026882    0.00075197   -0.00023202
     atom    3 type  1   force =    -0.04319105    0.00378264   -0.04755397

     Total force =     0.091040     Total SCF correction =     0.000001

     Entering Dynamics:    iteration =     2
                           time      =   0.0097 pico-seconds


     Andersen thermostat:    3 collisions

ATOMIC_POSITIONS (bohr)
O        8.627746662   9.600806104  14.236990980
H       10.787790823   2.660789347   4.972171887
H       11.150151260   9.695922685  16.972080729


     kinetic energy (Ekin) =     0.04235104 Ry
     temperature           =  2228.89752161 K 
     Ekin + Etot (const)   =   -31.51692653 Ry
     Message from routine dynamics:
     Total linear momentum <> 0

     Linear momentum :   -0.1859967482   -0.1475631861   -0.0522183012

     Writing output data file pwscf.save

     first order wave-functions extrapolation
     Check: negative starting charge=   -0.343023
     first order charge density extrapolation
     Check: negative starting charge=   -0.344828

     negative rho (up, down):  5.838E-01 0.000E+00

     total cpu time spent up to now is        4.4 secs

     per-process dynamical memory:    20.4 Mb

     Self-consistent Calculation

     iteration #  1     ecut=    30.00 Ry     beta=0.70
     Davidson diagonalization with overlap
     ethr =  1.00E-06,  avg # of iterations = 11.0

     negative rho (up, down):  1.167E-01 0.000E+00

     total cpu time spent up to now is        4.6 secs

     total energy              =      60.72707007 Ry
     Harris-Foulkes estimate   =    -244.41692777 Ry
     estimated scf accuracy    <      26.91603366 Ry

     iteration #  2     ecut=    30.00 Ry     beta=0.70
     Davidson diagonalization with overlap
     ethr =  1.00E-02,  avg # of iterations =  5.0

     negative rho (up, down):  7.460E-02 0.000E+00

     total cpu time spent up to now is        4.6 secs

     total energy              =     -34.72529811 Ry
     Harris-Foulkes estimate   =     -48.01848717 Ry
     estimated scf accuracy    <      25.92984144 Ry

     iteration #  3     ecut=    30.00 Ry     beta=0.70
     Davidson diagonalization with overlap
     ethr =  1.00E-02,  avg # of iterations =  4.0

     negative rho (up, down):  6.048E-02 0.000E+00

     total cpu time spent up to now is        4.7 secs

     total energy              =     -34.13462415 Ry
     Harris-Foulkes estimate   =     -37.28240796 Ry
     estimated scf accuracy    <       9.06604661 Ry

     iteration #  4     ecut=    30.00 Ry     beta=0.70
     Davidson diagonalization with overlap
     ethr =  1.00E-02,  avg # of iterations =  2.0

     negative rho (up, down):  4.027E-02 0.000E+00

     total cpu time spent up to now is        4.7 secs

     total energy              =     -32.32743534 Ry
     Harris-Foulkes estimate   =     -34.77051135 Ry
     estimated scf accuracy    <       7.11098956 Ry

     iteration #  5     ecut=    30.00 Ry     beta=0.70
     Davidson diagonalization with overlap
     ethr =  1.00E-02,  avg # of iterations =  1.0

     negative rho (up, down):  3.210E-02 0.000E+00

     total cpu time spent up to now is        4.8 secs

     total energy              =     -32.21061297 Ry
     Harris-Foulkes estimate   =     -32.81366706 Ry
     estimated scf accuracy    <       3.17753128 Ry

     iteration #  6     ecut=    30.00 Ry     beta=0.70
     Davidson diagonalization with overlap
     ethr =  1.00E-02,  avg # of iterations =  1.0

     negative rho (up, down):  3.050E-02 0.000E+00

     total cpu time spent up to now is        4.8 secs

     total energy              =     -32.11771707 Ry
     Harris-Foulkes estimate   =     -32.22319044 Ry
     estimated scf accuracy    <       2.40919143 Ry

     iteration #  7     ecut=    30.00 Ry     beta=0.70
     Davidson diagonalization with overlap
     ethr =  1.00E-02,  avg # of iterations =  1.0

     negative rho (up, down):  1.565E-02 0.000E+00

     total cpu time spent up to now is        4.9 secs

     total energy              =     -31.56739873 Ry
     Harris-Foulkes estimate   =     -32.13622423 Ry
     estimated scf accuracy    <       1.44045442 Ry

     iteration #  8     ecut=    30.00 Ry     beta=0.70
     Davidson diagonalization with overlap
     ethr =  1.00E-02,  avg # of iterations =  3.0

     negative rho (up, down):  1.941E-02 0.000E+00

     total cpu time spent up to now is        4.9 secs

     total energy              =     -31.78514517 Ry
     Harris-Foulkes estimate   =     -31.69267088 Ry
     estimated scf accuracy    <       0.47453320 Ry

     iteration #  9     ecut=    30.00 Ry     beta=0.70
     Davidson diagonalization with overlap
     ethr =  5.93E-03,  avg # of iterations =  1.0

     negative rho (up, down):  1.481E-02 0.000E+00

     total cpu time spent up to now is        5.0 secs

     total energy              =     -31.68805052 Ry
     Harris-Foulkes estimate   =     -31.84156353 Ry
     estimated scf accuracy    <       0.89688534 Ry

     iteration # 10     ecut=    30.00 Ry     beta=0.70
     Davidson diagonalization with overlap
     ethr =  5.93E-03,  avg # of iterations =  1.0

     negative rho (up, down):  4.293E-02 0.000E+00

     total cpu time spent up to now is        5.0 secs

     total energy              =     -32.51877081 Ry
     Harris-Foulkes estimate   =     -31.81687633 Ry
     estimated scf accuracy    <       1.35732797 Ry

     iteration # 11     ecut=    30.00 Ry     beta=0.70
     Davidson diagonalization with overlap
     ethr =  5.93E-03,  avg # of iterations =  2.0

     negative rho (up, down):  1.538E-02 0.000E+00

     total cpu time spent up to now is        5.1 secs

     total energy              =     -32.51296286 Ry
     Harris-Foulkes estimate   =     -32.67883111 Ry
     estimated scf accuracy    <       3.74355713 Ry

     iteration # 12     ecut=    30.00 Ry     beta=0.70
     Davidson diagonalization with overlap
     ethr =  5.93E-03,  avg # of iterations =  1.0

     negative rho (up, down):  5.804E-05 0.000E+00

     total cpu time spent up to now is        5.2 secs

     total energy              =     -32.26923487 Ry
     Harris-Foulkes estimate   =     -32.51892646 Ry
     estimated scf accuracy    <       3.57371367 Ry

     iteration # 13     ecut=    30.00 Ry     beta=0.70
     Davidson diagonalization with overlap
     ethr =  5.93E-03,  avg # of iterations =  1.0

     negative rho (up, down):  5.266E-02 0.000E+00

     total cpu time spent up to now is        5.2 secs

     total energy              =     -32.25022260 Ry
     Harris-Foulkes estimate   =     -32.29426035 Ry
     estimated scf accuracy    <       3.57336961 Ry

     iteration # 14     ecut=    30.00 Ry     beta=0.70
     Davidson diagonalization with overlap
     ethr =  5.93E-03,  avg # of iterations =  1.0

     negative rho (up, down):  1.649E-02 0.000E+00

     total cpu time spent up to now is        5.3 secs

     total energy              =     -32.15609785 Ry
     Harris-Foulkes estimate   =     -32.34064366 Ry
     estimated scf accuracy    <       2.36581280 Ry

     iteration # 15     ecut=    30.00 Ry     beta=0.70
     Davidson diagonalization with overlap
     ethr =  5.93E-03,  avg # of iterations =  1.0

     negative rho (up, down):  3.510E-02 0.000E+00

     total cpu time spent up to now is        5.3 secs

     total energy              =     -32.15839015 Ry
     Harris-Foulkes estimate   =     -32.16678665 Ry
     estimated scf accuracy    <       2.40233989 Ry

     iteration # 16     ecut=    30.00 Ry     beta=0.70
     Davidson diagonalization with overlap
     ethr =  5.93E-03,  avg # of iterations =  1.0

     negative rho (up, down):  5.649E-02 0.000E+00

     total cpu time spent up to now is        5.4 secs

     total energy              =     -32.29414845 Ry
     Harris-Foulkes estimate   =     -32.16347638 Ry
     estimated scf accuracy    <       2.12566744 Ry

     iteration # 17     ecut=    30.00 Ry     beta=0.70
     Davidson diagonalization with overlap
     ethr =  5.93E-03,  avg # of iterations =  1.0

     negative rho (up, down):  5.098E-02 0.000E+00

     total cpu time spent up to now is        5.4 secs

     total energy              =     -32.36475674 Ry
     Harris-Foulkes estimate   =     -32.30023382 Ry
     estimated scf accuracy    <       2.19479049 Ry

     iteration # 18     ecut=    30.00 Ry     beta=0.70
     Davidson diagonalization with overlap
     ethr =  5.93E-03,  avg # of iterations =  1.0

     negative rho (up, down):  1.285E-02 0.000E+00

     total cpu time spent up to now is        5.5 secs

     total energy              =     -30.72808817 Ry
     Harris-Foulkes estimate   =     -32.36570848 Ry
     estimated scf accuracy    <       2.34647568 Ry

     iteration # 19     ecut=    30.00 Ry     beta=0.70
     Davidson diagonalization with overlap
     ethr =  5.93E-03,  avg # of iterations =  3.0

     negative rho (up, down):  2.521E-04 0.000E+00

     total cpu time spent up to now is        5.5 secs

     total energy              =     -31.83329338 Ry
     Harris-Foulkes estimate   =     -33.16845653 Ry
     estimated scf accuracy    <       3.43211543 Ry

     iteration # 20     ecut=    30.00 Ry     beta=0.70
     Davidson diagonalization with overlap
     ethr =  5.93E-03,  avg # of iterations =  2.0

     negative rho (up, down):  2.339E-05 0.000E+00

     total cpu time spent up to now is        5.6 secs

     total energy              =     -31.62252132 Ry
     Harris-Foulkes estimate   =     -31.88168616 Ry
     estimated scf accuracy    <       1.20969776 Ry

     iteration # 21     ecut=    30.00 Ry     beta=0.70
     Davidson diagonalization with overlap
     ethr =  5.93E-03,  avg # of iterations =  1.0

     negative rho (up, down):  1.694E-05 0.000E+00

     total cpu time spent up to now is        5.6 secs

     total energy              =     -31.53662794 Ry
     Harris-Foulkes estimate   =     -31.69112855 Ry
     estimated scf accuracy    <       1.32407936 Ry

     iteration # 22     ecut=    30.00 Ry     beta=0.70
     Davidson diagonalization with overlap
     ethr =  5.93E-03,  avg # of iterations =  1.0

     negative rho (up, down):  4.983E-07 0.000E+00

     total cpu time spent up to now is        5.7 secs

     total energy              =     -31.64677879 Ry
     Harris-Foulkes estimate   =     -31.76311421 Ry
     estimated scf accuracy    <       1.06485145 Ry

     iteration # 23     ecut=    30.00 Ry     beta=0.70
     Davidson diagonalization with overlap
     ethr =  5.93E-03,  avg # of iterations =  1.0

     negative rho (up, down):  3.988E-07 0.000E+00

     total cpu time spent up to now is        5.7 secs

     total energy              =     -31.71608368 Ry
     Harris-Foulkes estimate   =     -31.67250595 Ry
     estimated scf accuracy    <       0.12887589 Ry

     iteration # 24     ecut=    30.00 Ry     beta=0.70
     Davidson diagonalization with overlap
     ethr =  1.61E-03,  avg # of iterations =  1.0

     total cpu time spent up to now is        5.8 secs

     total energy              =     -31.67837263 Ry
     Harris-Foulkes estimate   =     -31.79372581 Ry
     estimated scf accuracy    <       1.37144515 Ry

     iteration # 25     ecut=    30.00 Ry     beta=0.70
     Davidson diagonalization with overlap
     ethr =  1.61E-03,  avg # of iterations =  1.0

     total cpu time spent up to now is        5.8 secs

     total energy              =     -31.64186080 Ry
     Harris-Foulkes estimate   =     -31.67740464 Ry
     estimated scf accuracy    <       0.52269108 Ry

     iteration # 26     ecut=    30.00 Ry     beta=0.70
     Davidson diagonalization with overlap
     ethr =  1.61E-03,  avg # of iterations =  1.0

     total cpu time spent up to now is        5.9 secs

     total energy              =     -31.66631453 Ry
     Harris-Foulkes estimate   =     -31.68760883 Ry
     estimated scf accuracy    <       0.75717782 Ry

     iteration # 27     ecut=    30.00 Ry     beta=0.70
     Davidson diagonalization with overlap
     ethr =  1.61E-03,  avg # of iterations =  1.0

     total cpu time spent up to now is        5.9 secs

     total energy              =     -31.67012412 Ry
     Harris-Foulkes estimate   =     -31.67207956 Ry
     estimated scf accuracy    <       0.08434537 Ry

     iteration # 28     ecut=    30.00 Ry     beta=0.70
     Davidson diagonalization with overlap
     ethr =  1.05E-03,  avg # of iterations =  1.0

     total cpu time spent up to now is        6.0 secs

     total energy              =     -31.67086338 Ry
     Harris-Foulkes estimate   =     -31.67093540 Ry
     estimated scf accuracy    <       0.00178839 Ry

     iteration # 29     ecut=    30.00 Ry     beta=0.70
     Davidson diagonalization with overlap
     ethr =  2.24E-05,  avg # of iterations =  9.0

     total cpu time spent up to now is        6.0 secs

     total energy              =     -31.67088291 Ry
     Harris-Foulkes estimate   =     -31.67091593 Ry
     estimated scf accuracy    <       0.00047051 Ry

     iteration # 30     ecut=    30.00 Ry     beta=0.70
     Davidson diagonalization with overlap
     ethr =  5.88E-06,  avg # of iterations = 18.0

     total cpu time spent up to now is        6.1 secs

     total energy              =     -31.67086427 Ry
     Harris-Foulkes estimate   =     -31.67093198 Ry
     estimated scf accuracy    <       0.00162906 Ry

     iteration # 31     ecut=    30.00 Ry     beta=0.70
     Davidson diagonalization with overlap
     ethr =  5.88E-06,  avg # of iterations =  1.0

     total cpu time spent up to now is        6.1 secs

     total energy              =     -31.67089812 Ry
     Harris-Foulkes estimate   =     -31.67092041 Ry
     estimated scf accuracy    <       0.00068377 Ry

     iteration # 32     ecut=    30.00 Ry     beta=0.70
     Davidson diagonalization with overlap
     ethr =  5.88E-06,  avg # of iterations =  1.0

     total cpu time spent up to now is        6.2 secs

     total energy              =     -31.67090805 Ry
     Harris-Foulkes estimate   =     -31.67091265 Ry
     estimated scf accuracy    <       0.00006122 Ry

     iteration # 33     ecut=    30.00 Ry     beta=0.70
     Davidson diagonalization with overlap
     ethr =  7.65E-07,  avg # of iterations =  1.0

     total cpu time spent up to now is        6.2 secs

     total energy              =     -31.67090841 Ry
     Harris-Foulkes estimate   =     -31.67091493 Ry
     estimated scf accuracy    <       0.00024522 Ry

     iteration # 34     ecut=    30.00 Ry     beta=0.70
     Davidson diagonalization with overlap
     ethr =  7.65E-07,  avg # of iterations =  1.0

     total cpu time spent up to now is        6.3 secs

     total energy              =     -31.67091181 Ry
     Harris-Foulkes estimate   =     -31.67091178 Ry
     estimated scf accuracy    <       0.00000059 Ry

     iteration # 35     ecut=    30.00 Ry     beta=0.70
     Davidson diagonalization with overlap
     ethr =  7.34E-09,  avg # of iterations =  1.0

     total cpu time spent up to now is        6.3 secs

     total energy              =     -31.67091177 Ry
     Harris-Foulkes estimate   =     -31.67091181 Ry
     estimated scf accuracy    <       0.00000235 Ry

     iteration # 36     ecut=    30.00 Ry     beta=0.70
     Davidson diagonalization with overlap
     ethr =  7.34E-09,  avg # of iterations =  1.0

     total cpu time spent up to now is        6.4 secs

     End of self-consistent calculation

          k = 0.0000 0.0000 0.0000 ( 22119 PWs)   bands (ev):

   -23.5950  -8.3844  -6.9144  -6.9138  -6.7795  -5.1862  -0.1201   0.7332

     the Fermi energy is    -6.7454 ev

!    total energy              =     -31.67091181 Ry
     Harris-Foulkes estimate   =     -31.67091180 Ry
     estimated scf accuracy    <          5.0E-10 Ry

     convergence has been achieved in  36 iterations

     Forces acting on atoms (Ry/au):

     atom    1 type  2   force =     0.09232558    0.00289881    0.10056860
     atom    2 type  1   force =    -0.00010811    0.00024575   -0.00013671
     atom    3 type  1   force =    -0.09221747   -0.00314457   -0.10043189

     Total force =     0.192995     Total SCF correction =     0.000022

     Entering Dynamics:    iteration =     3
                           time      =   0.0145 pico-seconds


     Andersen thermostat:    3 collisions

ATOMIC_POSITIONS (bohr)
O        8.689297717   9.630753624  14.323921003
H       10.736845110   1.899428051   4.965122363
H       10.226030751   9.982867816  15.602020969


     kinetic energy (Ekin) =     0.07399520 Ry
     temperature           =  3894.30135096 K 
     Ekin + Etot (const)   =   -31.59691661 Ry
     Message from routine dynamics:
     Total linear momentum <> 0

     Linear momentum :   -0.0540749017    0.0117115570    0.0111559319

     Writing output data file pwscf.save

     second order wave-functions extrapolation
     Check: negative starting charge=   -0.344828
     second order charge density extrapolation
     Check: negative starting charge=   -0.350937

     negative rho (up, down):  3.128E-01 0.000E+00

     total cpu time spent up to now is        6.9 secs

     per-process dynamical memory:    20.4 Mb

     Self-consistent Calculation

     iteration #  1     ecut=    30.00 Ry     beta=0.70
     Davidson diagonalization with overlap
     ethr =  1.00E-06,  avg # of iterations = 11.0

     negative rho (up, down):  4.878E-02 0.000E+00

     total cpu time spent up to now is        7.0 secs

     total energy              =      15.55383812 Ry
     Harris-Foulkes estimate   =    -104.03214881 Ry
     estimated scf accuracy    <      13.19917659 Ry

     iteration #  2     ecut=    30.00 Ry     beta=0.70
     Davidson diagonalization with overlap
     ethr =  1.00E-02,  avg # of iterations =  4.0

     negative rho (up, down):  3.200E-02 0.000E+00

     total cpu time spent up to now is        7.1 secs

     total energy              =     -33.50972341 Ry
     Harris-Foulkes estimate   =     -41.11913171 Ry
     estimated scf accuracy    <      15.63960564 Ry

     iteration #  3     ecut=    30.00 Ry     beta=0.70
     Davidson diagonalization with overlap
     ethr =  1.00E-02,  avg # of iterations =  2.0

     negative rho (up, down):  2.055E-02 0.000E+00

     total cpu time spent up to now is        7.1 secs

     total energy              =     -32.40201072 Ry
     Harris-Foulkes estimate   =     -34.11302587 Ry
     estimated scf accuracy    <       4.49488088 Ry

     iteration #  4     ecut=    30.00 Ry     beta=0.70
     Davidson diagonalization with overlap
     ethr =  1.00E-02,  avg # of iterations =  3.0

     negative rho (up, down):  6.172E-03 0.000E+00

     total cpu time spent up to now is        7.2 secs

     total energy              =     -31.42526903 Ry
     Harris-Foulkes estimate   =     -32.43760961 Ry
     estimated scf accuracy    <       1.91099015 Ry

     iteration #  5     ecut=    30.00 Ry     beta=0.70
     Davidson diagonalization with overlap
     ethr =  1.00E-02,  avg # of iterations =  2.0

     negative rho (up, down):  1.081E-02 0.000E+00

     total cpu time spent up to now is        7.2 secs

     total energy              =     -32.10966228 Ry
     Harris-Foulkes estimate   =     -32.82913666 Ry
     estimated scf accuracy    <       2.83836164 Ry

     iteration #  6     ecut=    30.00 Ry     beta=0.70
     Davidson diagonalization with overlap
     ethr =  1.00E-02,  avg # of iterations =  2.0

     negative rho (up, down):  1.063E-02 0.000E+00

     total cpu time spent up to now is        7.3 secs

     total energy              =     -32.19908968 Ry
     Harris-Foulkes estimate   =     -32.17327164 Ry
     estimated scf accuracy    <       1.75132721 Ry

     iteration #  7     ecut=    30.00 Ry     beta=0.70
     Davidson diagonalization with overlap
     ethr =  1.00E-02,  avg # of iterations =  1.0

     negative rho (up, down):  1.048E-02 0.000E+00

     total cpu time spent up to now is        7.3 secs

     total energy              =     -32.16599108 Ry
     Harris-Foulkes estimate   =     -32.20210558 Ry
     estimated scf accuracy    <       1.77937647 Ry

     iteration #  8     ecut=    30.00 Ry     beta=0.70
     Davidson diagonalization with overlap
     ethr =  1.00E-02,  avg # of iterations =  1.0

     negative rho (up, down):  9.894E-03 0.000E+00

     total cpu time spent up to now is        7.4 secs

     total energy              =     -32.17204266 Ry
     Harris-Foulkes estimate   =     -32.16743460 Ry
     estimated scf accuracy    <       1.69891933 Ry

     iteration #  9     ecut=    30.00 Ry     beta=0.70
     Davidson diagonalization with overlap
     ethr =  1.00E-02,  avg # of iterations =  1.0

     negative rho (up, down):  9.154E-03 0.000E+00

     total cpu time spent up to now is        7.4 secs

     total energy              =     -32.04618778 Ry
     Harris-Foulkes estimate   =     -32.17228129 Ry
     estimated scf accuracy    <       1.69395171 Ry

     iteration # 10     ecut=    30.00 Ry     beta=0.70
     Davidson diagonalization with overlap
     ethr =  1.00E-02,  avg # of iterations =  1.0

     negative rho (up, down):  6.327E-01 0.000E+00

     total cpu time spent up to now is        7.5 secs

     total energy              =     -33.65755650 Ry
     Harris-Foulkes estimate   =     -32.04764552 Ry
     estimated scf accuracy    <       1.50498311 Ry

     iteration # 11     ecut=    30.00 Ry     beta=0.70
     Davidson diagonalization with overlap
     ethr =  1.00E-02,  avg # of iterations =  5.0

     negative rho (up, down):  2.248E-02 0.000E+00

     total cpu time spent up to now is        7.6 secs

     total energy              =      18.31452022 Ry
     Harris-Foulkes estimate   =    -160.94800784 Ry
     estimated scf accuracy    <      36.02800135 Ry

     iteration # 12     ecut=    30.00 Ry     beta=0.70
     Davidson diagonalization with overlap
     ethr =  1.00E-02,  avg # of iterations = 12.0

     negative rho (up, down):  2.125E+00 0.000E+00

     total cpu time spent up to now is        7.7 secs

     total energy              =     -28.72917304 Ry
     Harris-Foulkes estimate   =     -37.62773227 Ry
     estimated scf accuracy    <      14.88838969 Ry

     iteration # 13     ecut=    30.00 Ry     beta=0.70
     Davidson diagonalization with overlap
     ethr =  1.00E-02,  avg # of iterations =  8.0

     negative rho (up, down):  4.988E-01 0.000E+00

     total cpu time spent up to now is        7.7 secs

     total energy              =      57.58612609 Ry
     Harris-Foulkes estimate   =    -663.11887869 Ry
     estimated scf accuracy    <      53.54884244 Ry

     iteration # 14     ecut=    30.00 Ry     beta=0.70
     Davidson diagonalization with overlap
     ethr =  1.00E-02,  avg # of iterations =  7.0

     negative rho (up, down):  4.123E-01 0.000E+00

     total cpu time spent up to now is        7.8 secs

     total energy              =     -35.30404155 Ry
     Harris-Foulkes estimate   =     -71.29356345 Ry
     estimated scf accuracy    <      20.95963676 Ry

     iteration # 15     ecut=    30.00 Ry     beta=0.70
     Davidson diagonalization with overlap
     ethr =  1.00E-02,  avg # of iterations =  7.0

     negative rho (up, down):  8.210E-02 0.000E+00

     total cpu time spent up to now is        7.9 secs

     total energy              =    -225.13197738 Ry
     Harris-Foulkes estimate   =    -288.83167164 Ry
     estimated scf accuracy    <      62.47034692 Ry

     iteration # 16     ecut=    30.00 Ry     beta=0.70
     Davidson diagonalization with overlap
     ethr =  1.00E-02,  avg # of iterations =  5.0

     negative rho (up, down):  5.442E-02 0.000E+00

     total cpu time spent up to now is        8.0 secs

     total energy              =     333.29047664 Ry
     Harris-Foulkes estimate   =   -1014.68530249 Ry
     estimated scf accuracy    <      36.16794111 Ry

     iteration # 17     ecut=    30.00 Ry     beta=0.70
     Davidson diagonalization with overlap
     ethr =  1.00E-02,  avg # of iterations =  8.0

     negative rho (up, down):  1.178E-01 0.000E+00

     total cpu time spent up to now is        8.1 secs

     total energy              =     -22.09801505 Ry
     Harris-Foulkes estimate   =    -352.45534544 Ry
     estimated scf accuracy    <      43.34893799 Ry

     iteration # 18     ecut=    30.00 Ry     beta=0.70
     Davidson diagonalization with overlap
     ethr =  1.00E-02,  avg # of iterations =  5.0

     negative rho (up, down):  1.072E-01 0.000E+00

     total cpu time spent up to now is        8.1 secs

     total energy              =      23.01034719 Ry
     Harris-Foulkes estimate   =   -1007.77046797 Ry
     estimated scf accuracy    <      41.60564428 Ry

     iteration # 19     ecut=    30.00 Ry     beta=0.70
     Davidson diagonalization with overlap
     ethr =  1.00E-02,  avg # of iterations =  8.0

     negative rho (up, down):  1.060E+00 0.000E+00

     total cpu time spent up to now is        8.2 secs

     total energy              =    -122.18136948 Ry
     Harris-Foulkes estimate   =    -225.18769532 Ry
     estimated scf accuracy    <      33.65214639 Ry

     iteration # 20     ecut=    30.00 Ry     beta=0.70
     Davidson diagonalization with overlap
     ethr =  1.00E-02,  avg # of iterations =  6.0

     negative rho (up, down):  1.432E+00 0.000E+00

     total cpu time spent up to now is        8.3 secs

     total energy              =      16.40977551 Ry
     Harris-Foulkes estimate   =   -4212.79487217 Ry
     estimated scf accuracy    <      36.04193554 Ry

     iteration # 21     ecut=    30.00 Ry     beta=0.70
     Davidson diagonalization with overlap
     ethr =  1.00E-02,  avg # of iterations =  6.0

     negative rho (up, down):  1.636E+00 0.000E+00

     total cpu time spent up to now is        8.4 secs

     total energy              =    -369.54882649 Ry
     Harris-Foulkes estimate   =   -3430.79766407 Ry
     estimated scf accuracy    <      35.07197300 Ry

     iteration # 22     ecut=    30.00 Ry     beta=0.70
     Davidson diagonalization with overlap
     ethr =  1.00E-02,  avg # of iterations =  7.0

     negative rho (up, down):  2.561E+00 0.000E+00

     total cpu time spent up to now is        8.5 secs

     total energy              =   15610.92424097 Ry
     Harris-Foulkes estimate   =   -4143.91406579 Ry
     estimated scf accuracy    <      45.06307127 Ry

     iteration # 23     ecut=    30.00 Ry     beta=0.70
     Davidson diagonalization with overlap
     ethr =  1.00E-02,  avg # of iterations =  9.0

     negative rho (up, down):  1.371E+00 0.000E+00

     total cpu time spent up to now is        8.6 secs

     total energy              =    6047.14804996 Ry
     Harris-Foulkes estimate   =   -1809.26000655 Ry
     estimated scf accuracy    <      36.24190710 Ry

     iteration # 24     ecut=    30.00 Ry     beta=0.70
     Davidson diagonalization with overlap
     ethr =  1.00E-02,  avg # of iterations =  8.0

     negative rho (up, down):  1.075E+00 0.000E+00

     total cpu time spent up to now is        8.7 secs

     total energy              =      29.61808208 Ry
     Harris-Foulkes estimate   =   -8008.13843345 Ry
     estimated scf accuracy    <      17.55701297 Ry

     iteration # 25     ecut=    30.00 Ry     beta=0.70
     Davidson diagonalization with overlap
     ethr =  1.00E-02,  avg # of iterations =  8.0

     negative rho (up, down):  1.159E+00 0.000E+00

     total cpu time spent up to now is        8.8 secs

     total energy              =    -191.97754125 Ry
     Harris-Foulkes estimate   =   -7956.28830933 Ry
     estimated scf accuracy    <      31.26685457 Ry

     iteration # 26     ecut=    30.00 Ry     beta=0.70
     Davidson diagonalization with overlap
     ethr =  1.00E-02,  avg # of iterations =  8.0

     negative rho (up, down):  3.380E-01 0.000E+00

     total cpu time spent up to now is        8.9 secs

     total energy              =      19.68221964 Ry
     Harris-Foulkes estimate   =   -4233.92648470 Ry
     estimated scf accuracy    <      31.38881913 Ry

     iteration # 27     ecut=    30.00 Ry     beta=0.70
     Davidson diagonalization with overlap
     ethr =  1.00E-02,  avg # of iterations =  7.0

     negative rho (up, down):  1.903E-01 0.000E+00

     total cpu time spent up to now is        8.9 secs

     total energy              =    -617.73606906 Ry
     Harris-Foulkes estimate   =   -1503.76426887 Ry
     estimated scf accuracy    <      25.28445914 Ry

     iteration # 28     ecut=    30.00 Ry     beta=0.70
     Davidson diagonalization with overlap
     ethr =  1.00E-02,  avg # of iterations =  6.0

     negative rho (up, down):  1.614E-01 0.000E+00

     total cpu time spent up to now is        9.1 secs

     total energy              =      40.31223493 Ry
     Harris-Foulkes estimate   =   -3057.88236551 Ry
     estimated scf accuracy    <      25.70632588 Ry

     iteration # 29     ecut=    30.00 Ry     beta=0.70
     Davidson diagonalization with overlap
     ethr =  1.00E-02,  avg # of iterations =  7.0

     negative rho (up, down):  1.042E-01 0.000E+00

     total cpu time spent up to now is        9.2 secs

     total energy              =    -433.94531441 Ry
     Harris-Foulkes estimate   =   -1142.11403033 Ry
     estimated scf accuracy    <      21.23136487 Ry

     iteration # 30     ecut=    30.00 Ry     beta=0.70
     Davidson diagonalization with overlap
     ethr =  1.00E-02,  avg # of iterations =  9.0

     negative rho (up, down):  8.984E-02 0.000E+00

     total cpu time spent up to now is        9.3 secs

     total energy              =      98.50812562 Ry
     Harris-Foulkes estimate   =   -1950.80633685 Ry
     estimated scf accuracy    <      25.07983626 Ry

     iteration # 31     ecut=    30.00 Ry     beta=0.70
     Davidson diagonalization with overlap
     ethr =  1.00E-02,  avg # of iterations =  6.0

     negative rho (up, down):  6.222E-03 0.000E+00

     total cpu time spent up to now is        9.4 secs

     total energy              =      20.79528505 Ry
     Harris-Foulkes estimate   =    -698.46481556 Ry
     estimated scf accuracy    <      22.13279203 Ry

     iteration # 32     ecut=    30.00 Ry     beta=0.70
     Davidson diagonalization with overlap
     ethr =  1.00E-02,  avg # of iterations =  5.0

     negative rho (up, down):  8.460E-03 0.000E+00

     total cpu time spent up to now is        9.4 secs

     total energy              =    -283.65955277 Ry
     Harris-Foulkes estimate   =     -73.22424318 Ry
     estimated scf accuracy    <      31.08436604 Ry

     iteration # 33     ecut=    30.00 Ry     beta=0.70
     Davidson diagonalization with overlap
     ethr =  1.00E-02,  avg # of iterations =  4.0

     negative rho (up, down):  2.349E-02 0.000E+00

     total cpu time spent up to now is        9.5 secs

     total energy              =      63.24804422 Ry
     Harris-Foulkes estimate   =   -1652.17493907 Ry
     estimated scf accuracy    <      18.62613507 Ry

     iteration # 34     ecut=    30.00 Ry     beta=0.70
     Davidson diagonalization with overlap
     ethr =  1.00E-02,  avg # of iterations =  5.0

     negative rho (up, down):  4.022E-02 0.000E+00

     total cpu time spent up to now is        9.6 secs

     total energy              =     -65.60350874 Ry
     Harris-Foulkes estimate   =    -946.13331417 Ry
     estimated scf accuracy    <      23.48692990 Ry

     iteration # 35     ecut=    30.00 Ry     beta=0.70
     Davidson diagonalization with overlap
     ethr =  1.00E-02,  avg # of iterations =  5.0

     negative rho (up, down):  1.116E-01 0.000E+00

     total cpu time spent up to now is        9.6 secs

     total energy              =      51.42107667 Ry
     Harris-Foulkes estimate   =   -1714.27496362 Ry
     estimated scf accuracy    <      25.50636972 Ry

     iteration # 36     ecut=    30.00 Ry     beta=0.70
     Davidson diagonalization with overlap
     ethr =  1.00E-02,  avg # of iterations =  6.0

     negative rho (up, down):  1.885E-01 0.000E+00

     total cpu time spent up to now is        9.7 secs

     total energy              =    -155.12458256 Ry
     Harris-Foulkes estimate   =    -121.23994340 Ry
     estimated scf accuracy    <      44.58214225 Ry

     iteration # 37     ecut=    30.00 Ry     beta=0.70
     Davidson diagonalization with overlap
     ethr =  1.00E-02,  avg # of iterations =  7.0

     negative rho (up, down):  2.568E-01 0.000E+00

     total cpu time spent up to now is        9.8 secs

     total energy              =       8.75305007 Ry
     Harris-Foulkes estimate   =    -931.90187309 Ry
     estimated scf accuracy    <      56.83053006 Ry

     iteration # 38     ecut=    30.00 Ry     beta=0.70
     Davidson diagonalization with overlap
     ethr =  1.00E-02,  avg # of iterations =  9.0

     negative rho (up, down):  3.951E-01 0.000E+00

     total cpu time spent up to now is        9.9 secs

     total energy              =    -125.72821512 Ry
     Harris-Foulkes estimate   =    -865.31826820 Ry
     estimated scf accuracy    <      53.17867343 Ry

     iteration # 39     ecut=    30.00 Ry     beta=0.70
     Davidson diagonalization with overlap
     ethr =  1.00E-02,  avg # of iterations =  8.0

     negative rho (up, down):  5.811E-01 0.000E+00

     total cpu time spent up to now is       10.0 secs

     total energy              =      42.07222811 Ry
     Harris-Foulkes estimate   =   -6607.62455400 Ry
     estimated scf accuracy    <      33.04542946 Ry

     iteration # 40     ecut=    30.00 Ry     beta=0.70
     Davidson diagonalization with overlap
     ethr =  1.00E-02,  avg # of iterations =  7.0

     negative rho (up, down):  1.116E+00 0.000E+00

     total cpu time spent up to now is       10.1 secs

     total energy              =     -66.44078256 Ry
     Harris-Foulkes estimate   =    -274.14394587 Ry
     estimated scf accuracy    <      56.68237878 Ry

     iteration # 41     ecut=    30.00 Ry     beta=0.70
     Davidson diagonalization with overlap
     ethr =  1.00E-02,  avg # of iterations =  7.0

     negative rho (up, down):  2.999E-02 0.000E+00

     total cpu time spent up to now is       10.2 secs

     total energy              =      71.76975299 Ry
     Harris-Foulkes estimate   =   -1096.64614824 Ry
     estimated scf accuracy    <      38.76994874 Ry

     iteration # 42     ecut=    30.00 Ry     beta=0.70
     Davidson diagonalization with overlap
     ethr =  1.00E-02,  avg # of iterations =  9.0

     negative rho (up, down):  7.293E-01 0.000E+00

     total cpu time spent up to now is       10.3 secs

     total energy              =    -194.16320817 Ry
     Harris-Foulkes estimate   =    -897.48315601 Ry
     estimated scf accuracy    <      38.27391487 Ry

     iteration # 43     ecut=    30.00 Ry     beta=0.70
     Davidson diagonalization with overlap
     ethr =  1.00E-02,  avg # of iterations =  8.0

     negative rho (up, down):  1.482E+00 0.000E+00

     total cpu time spent up to now is       10.4 secs

     total energy              =      47.69805030 Ry
     Harris-Foulkes estimate   =   -2599.55008965 Ry
     estimated scf accuracy    <      37.89907977 Ry

     iteration # 44     ecut=    30.00 Ry     beta=0.70
     Davidson diagonalization with overlap
     ethr =  1.00E-02,  avg # of iterations =  8.0

     negative rho (up, down):  1.696E+00 0.000E+00

     total cpu time spent up to now is       10.5 secs

     total energy              =      74.29665168 Ry
     Harris-Foulkes estimate   =   -3548.53075136 Ry
     estimated scf accuracy    <      25.37042307 Ry

     iteration # 45     ecut=    30.00 Ry     beta=0.70
     Davidson diagonalization with overlap
     ethr =  1.00E-02,  avg # of iterations =  8.0

     negative rho (up, down):  8.830E-01 0.000E+00

     total cpu time spent up to now is       10.6 secs

     total energy              =    -771.94164124 Ry
     Harris-Foulkes estimate   =   -1666.59150676 Ry
     estimated scf accuracy    <      22.01617993 Ry

     iteration # 46     ecut=    30.00 Ry     beta=0.70
     Davidson diagonalization with overlap
     ethr =  1.00E-02,  avg # of iterations =  8.0

     negative rho (up, down):  5.101E-01 0.000E+00

     total cpu time spent up to now is       10.7 secs

     total energy              =      74.37478142 Ry
     Harris-Foulkes estimate   =  -14507.59395069 Ry
     estimated scf accuracy    <      33.49342639 Ry

     iteration # 47     ecut=    30.00 Ry     beta=0.70
     Davidson diagonalization with overlap
     ethr =  1.00E-02,  avg # of iterations =  7.0

     negative rho (up, down):  5.607E-01 0.000E+00

     total cpu time spent up to now is       10.7 secs

     total energy              =    -111.92330787 Ry
     Harris-Foulkes estimate   =    -655.50463327 Ry
     estimated scf accuracy    <      39.25124072 Ry

     iteration # 48     ecut=    30.00 Ry     beta=0.70
     Davidson diagonalization with overlap
     ethr =  1.00E-02,  avg # of iterations =  5.0

     negative rho (up, down):  4.264E-01 0.000E+00

     total cpu time spent up to now is       10.8 secs

     total energy              =      56.54886302 Ry
     Harris-Foulkes estimate   =   -2581.30086094 Ry
     estimated scf accuracy    <      24.52802738 Ry

     iteration # 49     ecut=    30.00 Ry     beta=0.70
     Davidson diagonalization with overlap
     ethr =  1.00E-02,  avg # of iterations =  6.0

     negative rho (up, down):  1.779E-01 0.000E+00

     total cpu time spent up to now is       10.9 secs

     total energy              =    -485.29025472 Ry
     Harris-Foulkes estimate   =    -419.97935536 Ry
     estimated scf accuracy    <      21.16051295 Ry

     iteration # 50     ecut=    30.00 Ry     beta=0.70
     Davidson diagonalization with overlap
     ethr =  1.00E-02,  avg # of iterations =  6.0

     negative rho (up, down):  1.074E-01 0.000E+00

     total cpu time spent up to now is       11.0 secs

     total energy              =      35.08804833 Ry
     Harris-Foulkes estimate   =   -4962.32302769 Ry
     estimated scf accuracy    <      28.88348597 Ry

     iteration # 51     ecut=    30.00 Ry     beta=0.70
     Davidson diagonalization with overlap
     ethr =  1.00E-02,  avg # of iterations =  7.0

     negative rho (up, down):  1.180E-01 0.000E+00

     total cpu time spent up to now is       11.1 secs

     total energy              =      62.63639726 Ry
     Harris-Foulkes estimate   =    -756.91207682 Ry
     estimated scf accuracy    <      23.63951297 Ry

     iteration # 52     ecut=    30.00 Ry     beta=0.70
     Davidson diagonalization with overlap
     ethr =  1.00E-02,  avg # of iterations =  7.0

     negative rho (up, down):  8.390E-02 0.000E+00

     total cpu time spent up to now is       11.2 secs

     total energy              =    -423.14539088 Ry
     Harris-Foulkes estimate   =   -1603.69140025 Ry
     estimated scf accuracy    <      18.45226610 Ry

     iteration # 53     ecut=    30.00 Ry     beta=0.70
     Davidson diagonalization with overlap
     ethr =  1.00E-02,  avg # of iterations =  6.0

     negative rho (up, down):  1.377E-01 0.000E+00

     total cpu time spent up to now is       11.3 secs

     total energy              =      81.65878562 Ry
     Harris-Foulkes estimate   =   -8230.36005383 Ry
     estimated scf accuracy    <      18.24793731 Ry

     iteration # 54     ecut=    30.00 Ry     beta=0.70
     Davidson diagonalization with overlap
     ethr =  1.00E-02,  avg # of iterations =  7.0

     negative rho (up, down):  1.477E-01 0.000E+00

     total cpu time spent up to now is       11.3 secs

     total energy              =     -24.26125210 Ry
     Harris-Foulkes estimate   =    -227.38423179 Ry
     estimated scf accuracy    <      16.45865661 Ry

     iteration # 55     ecut=    30.00 Ry     beta=0.70
     Davidson diagonalization with overlap
     ethr =  1.00E-02,  avg # of iterations =  7.0

     negative rho (up, down):  9.227E-02 0.000E+00

     total cpu time spent up to now is       11.4 secs

     total energy              =      -3.03490196 Ry
     Harris-Foulkes estimate   =   -2121.95584855 Ry
     estimated scf accuracy    <      16.48584287 Ry

     iteration # 56     ecut=    30.00 Ry     beta=0.70
     Davidson diagonalization with overlap
     ethr =  1.00E-02,  avg # of iterations = 11.0

     negative rho (up, down):  4.752E-03 0.000E+00

     total cpu time spent up to now is       11.5 secs

     total energy              =      42.63410653 Ry
     Harris-Foulkes estimate   =   -1065.27901601 Ry
     estimated scf accuracy    <      19.06386255 Ry

     iteration # 57     ecut=    30.00 Ry     beta=0.70
     Davidson diagonalization with overlap
     ethr =  1.00E-02,  avg # of iterations =  6.0

     total cpu time spent up to now is       11.6 secs

     total energy              =     -32.39946377 Ry
     Harris-Foulkes estimate   =     -34.11539544 Ry
     estimated scf accuracy    <       6.87464124 Ry

     iteration # 58     ecut=    30.00 Ry     beta=0.70
     Davidson diagonalization with overlap
     ethr =  1.00E-02,  avg # of iterations =  2.0

     negative rho (up, down):  1.628E-02 0.000E+00

     total cpu time spent up to now is       11.6 secs

     total energy              =     -30.96979269 Ry
     Harris-Foulkes estimate   =     -32.52380009 Ry
     estimated scf accuracy    <       3.59867663 Ry

     iteration # 59     ecut=    30.00 Ry     beta=0.70
     Davidson diagonalization with overlap
     ethr =  1.00E-02,  avg # of iterations =  5.0

     negative rho (up, down):  6.378E-03 0.000E+00

     total cpu time spent up to now is       11.7 secs

     total energy              =     -29.92736046 Ry
     Harris-Foulkes estimate   =     -35.02535491 Ry
     estimated scf accuracy    <       3.51811522 Ry

     iteration # 60     ecut=    30.00 Ry     beta=0.70
     Davidson diagonalization with overlap
     ethr =  1.00E-02,  avg # of iterations =  4.0

     negative rho (up, down):  1.238E-02 0.000E+00

     total cpu time spent up to now is       11.8 secs

     total energy              =     -40.37931817 Ry
     Harris-Foulkes estimate   =     -34.23557613 Ry
     estimated scf accuracy    <       2.93040611 Ry

     iteration # 61     ecut=    30.00 Ry     beta=0.70
     Davidson diagonalization with overlap
     ethr =  1.00E-02,  avg # of iterations =  4.0

     negative rho (up, down):  1.602E-02 0.000E+00

     total cpu time spent up to now is       11.8 secs

     total energy              =      24.38747952 Ry
     Harris-Foulkes estimate   =    -339.24523823 Ry
     estimated scf accuracy    <      14.51849918 Ry

     iteration # 62     ecut=    30.00 Ry     beta=0.70
     Davidson diagonalization with overlap
     ethr =  1.00E-02,  avg # of iterations =  5.0

     negative rho (up, down):  6.430E-02 0.000E+00

     total cpu time spent up to now is       11.9 secs

     total energy              =    -137.89005379 Ry
     Harris-Foulkes estimate   =     -32.97791693 Ry
     estimated scf accuracy    <       2.14931190 Ry

     iteration # 63     ecut=    30.00 Ry     beta=0.70
     Davidson diagonalization with overlap
     ethr =  1.00E-02,  avg # of iterations =  3.0

     negative rho (up, down):  9.762E-02 0.000E+00

     total cpu time spent up to now is       12.0 secs

     total energy              =      -3.36302844 Ry
     Harris-Foulkes estimate   =   -1236.96357455 Ry
     estimated scf accuracy    <       7.15328310 Ry

     iteration # 64     ecut=    30.00 Ry     beta=0.70
     Davidson diagonalization with overlap
     ethr =  1.00E-02,  avg # of iterations =  4.0

     negative rho (up, down):  1.138E-01 0.000E+00

     total cpu time spent up to now is       12.0 secs

     total energy              =     -28.20366440 Ry
     Harris-Foulkes estimate   =     -37.07090196 Ry
     estimated scf accuracy    <       3.28160855 Ry

     iteration # 65     ecut=    30.00 Ry     beta=0.70
     Davidson diagonalization with overlap
     ethr =  1.00E-02,  avg # of iterations =  4.0

     negative rho (up, down):  3.189E-02 0.000E+00

     total cpu time spent up to now is       12.1 secs

     total energy              =     -18.74372608 Ry
     Harris-Foulkes estimate   =     -68.35559199 Ry
     estimated scf accuracy    <       4.39164671 Ry

     iteration # 66     ecut=    30.00 Ry     beta=0.70
     Davidson diagonalization with overlap
     ethr =  1.00E-02,  avg # of iterations =  4.0

     negative rho (up, down):  3.020E-02 0.000E+00

     total cpu time spent up to now is       12.2 secs

     total energy              =      11.60479055 Ry
     Harris-Foulkes estimate   =    -175.79479928 Ry
     estimated scf accuracy    <      24.83254863 Ry

     iteration # 67     ecut=    30.00 Ry     beta=0.70
     Davidson diagonalization with overlap
     ethr =  1.00E-02,  avg # of iterations =  4.0

     negative rho (up, down):  1.141E-01 0.000E+00

     total cpu time spent up to now is       12.2 secs

     total energy              =     -73.45207627 Ry
     Harris-Foulkes estimate   =     -35.59170360 Ry
     estimated scf accuracy    <       9.19721611 Ry

     iteration # 68     ecut=    30.00 Ry     beta=0.70
     Davidson diagonalization with overlap
     ethr =  1.00E-02,  avg # of iterations =  3.0

     negative rho (up, down):  1.718E-01 0.000E+00

     total cpu time spent up to now is       12.3 secs

     total energy              =     -41.59985623 Ry
     Harris-Foulkes estimate   =    -818.98722459 Ry
     estimated scf accuracy    <       7.56212800 Ry

     iteration # 69     ecut=    30.00 Ry     beta=0.70
     Davidson diagonalization with overlap
     ethr =  1.00E-02,  avg # of iterations =  7.0

     negative rho (up, down):  1.547E-01 0.000E+00

     total cpu time spent up to now is       12.4 secs

     total energy              =    -123.52283832 Ry
     Harris-Foulkes estimate   =    -852.24540920 Ry
     estimated scf accuracy    <      41.69811886 Ry

     iteration # 70     ecut=    30.00 Ry     beta=0.70
     Davidson diagonalization with overlap
     ethr =  1.00E-02,  avg # of iterations =  7.0

     negative rho (up, down):  1.627E-01 0.000E+00

     total cpu time spent up to now is       12.5 secs

     total energy              =     -38.07745388 Ry
     Harris-Foulkes estimate   =    -216.43206396 Ry
     estimated scf accuracy    <      25.30425134 Ry

     iteration # 71     ecut=    30.00 Ry     beta=0.70
     Davidson diagonalization with overlap
     ethr =  1.00E-02,  avg # of iterations =  6.0

     negative rho (up, down):  4.377E-01 0.000E+00

     total cpu time spent up to now is       12.5 secs

     total energy              =     -12.65896945 Ry
     Harris-Foulkes estimate   =    -532.87826422 Ry
     estimated scf accuracy    <      44.99458379 Ry

     iteration # 72     ecut=    30.00 Ry     beta=0.70
     Davidson diagonalization with overlap
     ethr =  1.00E-02,  avg # of iterations =  7.0

     negative rho (up, down):  5.104E-01 0.000E+00

     total cpu time spent up to now is       12.6 secs

     total energy              =    -398.12229623 Ry
     Harris-Foulkes estimate   =   -3298.71208101 Ry
     estimated scf accuracy    <      33.76056514 Ry

     iteration # 73     ecut=    30.00 Ry     beta=0.70
     Davidson diagonalization with overlap
     ethr =  1.00E-02,  avg # of iterations =  7.0

     negative rho (up, down):  6.978E-01 0.000E+00

     total cpu time spent up to now is       12.7 secs

     total energy              =     -33.90579746 Ry
     Harris-Foulkes estimate   =   -1935.74460964 Ry
     estimated scf accuracy    <      33.00032776 Ry

     iteration # 74     ecut=    30.00 Ry     beta=0.70
     Davidson diagonalization with overlap
     ethr =  1.00E-02,  avg # of iterations =  7.0

     negative rho (up, down):  1.119E+00 0.000E+00

     total cpu time spent up to now is       12.8 secs

     total energy              =    -688.43704430 Ry
     Harris-Foulkes estimate   =   -3553.67919757 Ry
     estimated scf accuracy    <      29.49256315 Ry

     iteration # 75     ecut=    30.00 Ry     beta=0.70
     Davidson diagonalization with overlap
     ethr =  1.00E-02,  avg # of iterations =  6.0

     negative rho (up, down):  1.305E+00 0.000E+00

     total cpu time spent up to now is       12.9 secs

     total energy              =    -826.33917182 Ry
     Harris-Foulkes estimate   =   -3011.27465836 Ry
     estimated scf accuracy    <      25.18042423 Ry

     iteration # 76     ecut=    30.00 Ry     beta=0.70
     Davidson diagonalization with overlap
     ethr =  1.00E-02,  avg # of iterations =  8.0

     negative rho (up, down):  1.531E+00 0.000E+00

     total cpu time spent up to now is       13.0 secs

     total energy              =    -875.31609644 Ry
     Harris-Foulkes estimate   =   -9142.00729738 Ry
     estimated scf accuracy    <      26.90933356 Ry

     iteration # 77     ecut=    30.00 Ry     beta=0.70
     Davidson diagonalization with overlap
     ethr =  1.00E-02,  avg # of iterations =  7.0

     negative rho (up, down):  1.723E+00 0.000E+00

     total cpu time spent up to now is       13.1 secs

     total energy              =   -1748.63796611 Ry
     Harris-Foulkes estimate   =   -2401.48574659 Ry
     estimated scf accuracy    <      30.92609329 Ry

     iteration # 78     ecut=    30.00 Ry     beta=0.70
     Davidson diagonalization with overlap
     ethr =  1.00E-02,  avg # of iterations =  7.0

     negative rho (up, down):  4.755E-01 0.000E+00

     total cpu time spent up to now is       13.1 secs

     total energy              =    -481.62482029 Ry
     Harris-Foulkes estimate   =  -13693.48828236 Ry
     estimated scf accuracy    <      24.76356460 Ry

     iteration # 79     ecut=    30.00 Ry     beta=0.70
     Davidson diagonalization with overlap
     ethr =  1.00E-02,  avg # of iterations =  7.0

     negative rho (up, down):  6.599E-01 0.000E+00

     total cpu time spent up to now is       13.2 secs

     total energy              =      74.61887088 Ry
     Harris-Foulkes estimate   =   -2367.81931712 Ry
     estimated scf accuracy    <      26.95710609 Ry

     iteration # 80     ecut=    30.00 Ry     beta=0.70
     Davidson diagonalization with overlap
     ethr =  1.00E-02,  avg # of iterations =  7.0

     negative rho (up, down):  3.217E-01 0.000E+00

     total cpu time spent up to now is       13.3 secs

     total energy              =     103.60899756 Ry
     Harris-Foulkes estimate   =   -5665.19858928 Ry
     estimated scf accuracy    <      29.38764830 Ry

     iteration # 81     ecut=    30.00 Ry     beta=0.70
     Davidson diagonalization with overlap
     ethr =  1.00E-02,  avg # of iterations =  7.0

     negative rho (up, down):  3.822E-01 0.000E+00

     total cpu time spent up to now is       13.4 secs

     total energy              =     105.67719291 Ry
     Harris-Foulkes estimate   =   -1249.98002038 Ry
     estimated scf accuracy    <      29.87101523 Ry

     iteration # 82     ecut=    30.00 Ry     beta=0.70
     Davidson diagonalization with overlap
     ethr =  1.00E-02,  avg # of iterations =  8.0

     negative rho (up, down):  1.534E-01 0.000E+00

     total cpu time spent up to now is       13.5 secs

     total energy              =      66.97612082 Ry
     Harris-Foulkes estimate   =    -405.29308349 Ry
     estimated scf accuracy    <      29.29704862 Ry

     iteration # 83     ecut=    30.00 Ry     beta=0.70
     Davidson diagonalization with overlap
     ethr =  1.00E-02,  avg # of iterations = 10.0

     negative rho (up, down):  1.523E-01 0.000E+00

     total cpu time spent up to now is       13.6 secs

     total energy              =    -525.00142748 Ry
     Harris-Foulkes estimate   =    -341.72413478 Ry
     estimated scf accuracy    <      33.98932467 Ry

     iteration # 84     ecut=    30.00 Ry     beta=0.70
     Davidson diagonalization with overlap
     ethr =  1.00E-02,  avg # of iterations =  5.0

     negative rho (up, down):  1.202E-01 0.000E+00

     total cpu time spent up to now is       13.7 secs

     total energy              =   -1408.96029201 Ry
     Harris-Foulkes estimate   =  -12889.61324441 Ry
     estimated scf accuracy    <      42.92901014 Ry

     iteration # 85     ecut=    30.00 Ry     beta=0.70
     Davidson diagonalization with overlap
     ethr =  1.00E-02,  avg # of iterations =  5.0

     negative rho (up, down):  1.311E-02 0.000E+00

     total cpu time spent up to now is       13.8 secs

     total energy              =     107.99526485 Ry
     Harris-Foulkes estimate   =  -39563.36827991 Ry
     estimated scf accuracy    <      20.41964468 Ry

     iteration # 86     ecut=    30.00 Ry     beta=0.70
     Davidson diagonalization with overlap
     ethr =  1.00E-02,  avg # of iterations =  9.0

     negative rho (up, down):  8.590E-02 0.000E+00

     total cpu time spent up to now is       13.9 secs

     total energy              =      -7.02932008 Ry
     Harris-Foulkes estimate   =    -152.01864187 Ry
     estimated scf accuracy    <      27.57968672 Ry

     iteration # 87     ecut=    30.00 Ry     beta=0.70
     Davidson diagonalization with overlap
     ethr =  1.00E-02,  avg # of iterations =  6.0

     negative rho (up, down):  7.651E-02 0.000E+00

     total cpu time spent up to now is       13.9 secs

     total energy              =      -5.94113191 Ry
     Harris-Foulkes estimate   =    -102.77420632 Ry
     estimated scf accuracy    <      26.57614036 Ry

     iteration # 88     ecut=    30.00 Ry     beta=0.70
     Davidson diagonalization with overlap
     ethr =  1.00E-02,  avg # of iterations =  5.0

     negative rho (up, down):  2.200E-02 0.000E+00

     total cpu time spent up to now is       14.0 secs

     total energy              =    -240.44766639 Ry
     Harris-Foulkes estimate   =    -278.74424889 Ry
     estimated scf accuracy    <      45.64953911 Ry

     iteration # 89     ecut=    30.00 Ry     beta=0.70
     Davidson diagonalization with overlap
     ethr =  1.00E-02,  avg # of iterations =  8.0

     negative rho (up, down):  6.757E-02 0.000E+00

     total cpu time spent up to now is       14.1 secs

     total energy              =      65.86695605 Ry
     Harris-Foulkes estimate   =    -597.98998254 Ry
     estimated scf accuracy    <      30.97883397 Ry

     iteration # 90     ecut=    30.00 Ry     beta=0.70
     Davidson diagonalization with overlap
     ethr =  1.00E-02,  avg # of iterations =  5.0

     negative rho (up, down):  3.715E-01 0.000E+00

     total cpu time spent up to now is       14.2 secs

     total energy              =      27.57569437 Ry
     Harris-Foulkes estimate   =   -1086.70567102 Ry
     estimated scf accuracy    <      17.77024155 Ry

     iteration # 91     ecut=    30.00 Ry     beta=0.70
     Davidson diagonalization with overlap
     ethr =  1.00E-02,  avg # of iterations =  8.0

     negative rho (up, down):  7.562E-01 0.000E+00

     total cpu time spent up to now is       14.3 secs

     total energy              =     -26.50401073 Ry
     Harris-Foulkes estimate   =   -1194.85541441 Ry
     estimated scf accuracy    <      35.87050293 Ry

     iteration # 92     ecut=    30.00 Ry     beta=0.70
     Davidson diagonalization with overlap
     ethr =  1.00E-02,  avg # of iterations = 11.0

     negative rho (up, down):  7.854E-01 0.000E+00

     total cpu time spent up to now is       14.4 secs

     total energy              =      27.59592022 Ry
     Harris-Foulkes estimate   =   -2461.00880844 Ry
     estimated scf accuracy    <      32.95155333 Ry

     iteration # 93     ecut=    30.00 Ry     beta=0.70
     Davidson diagonalization with overlap
     ethr =  1.00E-02,  avg # of iterations =  6.0

     negative rho (up, down):  8.038E-01 0.000E+00

     total cpu time spent up to now is       14.4 secs

     total energy              =   -2821.77840590 Ry
     Harris-Foulkes estimate   =  -16186.68910985 Ry
     estimated scf accuracy    <      28.52101015 Ry

     iteration # 94     ecut=    30.00 Ry     beta=0.70
     Davidson diagonalization with overlap
     ethr =  1.00E-02,  avg # of iterations =  7.0

     negative rho (up, down):  7.347E-01 0.000E+00

     total cpu time spent up to now is       14.5 secs

     total energy              =     140.88617662 Ry
     Harris-Foulkes estimate   =  -11455.97727366 Ry
     estimated scf accuracy    <      27.90327533 Ry

     iteration # 95     ecut=    30.00 Ry     beta=0.70
     Davidson diagonalization with overlap
     ethr =  1.00E-02,  avg # of iterations = 11.0

     negative rho (up, down):  6.392E-01 0.000E+00

     total cpu time spent up to now is       14.6 secs

     total energy              =      74.67783627 Ry
     Harris-Foulkes estimate   =    -199.07740381 Ry
     estimated scf accuracy    <      25.52959376 Ry

     iteration # 96     ecut=    30.00 Ry     beta=0.70
     Davidson diagonalization with overlap
     ethr =  1.00E-02,  avg # of iterations =  7.0

     negative rho (up, down):  4.486E-02 0.000E+00

     total cpu time spent up to now is       14.7 secs

     total energy              =      31.38046550 Ry
     Harris-Foulkes estimate   =   -3013.64750858 Ry
     estimated scf accuracy    <      20.27147530 Ry

     iteration # 97     ecut=    30.00 Ry     beta=0.70
     Davidson diagonalization with overlap
     ethr =  1.00E-02,  avg # of iterations =  8.0

     negative rho (up, down):  1.406E-01 0.000E+00

     total cpu time spent up to now is       14.8 secs

     total energy              =      13.14680083 Ry
     Harris-Foulkes estimate   =    -126.08859121 Ry
     estimated scf accuracy    <      29.17236332 Ry

     iteration # 98     ecut=    30.00 Ry     beta=0.70
     Davidson diagonalization with overlap
     ethr =  1.00E-02,  avg # of iterations =  5.0

     negative rho (up, down):  2.233E-01 0.000E+00

     total cpu time spent up to now is       14.9 secs

     total energy              =    -134.55884922 Ry
     Harris-Foulkes estimate   =    -459.82944038 Ry
     estimated scf accuracy    <      22.35309106 Ry

     iteration # 99     ecut=    30.00 Ry     beta=0.70
     Davidson diagonalization with overlap
     ethr =  1.00E-02,  avg # of iterations =  5.0

     negative rho (up, down):  2.360E-01 0.000E+00

     total cpu time spent up to now is       15.0 secs

     total energy              =     102.20211347 Ry
     Harris-Foulkes estimate   =   -1002.13993121 Ry
     estimated scf accuracy    <      24.49699976 Ry

     iteration #100     ecut=    30.00 Ry     beta=0.70
     Davidson diagonalization with overlap
     ethr =  1.00E-02,  avg # of iterations =  9.0

     negative rho (up, down):  4.222E-02 0.000E+00

     total cpu time spent up to now is       15.1 secs

     total energy              =      94.27167219 Ry
     Harris-Foulkes estimate   =    -262.82845896 Ry
     estimated scf accuracy    <      18.43998308 Ry

     End of self-consistent calculation

     convergence NOT achieved after 100 iterations: stopping

     Writing output data file pwscf.save
 
     init_run     :      0.17s CPU      0.19s WALL (       1 calls)
     electrons    :     11.65s CPU     13.65s WALL (       4 calls)
     update_pot   :      0.56s CPU      0.78s WALL (       3 calls)
     forces       :      0.13s CPU      0.13s WALL (       3 calls)

     Called by init_run:
     wfcinit      :      0.01s CPU      0.02s WALL (       1 calls)
     potinit      :      0.05s CPU      0.05s WALL (       1 calls)

     Called by electrons:
     c_bands      :      6.44s CPU      6.75s WALL (     198 calls)
     sum_band     :      0.99s CPU      1.05s WALL (     198 calls)
     v_of_rho     :      2.42s CPU      2.49s WALL (     202 calls)
     mix_rho      :      1.55s CPU      2.79s WALL (     198 calls)

     Called by c_bands:
     init_us_2    :      0.03s CPU      0.04s WALL (     397 calls)
     cegterg      :      6.39s CPU      6.63s WALL (     198 calls)

     Called by sum_band:

     Called by *egterg:
     h_psi        :      5.42s CPU      5.54s WALL (    1035 calls)
     g_psi        :      0.06s CPU      0.07s WALL (     836 calls)
     cdiaghg      :      0.37s CPU      0.42s WALL (    1031 calls)

     Called by h_psi:
     h_psi:pot    :      5.39s CPU      5.51s WALL (    1035 calls)
     h_psi:calbec :      0.06s CPU      0.07s WALL (    1035 calls)
     vloc_psi     :      5.30s CPU      5.41s WALL (    1035 calls)
     add_vuspsi   :      0.01s CPU      0.01s WALL (    1035 calls)

     General routines
     calbec       :      0.07s CPU      0.08s WALL (    1049 calls)
     fft          :      1.44s CPU      1.49s WALL (    2228 calls)
     fftw         :      5.46s CPU      5.61s WALL (   13904 calls)
     davcio       :      0.26s CPU      1.05s WALL (    3617 calls)
 
     Parallel routines
     fft_scatter  :      2.15s CPU      2.25s WALL (   16132 calls)
 
     PWSCF        :    12.78s CPU        15.24s WALL

 
   This run was terminated on:  16:38:27  13Feb2018            

=------------------------------------------------------------------------------=
   JOB DONE.
=------------------------------------------------------------------------------=
