
     Program PWSCF v.6.0 (svn rev. 13079) starts on 13Feb2018 at 17: 4: 9 

     This program is part of the open-source Quantum ESPRESSO suite
     for quantum simulation of materials; please cite
         "P. Giannozzi et al., J. Phys.:Condens. Matter 21 395502 (2009);
          URL http://www.quantum-espresso.org", 
     in publications or presentations arising from this work. More details at
     http://www.quantum-espresso.org/quote

     Parallel version (MPI), running on    28 processors
     R & G space division:  proc/nbgrp/npool/nimage =      28
     Reading input from inputs/MD-H2O-round1/759.in

     Current dimensions of program PWSCF are:
     Max number of different atomic species (ntypx) = 10
     Max number of k-points (npk) =  40000
     Max angular momentum in pseudopotentials (lmaxx) =  3

     Subspace diagonalization in iterative solution of the eigenvalue problem:
     a serial algorithm will be used

 
     Parallelization info
     --------------------
     sticks:   dense  smooth     PW     G-vecs:    dense   smooth      PW
     Min         136     136     33                 6338     6338     787
     Max         137     137     34                 6341     6341     792
     Sum        3809    3809    949               177509   177509   22119
 


     bravais-lattice index     =            1
     lattice parameter (alat)  =      20.0000  a.u.
     unit-cell volume          =    8000.0000 (a.u.)^3
     number of atoms/cell      =            3
     number of atomic types    =            2
     number of electrons       =         8.00
     number of Kohn-Sham states=            8
     kinetic-energy cutoff     =      30.0000  Ry
     charge density cutoff     =     120.0000  Ry
     convergence threshold     =      1.0E-08
     mixing beta               =       0.7000
     number of iterations used =            8  plain     mixing
     Exchange-correlation      = BLYP ( 1  3  1  3 0 0)
     nstep                     =         5000


     celldm(1)=  20.000000  celldm(2)=   0.000000  celldm(3)=   0.000000
     celldm(4)=   0.000000  celldm(5)=   0.000000  celldm(6)=   0.000000

     crystal axes: (cart. coord. in units of alat)
               a(1) = (   1.000000   0.000000   0.000000 )  
               a(2) = (   0.000000   1.000000   0.000000 )  
               a(3) = (   0.000000   0.000000   1.000000 )  

     reciprocal axes: (cart. coord. in units 2 pi/alat)
               b(1) = (  1.000000  0.000000  0.000000 )  
               b(2) = (  0.000000  1.000000  0.000000 )  
               b(3) = (  0.000000  0.000000  1.000000 )  


     PseudoPot. # 1 for  H read from file:
     ./H.blyp-hgh.UPF
     MD5 check sum: c576e69559cde411e611be972c763230
     Pseudo is Norm-conserving, Zval =  1.0
     Generated in analytical, separable form
     Using radial grid of  929 points,  0 beta functions with: 

     PseudoPot. # 2 for  O read from file:
     ./O.blyp-hgh.UPF
     MD5 check sum: d0b7156309aa9befef28faac7bc56342
     Pseudo is Norm-conserving, Zval =  6.0
     Generated in analytical, separable form
     Using radial grid of 1095 points,  1 beta functions with: 
                l(1) =   0

     atomic species   valence    mass     pseudopotential
        H              1.00     1.01000      H( 1.00)
        O              6.00    16.00000      O( 1.00)

     No symmetry found



   Cartesian axes

     site n.     atom                  positions (alat units)
         1           O   tau(   1) = (   0.1419278   0.1239014   0.7088165  )
         2           H   tau(   2) = (   0.1445147   0.0505571   0.7404620  )
         3           H   tau(   3) = (   0.2853963   0.6177829   0.0189707  )

     number of k points=     1  Marzari-Vanderbilt smearing, width (Ry)=  0.0250
                       cart. coord. in units 2pi/alat
        k(    1) = (   0.0000000   0.0000000   0.0000000), wk =   2.0000000

     Dense  grid:   177509 G-vectors     FFT dimensions: (  72,  72,  72)

     Estimated max dynamical RAM per process >       6.09Mb

     Estimated total allocated dynamical RAM >     170.64Mb

     Initial potential from superposition of free atoms
     Check: negative starting charge=   -0.350469

     starting charge    7.99998, renormalised to    8.00000

     negative rho (up, down):  3.505E-01 0.000E+00
     Starting wfc are    6 randomized atomic wfcs +    2 random wfc

     total cpu time spent up to now is        0.3 secs

     per-process dynamical memory:    18.8 Mb

     Self-consistent Calculation

     iteration #  1     ecut=    30.00 Ry     beta=0.70
     Davidson diagonalization with overlap
     ethr =  1.00E-02,  avg # of iterations =  9.0

     negative rho (up, down):  9.460E-02 0.000E+00

     total cpu time spent up to now is        0.4 secs

     total energy              =     -31.54996940 Ry
     Harris-Foulkes estimate   =     -32.07077008 Ry
     estimated scf accuracy    <       0.55096112 Ry

     iteration #  2     ecut=    30.00 Ry     beta=0.70
     Davidson diagonalization with overlap
     ethr =  6.89E-03,  avg # of iterations =  2.0

     negative rho (up, down):  7.311E-02 0.000E+00

     total cpu time spent up to now is        0.5 secs

     total energy              =     -31.71997045 Ry
     Harris-Foulkes estimate   =     -32.41436129 Ry
     estimated scf accuracy    <       2.33310723 Ry

     iteration #  3     ecut=    30.00 Ry     beta=0.70
     Davidson diagonalization with overlap
     ethr =  6.89E-03,  avg # of iterations =  2.0

     negative rho (up, down):  2.677E-02 0.000E+00

     total cpu time spent up to now is        0.5 secs

     total energy              =     -31.77714531 Ry
     Harris-Foulkes estimate   =     -31.78610009 Ry
     estimated scf accuracy    <       0.14506660 Ry

     iteration #  4     ecut=    30.00 Ry     beta=0.70
     Davidson diagonalization with overlap
     ethr =  1.81E-03,  avg # of iterations =  1.0

     negative rho (up, down):  1.089E-02 0.000E+00

     total cpu time spent up to now is        0.6 secs

     total energy              =     -31.58151578 Ry
     Harris-Foulkes estimate   =     -31.90678824 Ry
     estimated scf accuracy    <       1.34111378 Ry

     iteration #  5     ecut=    30.00 Ry     beta=0.70
     Davidson diagonalization with overlap
     ethr =  1.81E-03,  avg # of iterations =  2.0

     negative rho (up, down):  5.550E-04 0.000E+00

     total cpu time spent up to now is        0.6 secs

     total energy              =     -31.95562438 Ry
     Harris-Foulkes estimate   =     -32.04140702 Ry
     estimated scf accuracy    <       1.16633168 Ry

     iteration #  6     ecut=    30.00 Ry     beta=0.70
     Davidson diagonalization with overlap
     ethr =  1.81E-03,  avg # of iterations =  1.0

     negative rho (up, down):  5.389E-04 0.000E+00

     total cpu time spent up to now is        0.7 secs

     total energy              =     -31.87941996 Ry
     Harris-Foulkes estimate   =     -31.95641697 Ry
     estimated scf accuracy    <       1.03886459 Ry

     iteration #  7     ecut=    30.00 Ry     beta=0.70
     Davidson diagonalization with overlap
     ethr =  1.81E-03,  avg # of iterations =  1.0

     negative rho (up, down):  5.884E-04 0.000E+00

     total cpu time spent up to now is        0.7 secs

     total energy              =     -31.85847943 Ry
     Harris-Foulkes estimate   =     -31.87994254 Ry
     estimated scf accuracy    <       0.91885336 Ry

     iteration #  8     ecut=    30.00 Ry     beta=0.70
     Davidson diagonalization with overlap
     ethr =  1.81E-03,  avg # of iterations =  1.0

     negative rho (up, down):  4.774E-04 0.000E+00

     total cpu time spent up to now is        0.8 secs

     total energy              =     -31.75636514 Ry
     Harris-Foulkes estimate   =     -31.85881847 Ry
     estimated scf accuracy    <       0.80103550 Ry

     iteration #  9     ecut=    30.00 Ry     beta=0.70
     Davidson diagonalization with overlap
     ethr =  1.81E-03,  avg # of iterations =  1.0

     negative rho (up, down):  5.450E-05 0.000E+00

     total cpu time spent up to now is        0.8 secs

     total energy              =     -31.79619580 Ry
     Harris-Foulkes estimate   =     -31.91657592 Ry
     estimated scf accuracy    <       1.32615910 Ry

     iteration # 10     ecut=    30.00 Ry     beta=0.70
     Davidson diagonalization with overlap
     ethr =  1.81E-03,  avg # of iterations =  1.0

     negative rho (up, down):  5.181E-06 0.000E+00

     total cpu time spent up to now is        0.9 secs

     total energy              =     -31.83079771 Ry
     Harris-Foulkes estimate   =     -31.84902976 Ry
     estimated scf accuracy    <       0.57903767 Ry

     iteration # 11     ecut=    30.00 Ry     beta=0.70
     Davidson diagonalization with overlap
     ethr =  1.81E-03,  avg # of iterations =  1.0

     negative rho (up, down):  4.185E-06 0.000E+00

     total cpu time spent up to now is        0.9 secs

     total energy              =     -31.83962207 Ry
     Harris-Foulkes estimate   =     -31.83763673 Ry
     estimated scf accuracy    <       0.00931391 Ry

     iteration # 12     ecut=    30.00 Ry     beta=0.70
     Davidson diagonalization with overlap
     ethr =  1.16E-04,  avg # of iterations =  9.0

     negative rho (up, down):  1.713E-07 0.000E+00

     total cpu time spent up to now is        1.0 secs

     total energy              =     -31.81971198 Ry
     Harris-Foulkes estimate   =     -31.84562252 Ry
     estimated scf accuracy    <       0.45508118 Ry

     iteration # 13     ecut=    30.00 Ry     beta=0.70
     Davidson diagonalization with overlap
     ethr =  1.16E-04,  avg # of iterations =  1.0

     negative rho (up, down):  6.226E-07 0.000E+00

     total cpu time spent up to now is        1.0 secs

     total energy              =     -31.82849440 Ry
     Harris-Foulkes estimate   =     -31.84343974 Ry
     estimated scf accuracy    <       0.47165475 Ry

     iteration # 14     ecut=    30.00 Ry     beta=0.70
     Davidson diagonalization with overlap
     ethr =  1.16E-04,  avg # of iterations =  1.0

     total cpu time spent up to now is        1.1 secs

     total energy              =     -31.83475054 Ry
     Harris-Foulkes estimate   =     -31.83794062 Ry
     estimated scf accuracy    <       0.03132396 Ry

     iteration # 15     ecut=    30.00 Ry     beta=0.70
     Davidson diagonalization with overlap
     ethr =  1.16E-04,  avg # of iterations =  1.0

     negative rho (up, down):  2.461E-08 0.000E+00

     total cpu time spent up to now is        1.1 secs

     total energy              =     -31.83838273 Ry
     Harris-Foulkes estimate   =     -31.84135759 Ry
     estimated scf accuracy    <       0.30947665 Ry

     iteration # 16     ecut=    30.00 Ry     beta=0.70
     Davidson diagonalization with overlap
     ethr =  1.16E-04,  avg # of iterations =  1.0

     negative rho (up, down):  5.774E-08 0.000E+00

     total cpu time spent up to now is        1.1 secs

     total energy              =     -31.83511604 Ry
     Harris-Foulkes estimate   =     -31.83895057 Ry
     estimated scf accuracy    <       0.11606976 Ry

     iteration # 17     ecut=    30.00 Ry     beta=0.70
     Davidson diagonalization with overlap
     ethr =  1.16E-04,  avg # of iterations =  1.0

     total cpu time spent up to now is        1.2 secs

     total energy              =     -31.83757458 Ry
     Harris-Foulkes estimate   =     -31.83766436 Ry
     estimated scf accuracy    <       0.01168895 Ry

     iteration # 18     ecut=    30.00 Ry     beta=0.70
     Davidson diagonalization with overlap
     ethr =  1.16E-04,  avg # of iterations =  1.0

     total cpu time spent up to now is        1.2 secs

     total energy              =     -31.83757922 Ry
     Harris-Foulkes estimate   =     -31.83758781 Ry
     estimated scf accuracy    <       0.00592733 Ry

     iteration # 19     ecut=    30.00 Ry     beta=0.70
     Davidson diagonalization with overlap
     ethr =  7.41E-05,  avg # of iterations =  1.0

     total cpu time spent up to now is        1.3 secs

     total energy              =     -31.83749404 Ry
     Harris-Foulkes estimate   =     -31.83757950 Ry
     estimated scf accuracy    <       0.00530847 Ry

     iteration # 20     ecut=    30.00 Ry     beta=0.70
     Davidson diagonalization with overlap
     ethr =  6.64E-05,  avg # of iterations =  1.0

     total cpu time spent up to now is        1.3 secs

     total energy              =     -31.83751932 Ry
     Harris-Foulkes estimate   =     -31.83752020 Ry
     estimated scf accuracy    <       0.00077729 Ry

     iteration # 21     ecut=    30.00 Ry     beta=0.70
     Davidson diagonalization with overlap
     ethr =  9.72E-06,  avg # of iterations =  1.0

     total cpu time spent up to now is        1.4 secs

     total energy              =     -31.83750106 Ry
     Harris-Foulkes estimate   =     -31.83751935 Ry
     estimated scf accuracy    <       0.00070117 Ry

     iteration # 22     ecut=    30.00 Ry     beta=0.70
     Davidson diagonalization with overlap
     ethr =  8.76E-06,  avg # of iterations =  1.0

     total cpu time spent up to now is        1.4 secs

     total energy              =     -31.83751041 Ry
     Harris-Foulkes estimate   =     -31.83751047 Ry
     estimated scf accuracy    <       0.00000047 Ry

     iteration # 23     ecut=    30.00 Ry     beta=0.70
     Davidson diagonalization with overlap
     ethr =  5.82E-09,  avg # of iterations = 14.0

     total cpu time spent up to now is        1.5 secs

     total energy              =     -31.83751039 Ry
     Harris-Foulkes estimate   =     -31.83751042 Ry
     estimated scf accuracy    <       0.00000020 Ry

     iteration # 24     ecut=    30.00 Ry     beta=0.70
     Davidson diagonalization with overlap
     ethr =  2.55E-09,  avg # of iterations =  1.0

     total cpu time spent up to now is        1.5 secs

     total energy              =     -31.83751040 Ry
     Harris-Foulkes estimate   =     -31.83751039 Ry
     estimated scf accuracy    <       0.00000002 Ry

     iteration # 25     ecut=    30.00 Ry     beta=0.70
     Davidson diagonalization with overlap
     ethr =  2.62E-10,  avg # of iterations =  1.0

     total cpu time spent up to now is        1.6 secs

     End of self-consistent calculation

          k = 0.0000 0.0000 0.0000 ( 22119 PWs)   bands (ev):

   -26.2070 -11.0955  -7.1751  -7.1748  -7.0310  -0.4625   0.4844   0.8012

     the Fermi energy is    -7.0030 ev

!    total energy              =     -31.83751039 Ry
     Harris-Foulkes estimate   =     -31.83751040 Ry
     estimated scf accuracy    <          1.9E-10 Ry

     convergence has been achieved in  25 iterations

     Forces acting on atoms (Ry/au):

     atom    1 type  2   force =    -0.01884563    0.57588127   -0.24819017
     atom    2 type  1   force =     0.01961195   -0.57644138    0.24847343
     atom    3 type  1   force =    -0.00076631    0.00056010   -0.00028326

     Total force =     0.887695     Total SCF correction =     0.000020

     Molecular Dynamics Calculation

     Starting temperature  =  1000.00 K

     temperature is controlled by Andersen thermostat
     Collision frequency = 1.0000/timestep
     mass H                =     1.01
     mass O                =    16.00
     Time step             =   100.00 a.u.,  4.8378 femto-seconds

     Entering Dynamics:    iteration =     1
                           time      =   0.0048 pico-seconds


     Andersen thermostat:    3 collisions

ATOMIC_POSITIONS (bohr)
O        2.821215600   2.670826044  14.140841718
H        3.106941317  -2.088552144  15.481618381
H        5.765977089  12.401126706   0.269227227


     kinetic energy (Ekin) =     0.02441239 Ry
     temperature           =  1284.80244882 K 
     Ekin + Etot (const)   =   -31.81309800 Ry

     Linear momentum :    0.0000000000   -0.0000000000    0.0000000000

     Writing output data file pwscf.save
     Check: negative starting charge=   -0.350469
     NEW-OLD atomic charge density approx. for the potential
     Check: negative starting charge=   -0.343611

     negative rho (up, down):  3.888E-01 0.000E+00

     total cpu time spent up to now is        1.9 secs

     per-process dynamical memory:    20.4 Mb

     Self-consistent Calculation

     iteration #  1     ecut=    30.00 Ry     beta=0.70
     Davidson diagonalization with overlap
     ethr =  1.00E-06,  avg # of iterations = 12.0

     negative rho (up, down):  9.448E-02 0.000E+00

     total cpu time spent up to now is        2.1 secs

     total energy              =     -18.68918485 Ry
     Harris-Foulkes estimate   =     -35.16478068 Ry
     estimated scf accuracy    <       9.18933064 Ry

     iteration #  2     ecut=    30.00 Ry     beta=0.70
     Davidson diagonalization with overlap
     ethr =  1.00E-02,  avg # of iterations =  5.0

     negative rho (up, down):  6.632E-02 0.000E+00

     total cpu time spent up to now is        2.2 secs

     total energy              =     -33.18414528 Ry
     Harris-Foulkes estimate   =     -41.05224867 Ry
     estimated scf accuracy    <      18.00339496 Ry

     iteration #  3     ecut=    30.00 Ry     beta=0.70
     Davidson diagonalization with overlap
     ethr =  1.00E-02,  avg # of iterations =  3.0

     negative rho (up, down):  4.879E-02 0.000E+00

     total cpu time spent up to now is        2.3 secs

     total energy              =     -31.79902328 Ry
     Harris-Foulkes estimate   =     -33.68833688 Ry
     estimated scf accuracy    <       6.30057541 Ry

     iteration #  4     ecut=    30.00 Ry     beta=0.70
     Davidson diagonalization with overlap
     ethr =  1.00E-02,  avg # of iterations =  4.0

     negative rho (up, down):  4.142E-02 0.000E+00

     total cpu time spent up to now is        2.3 secs

     total energy              =     -31.81479041 Ry
     Harris-Foulkes estimate   =     -31.89710737 Ry
     estimated scf accuracy    <       1.50082536 Ry

     iteration #  5     ecut=    30.00 Ry     beta=0.70
     Davidson diagonalization with overlap
     ethr =  1.00E-02,  avg # of iterations =  1.0

     negative rho (up, down):  1.427E-02 0.000E+00

     total cpu time spent up to now is        2.4 secs

     total energy              =     -30.83114731 Ry
     Harris-Foulkes estimate   =     -31.95114633 Ry
     estimated scf accuracy    <       3.16694496 Ry

     iteration #  6     ecut=    30.00 Ry     beta=0.70
     Davidson diagonalization with overlap
     ethr =  1.00E-02,  avg # of iterations =  2.0

     negative rho (up, down):  2.222E-02 0.000E+00

     total cpu time spent up to now is        2.5 secs

     total energy              =     -31.55244462 Ry
     Harris-Foulkes estimate   =     -32.44184213 Ry
     estimated scf accuracy    <       5.03446768 Ry

     iteration #  7     ecut=    30.00 Ry     beta=0.70
     Davidson diagonalization with overlap
     ethr =  1.00E-02,  avg # of iterations =  1.0

     negative rho (up, down):  2.087E-02 0.000E+00

     total cpu time spent up to now is        2.5 secs

     total energy              =     -31.94235621 Ry
     Harris-Foulkes estimate   =     -31.62256050 Ry
     estimated scf accuracy    <       2.95180691 Ry

     iteration #  8     ecut=    30.00 Ry     beta=0.70
     Davidson diagonalization with overlap
     ethr =  1.00E-02,  avg # of iterations =  1.0

     negative rho (up, down):  1.950E-02 0.000E+00

     total cpu time spent up to now is        2.6 secs

     total energy              =     -31.77989640 Ry
     Harris-Foulkes estimate   =     -31.96180139 Ry
     estimated scf accuracy    <       3.98695051 Ry

     iteration #  9     ecut=    30.00 Ry     beta=0.70
     Davidson diagonalization with overlap
     ethr =  1.00E-02,  avg # of iterations =  1.0

     negative rho (up, down):  1.503E-02 0.000E+00

     total cpu time spent up to now is        2.6 secs

     total energy              =     -31.29683943 Ry
     Harris-Foulkes estimate   =     -31.78212935 Ry
     estimated scf accuracy    <       3.54930825 Ry

     iteration # 10     ecut=    30.00 Ry     beta=0.70
     Davidson diagonalization with overlap
     ethr =  1.00E-02,  avg # of iterations =  1.0

     negative rho (up, down):  6.350E-04 0.000E+00

     total cpu time spent up to now is        2.7 secs

     total energy              =     -31.75242939 Ry
     Harris-Foulkes estimate   =     -31.70648943 Ry
     estimated scf accuracy    <       1.60670808 Ry

     iteration # 11     ecut=    30.00 Ry     beta=0.70
     Davidson diagonalization with overlap
     ethr =  1.00E-02,  avg # of iterations =  1.0

     negative rho (up, down):  4.193E-04 0.000E+00

     total cpu time spent up to now is        2.7 secs

     total energy              =     -31.69217089 Ry
     Harris-Foulkes estimate   =     -31.76437521 Ry
     estimated scf accuracy    <       1.10808486 Ry

     iteration # 12     ecut=    30.00 Ry     beta=0.70
     Davidson diagonalization with overlap
     ethr =  1.00E-02,  avg # of iterations =  1.0

     negative rho (up, down):  3.361E-04 0.000E+00

     total cpu time spent up to now is        2.8 secs

     total energy              =     -31.70748563 Ry
     Harris-Foulkes estimate   =     -31.69340297 Ry
     estimated scf accuracy    <       0.94068106 Ry

     iteration # 13     ecut=    30.00 Ry     beta=0.70
     Davidson diagonalization with overlap
     ethr =  1.00E-02,  avg # of iterations =  1.0

     negative rho (up, down):  1.991E-04 0.000E+00

     total cpu time spent up to now is        2.8 secs

     total energy              =     -31.97325094 Ry
     Harris-Foulkes estimate   =     -31.84784650 Ry
     estimated scf accuracy    <       2.70010833 Ry

     iteration # 14     ecut=    30.00 Ry     beta=0.70
     Davidson diagonalization with overlap
     ethr =  1.00E-02,  avg # of iterations =  1.0

     negative rho (up, down):  1.834E-04 0.000E+00

     total cpu time spent up to now is        2.9 secs

     total energy              =     -31.92046093 Ry
     Harris-Foulkes estimate   =     -31.97527812 Ry
     estimated scf accuracy    <       3.03561838 Ry

     iteration # 15     ecut=    30.00 Ry     beta=0.70
     Davidson diagonalization with overlap
     ethr =  1.00E-02,  avg # of iterations =  1.0

     negative rho (up, down):  6.804E-05 0.000E+00

     total cpu time spent up to now is        2.9 secs

     total energy              =     -31.92139833 Ry
     Harris-Foulkes estimate   =     -31.92241542 Ry
     estimated scf accuracy    <       2.88993813 Ry

     iteration # 16     ecut=    30.00 Ry     beta=0.70
     Davidson diagonalization with overlap
     ethr =  1.00E-02,  avg # of iterations =  1.0

     negative rho (up, down):  1.905E-05 0.000E+00

     total cpu time spent up to now is        2.9 secs

     total energy              =     -31.70906725 Ry
     Harris-Foulkes estimate   =     -31.92200701 Ry
     estimated scf accuracy    <       2.81276605 Ry

     iteration # 17     ecut=    30.00 Ry     beta=0.70
     Davidson diagonalization with overlap
     ethr =  1.00E-02,  avg # of iterations =  1.0

     negative rho (up, down):  7.157E-06 0.000E+00

     total cpu time spent up to now is        3.0 secs

     total energy              =     -31.67647255 Ry
     Harris-Foulkes estimate   =     -31.71795799 Ry
     estimated scf accuracy    <       2.08522942 Ry

     iteration # 18     ecut=    30.00 Ry     beta=0.70
     Davidson diagonalization with overlap
     ethr =  1.00E-02,  avg # of iterations =  1.0

     negative rho (up, down):  3.555E-02 0.000E+00

     total cpu time spent up to now is        3.0 secs

     total energy              =     -30.44925443 Ry
     Harris-Foulkes estimate   =     -31.67697107 Ry
     estimated scf accuracy    <       1.92128337 Ry

     iteration # 19     ecut=    30.00 Ry     beta=0.70
     Davidson diagonalization with overlap
     ethr =  1.00E-02,  avg # of iterations =  3.0

     negative rho (up, down):  5.677E-08 0.000E+00

     total cpu time spent up to now is        3.1 secs

     total energy              =     -32.06191421 Ry
     Harris-Foulkes estimate   =     -34.69242581 Ry
     estimated scf accuracy    <      16.59818277 Ry

     iteration # 20     ecut=    30.00 Ry     beta=0.70
     Davidson diagonalization with overlap
     ethr =  1.00E-02,  avg # of iterations =  4.0

     negative rho (up, down):  4.696E-08 0.000E+00

     total cpu time spent up to now is        3.2 secs

     total energy              =     -32.31273944 Ry
     Harris-Foulkes estimate   =     -32.53304700 Ry
     estimated scf accuracy    <       5.22602537 Ry

     iteration # 21     ecut=    30.00 Ry     beta=0.70
     Davidson diagonalization with overlap
     ethr =  1.00E-02,  avg # of iterations =  1.0

     negative rho (up, down):  5.895E-07 0.000E+00

     total cpu time spent up to now is        3.2 secs

     total energy              =     -31.55563890 Ry
     Harris-Foulkes estimate   =     -32.31702027 Ry
     estimated scf accuracy    <       4.72592764 Ry

     iteration # 22     ecut=    30.00 Ry     beta=0.70
     Davidson diagonalization with overlap
     ethr =  1.00E-02,  avg # of iterations =  1.0

     total cpu time spent up to now is        3.2 secs

     total energy              =     -31.79166801 Ry
     Harris-Foulkes estimate   =     -31.70381787 Ry
     estimated scf accuracy    <       1.32330974 Ry

     iteration # 23     ecut=    30.00 Ry     beta=0.70
     Davidson diagonalization with overlap
     ethr =  1.00E-02,  avg # of iterations =  1.0

     total cpu time spent up to now is        3.3 secs

     total energy              =     -32.00158264 Ry
     Harris-Foulkes estimate   =     -31.90321207 Ry
     estimated scf accuracy    <       3.52485065 Ry

     iteration # 24     ecut=    30.00 Ry     beta=0.70
     Davidson diagonalization with overlap
     ethr =  1.00E-02,  avg # of iterations =  1.0

     total cpu time spent up to now is        3.3 secs

     total energy              =     -32.03131471 Ry
     Harris-Foulkes estimate   =     -32.00525710 Ry
     estimated scf accuracy    <       3.98557735 Ry

     iteration # 25     ecut=    30.00 Ry     beta=0.70
     Davidson diagonalization with overlap
     ethr =  1.00E-02,  avg # of iterations =  1.0

     negative rho (up, down):  9.278E-07 0.000E+00

     total cpu time spent up to now is        3.4 secs

     total energy              =     -31.75084434 Ry
     Harris-Foulkes estimate   =     -32.03201095 Ry
     estimated scf accuracy    <       4.12059226 Ry

     iteration # 26     ecut=    30.00 Ry     beta=0.70
     Davidson diagonalization with overlap
     ethr =  1.00E-02,  avg # of iterations =  4.0

     negative rho (up, down):  5.315E-02 0.000E+00

     total cpu time spent up to now is        3.4 secs

     total energy              =     -31.53301810 Ry
     Harris-Foulkes estimate   =     -31.80516009 Ry
     estimated scf accuracy    <       1.74249769 Ry

     iteration # 27     ecut=    30.00 Ry     beta=0.70
     Davidson diagonalization with overlap
     ethr =  1.00E-02,  avg # of iterations =  1.0

     negative rho (up, down):  1.505E-01 0.000E+00

     total cpu time spent up to now is        3.5 secs

     total energy              =     -31.55565801 Ry
     Harris-Foulkes estimate   =     -31.55664226 Ry
     estimated scf accuracy    <       0.02802252 Ry

     iteration # 28     ecut=    30.00 Ry     beta=0.70
     Davidson diagonalization with overlap
     ethr =  3.50E-04,  avg # of iterations =  3.0

     negative rho (up, down):  1.310E-02 0.000E+00

     total cpu time spent up to now is        3.5 secs

     total energy              =     -31.87344337 Ry
     Harris-Foulkes estimate   =     -31.67578428 Ry
     estimated scf accuracy    <       2.76469073 Ry

     iteration # 29     ecut=    30.00 Ry     beta=0.70
     Davidson diagonalization with overlap
     ethr =  3.50E-04,  avg # of iterations =  3.0

     negative rho (up, down):  2.377E-03 0.000E+00

     total cpu time spent up to now is        3.6 secs

     total energy              =     -31.63062464 Ry
     Harris-Foulkes estimate   =     -31.88582612 Ry
     estimated scf accuracy    <       3.61215992 Ry

     iteration # 30     ecut=    30.00 Ry     beta=0.70
     Davidson diagonalization with overlap
     ethr =  3.50E-04,  avg # of iterations =  2.0

     negative rho (up, down):  1.147E-03 0.000E+00

     total cpu time spent up to now is        3.7 secs

     total energy              =     -31.60532318 Ry
     Harris-Foulkes estimate   =     -31.64779591 Ry
     estimated scf accuracy    <       2.18234163 Ry

     iteration # 31     ecut=    30.00 Ry     beta=0.70
     Davidson diagonalization with overlap
     ethr =  3.50E-04,  avg # of iterations =  1.0

     negative rho (up, down):  2.648E-03 0.000E+00

     total cpu time spent up to now is        3.7 secs

     total energy              =     -31.63124605 Ry
     Harris-Foulkes estimate   =     -31.60757855 Ry
     estimated scf accuracy    <       1.92619382 Ry

     iteration # 32     ecut=    30.00 Ry     beta=0.70
     Davidson diagonalization with overlap
     ethr =  3.50E-04,  avg # of iterations =  1.0

     negative rho (up, down):  2.904E-03 0.000E+00

     total cpu time spent up to now is        3.8 secs

     total energy              =     -31.63423334 Ry
     Harris-Foulkes estimate   =     -31.63681476 Ry
     estimated scf accuracy    <       2.43569502 Ry

     iteration # 33     ecut=    30.00 Ry     beta=0.70
     Davidson diagonalization with overlap
     ethr =  3.50E-04,  avg # of iterations =  1.0

     negative rho (up, down):  3.696E-03 0.000E+00

     total cpu time spent up to now is        3.8 secs

     total energy              =     -31.65048609 Ry
     Harris-Foulkes estimate   =     -31.63639149 Ry
     estimated scf accuracy    <       1.91356856 Ry

     iteration # 34     ecut=    30.00 Ry     beta=0.70
     Davidson diagonalization with overlap
     ethr =  3.50E-04,  avg # of iterations =  1.0

     negative rho (up, down):  1.265E-02 0.000E+00

     total cpu time spent up to now is        3.8 secs

     total energy              =     -31.75549258 Ry
     Harris-Foulkes estimate   =     -31.65047744 Ry
     estimated scf accuracy    <       1.91275825 Ry

     iteration # 35     ecut=    30.00 Ry     beta=0.70
     Davidson diagonalization with overlap
     ethr =  3.50E-04,  avg # of iterations =  2.0

     negative rho (up, down):  3.159E-05 0.000E+00

     total cpu time spent up to now is        3.9 secs

     total energy              =     -31.58540466 Ry
     Harris-Foulkes estimate   =     -31.75717722 Ry
     estimated scf accuracy    <       2.07958579 Ry

     iteration # 36     ecut=    30.00 Ry     beta=0.70
     Davidson diagonalization with overlap
     ethr =  3.50E-04,  avg # of iterations =  1.0

     negative rho (up, down):  5.010E-05 0.000E+00

     total cpu time spent up to now is        3.9 secs

     total energy              =     -31.32485938 Ry
     Harris-Foulkes estimate   =     -31.60895216 Ry
     estimated scf accuracy    <       1.27600904 Ry

     iteration # 37     ecut=    30.00 Ry     beta=0.70
     Davidson diagonalization with overlap
     ethr =  3.50E-04,  avg # of iterations =  4.0

     negative rho (up, down):  2.023E-05 0.000E+00

     total cpu time spent up to now is        4.0 secs

     total energy              =     -31.70098918 Ry
     Harris-Foulkes estimate   =     -31.86951447 Ry
     estimated scf accuracy    <       2.80603972 Ry

     iteration # 38     ecut=    30.00 Ry     beta=0.70
     Davidson diagonalization with overlap
     ethr =  3.50E-04,  avg # of iterations =  2.0

     negative rho (up, down):  2.767E-04 0.000E+00

     total cpu time spent up to now is        4.1 secs

     total energy              =     -31.49781876 Ry
     Harris-Foulkes estimate   =     -31.70860616 Ry
     estimated scf accuracy    <       2.14974913 Ry

     iteration # 39     ecut=    30.00 Ry     beta=0.70
     Davidson diagonalization with overlap
     ethr =  3.50E-04,  avg # of iterations =  2.0

     negative rho (up, down):  2.735E-04 0.000E+00

     total cpu time spent up to now is        4.1 secs

     total energy              =     -31.56179251 Ry
     Harris-Foulkes estimate   =     -31.56380691 Ry
     estimated scf accuracy    <       0.59391518 Ry

     iteration # 40     ecut=    30.00 Ry     beta=0.70
     Davidson diagonalization with overlap
     ethr =  3.50E-04,  avg # of iterations =  1.0

     negative rho (up, down):  1.133E-04 0.000E+00

     total cpu time spent up to now is        4.2 secs

     total energy              =     -31.53630690 Ry
     Harris-Foulkes estimate   =     -31.56196626 Ry
     estimated scf accuracy    <       0.48544816 Ry

     iteration # 41     ecut=    30.00 Ry     beta=0.70
     Davidson diagonalization with overlap
     ethr =  3.50E-04,  avg # of iterations =  1.0

     negative rho (up, down):  8.731E-05 0.000E+00

     total cpu time spent up to now is        4.2 secs

     total energy              =     -31.54628338 Ry
     Harris-Foulkes estimate   =     -31.56250457 Ry
     estimated scf accuracy    <       0.44668247 Ry

     iteration # 42     ecut=    30.00 Ry     beta=0.70
     Davidson diagonalization with overlap
     ethr =  3.50E-04,  avg # of iterations =  1.0

     negative rho (up, down):  3.702E-06 0.000E+00

     total cpu time spent up to now is        4.3 secs

     total energy              =     -31.55261086 Ry
     Harris-Foulkes estimate   =     -31.55638796 Ry
     estimated scf accuracy    <       0.05250245 Ry

     iteration # 43     ecut=    30.00 Ry     beta=0.70
     Davidson diagonalization with overlap
     ethr =  3.50E-04,  avg # of iterations =  1.0

     negative rho (up, down):  3.158E-08 0.000E+00

     total cpu time spent up to now is        4.3 secs

     total energy              =     -31.55734391 Ry
     Harris-Foulkes estimate   =     -31.55704625 Ry
     estimated scf accuracy    <       0.12709284 Ry

     iteration # 44     ecut=    30.00 Ry     beta=0.70
     Davidson diagonalization with overlap
     ethr =  3.50E-04,  avg # of iterations =  1.0

     negative rho (up, down):  2.073E-07 0.000E+00

     total cpu time spent up to now is        4.3 secs

     total energy              =     -31.55624255 Ry
     Harris-Foulkes estimate   =     -31.55749971 Ry
     estimated scf accuracy    <       0.15053378 Ry

     iteration # 45     ecut=    30.00 Ry     beta=0.70
     Davidson diagonalization with overlap
     ethr =  3.50E-04,  avg # of iterations =  1.0

     total cpu time spent up to now is        4.4 secs

     total energy              =     -31.55289721 Ry
     Harris-Foulkes estimate   =     -31.55641259 Ry
     estimated scf accuracy    <       0.07742759 Ry

     iteration # 46     ecut=    30.00 Ry     beta=0.70
     Davidson diagonalization with overlap
     ethr =  3.50E-04,  avg # of iterations =  1.0

     total cpu time spent up to now is        4.5 secs

     total energy              =     -31.55532105 Ry
     Harris-Foulkes estimate   =     -31.55585831 Ry
     estimated scf accuracy    <       0.04561446 Ry

     iteration # 47     ecut=    30.00 Ry     beta=0.70
     Davidson diagonalization with overlap
     ethr =  3.50E-04,  avg # of iterations =  1.0

     total cpu time spent up to now is        4.5 secs

     total energy              =     -31.55506026 Ry
     Harris-Foulkes estimate   =     -31.55545684 Ry
     estimated scf accuracy    <       0.01193128 Ry

     iteration # 48     ecut=    30.00 Ry     beta=0.70
     Davidson diagonalization with overlap
     ethr =  1.49E-04,  avg # of iterations =  1.0

     total cpu time spent up to now is        4.5 secs

     total energy              =     -31.55533289 Ry
     Harris-Foulkes estimate   =     -31.55534333 Ry
     estimated scf accuracy    <       0.00200990 Ry

     iteration # 49     ecut=    30.00 Ry     beta=0.70
     Davidson diagonalization with overlap
     ethr =  2.51E-05,  avg # of iterations =  1.0

     total cpu time spent up to now is        4.6 secs

     total energy              =     -31.55527905 Ry
     Harris-Foulkes estimate   =     -31.55533515 Ry
     estimated scf accuracy    <       0.00200240 Ry

     iteration # 50     ecut=    30.00 Ry     beta=0.70
     Davidson diagonalization with overlap
     ethr =  2.50E-05,  avg # of iterations =  1.0

     total cpu time spent up to now is        4.6 secs

     total energy              =     -31.55530701 Ry
     Harris-Foulkes estimate   =     -31.55530795 Ry
     estimated scf accuracy    <       0.00001596 Ry

     iteration # 51     ecut=    30.00 Ry     beta=0.70
     Davidson diagonalization with overlap
     ethr =  1.99E-07,  avg # of iterations = 18.0

     total cpu time spent up to now is        4.7 secs

     total energy              =     -31.55530614 Ry
     Harris-Foulkes estimate   =     -31.55530715 Ry
     estimated scf accuracy    <       0.00001927 Ry

     iteration # 52     ecut=    30.00 Ry     beta=0.70
     Davidson diagonalization with overlap
     ethr =  1.99E-07,  avg # of iterations =  1.0

     total cpu time spent up to now is        4.8 secs

     total energy              =     -31.55530650 Ry
     Harris-Foulkes estimate   =     -31.55530662 Ry
     estimated scf accuracy    <       0.00000350 Ry

     iteration # 53     ecut=    30.00 Ry     beta=0.70
     Davidson diagonalization with overlap
     ethr =  4.37E-08,  avg # of iterations =  1.0

     total cpu time spent up to now is        4.8 secs

     total energy              =     -31.55530650 Ry
     Harris-Foulkes estimate   =     -31.55530653 Ry
     estimated scf accuracy    <       0.00000013 Ry

     iteration # 54     ecut=    30.00 Ry     beta=0.70
     Davidson diagonalization with overlap
     ethr =  1.68E-09,  avg # of iterations =  1.0

     total cpu time spent up to now is        4.8 secs

     End of self-consistent calculation

          k = 0.0000 0.0000 0.0000 ( 22119 PWs)   bands (ev):

   -23.6837  -7.7167  -7.0177  -7.0174  -6.8963  -6.4895  -0.1502   0.7078

     the Fermi energy is    -6.8583 ev

!    total energy              =     -31.55530641 Ry
     Harris-Foulkes estimate   =     -31.55530650 Ry
     estimated scf accuracy    <          1.1E-10 Ry

     convergence has been achieved in  54 iterations

     Forces acting on atoms (Ry/au):

     atom    1 type  2   force =     0.00469146   -0.05662807    0.01551817
     atom    2 type  1   force =    -0.00389231    0.05595295   -0.01535881
     atom    3 type  1   force =    -0.00079915    0.00067512   -0.00015936

     Total force =     0.082780     Total SCF correction =     0.000077

     Entering Dynamics:    iteration =     2
                           time      =   0.0097 pico-seconds


     Andersen thermostat:    3 collisions

ATOMIC_POSITIONS (bohr)
O        2.842135576   2.605045065  14.128349328
H        2.827214121  -1.000642862  15.527935960
H        5.714298721  12.355292333   0.420808891


     kinetic energy (Ekin) =     0.03889251 Ry
     temperature           =  2046.87836622 K 
     Ekin + Etot (const)   =   -31.51641390 Ry
     Message from routine dynamics:
     Total linear momentum <> 0

     Linear momentum :   -0.3386610173   -0.0918021570    0.3942688615

     Writing output data file pwscf.save

     first order wave-functions extrapolation
     Check: negative starting charge=   -0.343611
     first order charge density extrapolation
     Check: negative starting charge=   -0.344342

     negative rho (up, down):  5.712E-01 0.000E+00

     total cpu time spent up to now is        5.3 secs

     per-process dynamical memory:    20.4 Mb

     Self-consistent Calculation

     iteration #  1     ecut=    30.00 Ry     beta=0.70
     Davidson diagonalization with overlap
     ethr =  1.00E-06,  avg # of iterations = 10.0

     negative rho (up, down):  1.308E-01 0.000E+00

     total cpu time spent up to now is        5.6 secs

     total energy              =      48.62150640 Ry
     Harris-Foulkes estimate   =    -113.24606047 Ry
     estimated scf accuracy    <      22.80419320 Ry

     iteration #  2     ecut=    30.00 Ry     beta=0.70
     Davidson diagonalization with overlap
     ethr =  1.00E-02,  avg # of iterations =  6.0

     negative rho (up, down):  8.073E-02 0.000E+00

     total cpu time spent up to now is        5.7 secs

     total energy              =     -34.45402671 Ry
     Harris-Foulkes estimate   =     -44.14797644 Ry
     estimated scf accuracy    <      19.22445677 Ry

     iteration #  3     ecut=    30.00 Ry     beta=0.70
     Davidson diagonalization with overlap
     ethr =  1.00E-02,  avg # of iterations =  2.0

     negative rho (up, down):  7.242E-02 0.000E+00

     total cpu time spent up to now is        5.8 secs

     total energy              =     -33.76462496 Ry
     Harris-Foulkes estimate   =     -35.24678516 Ry
     estimated scf accuracy    <       8.74356215 Ry

     iteration #  4     ecut=    30.00 Ry     beta=0.70
     Davidson diagonalization with overlap
     ethr =  1.00E-02,  avg # of iterations =  1.0

     negative rho (up, down):  4.359E-02 0.000E+00

     total cpu time spent up to now is        5.8 secs

     total energy              =     -32.13579379 Ry
     Harris-Foulkes estimate   =     -34.30957388 Ry
     estimated scf accuracy    <       5.30560246 Ry

     iteration #  5     ecut=    30.00 Ry     beta=0.70
     Davidson diagonalization with overlap
     ethr =  1.00E-02,  avg # of iterations =  1.0

     negative rho (up, down):  2.248E-02 0.000E+00

     total cpu time spent up to now is        5.9 secs

     total energy              =     -31.29983698 Ry
     Harris-Foulkes estimate   =     -32.18988402 Ry
     estimated scf accuracy    <       2.33748233 Ry

     iteration #  6     ecut=    30.00 Ry     beta=0.70
     Davidson diagonalization with overlap
     ethr =  1.00E-02,  avg # of iterations =  3.0

     negative rho (up, down):  2.139E-02 0.000E+00

     total cpu time spent up to now is        5.9 secs

     total energy              =     -31.80336553 Ry
     Harris-Foulkes estimate   =     -31.88914996 Ry
     estimated scf accuracy    <       1.45523033 Ry

     iteration #  7     ecut=    30.00 Ry     beta=0.70
     Davidson diagonalization with overlap
     ethr =  1.00E-02,  avg # of iterations =  1.0

     negative rho (up, down):  1.905E-02 0.000E+00

     total cpu time spent up to now is        6.0 secs

     total energy              =     -31.74761946 Ry
     Harris-Foulkes estimate   =     -31.82697855 Ry
     estimated scf accuracy    <       1.50661052 Ry

     iteration #  8     ecut=    30.00 Ry     beta=0.70
     Davidson diagonalization with overlap
     ethr =  1.00E-02,  avg # of iterations =  1.0

     negative rho (up, down):  1.253E-02 0.000E+00

     total cpu time spent up to now is        6.0 secs

     total energy              =     -31.50675520 Ry
     Harris-Foulkes estimate   =     -31.75109301 Ry
     estimated scf accuracy    <       1.26323471 Ry

     iteration #  9     ecut=    30.00 Ry     beta=0.70
     Davidson diagonalization with overlap
     ethr =  1.00E-02,  avg # of iterations =  1.0

     negative rho (up, down):  1.503E-02 0.000E+00

     total cpu time spent up to now is        6.1 secs

     total energy              =     -31.84106348 Ry
     Harris-Foulkes estimate   =     -31.76740916 Ry
     estimated scf accuracy    <       1.80618786 Ry

     iteration # 10     ecut=    30.00 Ry     beta=0.70
     Davidson diagonalization with overlap
     ethr =  1.00E-02,  avg # of iterations =  1.0

     negative rho (up, down):  1.919E-04 0.000E+00

     total cpu time spent up to now is        6.1 secs

     total energy              =     -32.31027555 Ry
     Harris-Foulkes estimate   =     -31.86327602 Ry
     estimated scf accuracy    <       1.60539880 Ry

     iteration # 11     ecut=    30.00 Ry     beta=0.70
     Davidson diagonalization with overlap
     ethr =  1.00E-02,  avg # of iterations =  1.0

     negative rho (up, down):  4.687E-04 0.000E+00

     total cpu time spent up to now is        6.2 secs

     total energy              =     -32.40964065 Ry
     Harris-Foulkes estimate   =     -32.38438372 Ry
     estimated scf accuracy    <       3.16308955 Ry

     iteration # 12     ecut=    30.00 Ry     beta=0.70
     Davidson diagonalization with overlap
     ethr =  1.00E-02,  avg # of iterations =  1.0

     negative rho (up, down):  1.498E-04 0.000E+00

     total cpu time spent up to now is        6.2 secs

     total energy              =     -32.17499854 Ry
     Harris-Foulkes estimate   =     -32.41595873 Ry
     estimated scf accuracy    <       3.65913930 Ry

     iteration # 13     ecut=    30.00 Ry     beta=0.70
     Davidson diagonalization with overlap
     ethr =  1.00E-02,  avg # of iterations =  2.0

     negative rho (up, down):  1.667E-02 0.000E+00

     total cpu time spent up to now is        6.3 secs

     total energy              =     -31.89148593 Ry
     Harris-Foulkes estimate   =     -32.34562610 Ry
     estimated scf accuracy    <       5.28096080 Ry

     iteration # 14     ecut=    30.00 Ry     beta=0.70
     Davidson diagonalization with overlap
     ethr =  1.00E-02,  avg # of iterations =  2.0

     negative rho (up, down):  4.398E-02 0.000E+00

     total cpu time spent up to now is        6.3 secs

     total energy              =     -32.26119622 Ry
     Harris-Foulkes estimate   =     -32.26925084 Ry
     estimated scf accuracy    <       2.09101085 Ry

     iteration # 15     ecut=    30.00 Ry     beta=0.70
     Davidson diagonalization with overlap
     ethr =  1.00E-02,  avg # of iterations =  1.0

     negative rho (up, down):  4.952E-02 0.000E+00

     total cpu time spent up to now is        6.4 secs

     total energy              =     -32.22927243 Ry
     Harris-Foulkes estimate   =     -32.27221192 Ry
     estimated scf accuracy    <       2.25696923 Ry

     iteration # 16     ecut=    30.00 Ry     beta=0.70
     Davidson diagonalization with overlap
     ethr =  1.00E-02,  avg # of iterations =  1.0

     negative rho (up, down):  5.543E-02 0.000E+00

     total cpu time spent up to now is        6.4 secs

     total energy              =     -32.23851777 Ry
     Harris-Foulkes estimate   =     -32.23315158 Ry
     estimated scf accuracy    <       2.37980415 Ry

     iteration # 17     ecut=    30.00 Ry     beta=0.70
     Davidson diagonalization with overlap
     ethr =  1.00E-02,  avg # of iterations =  1.0

     negative rho (up, down):  2.089E-01 0.000E+00

     total cpu time spent up to now is        6.5 secs

     total energy              =     -30.94536902 Ry
     Harris-Foulkes estimate   =     -32.23880114 Ry
     estimated scf accuracy    <       2.39378210 Ry

     iteration # 18     ecut=    30.00 Ry     beta=0.70
     Davidson diagonalization with overlap
     ethr =  1.00E-02,  avg # of iterations =  2.0

     negative rho (up, down):  7.366E-03 0.000E+00

     total cpu time spent up to now is        6.5 secs

     total energy              =     -31.76289673 Ry
     Harris-Foulkes estimate   =     -32.80311090 Ry
     estimated scf accuracy    <       2.32543984 Ry

     iteration # 19     ecut=    30.00 Ry     beta=0.70
     Davidson diagonalization with overlap
     ethr =  1.00E-02,  avg # of iterations =  2.0

     negative rho (up, down):  1.469E-03 0.000E+00

     total cpu time spent up to now is        6.6 secs

     total energy              =     -31.67770805 Ry
     Harris-Foulkes estimate   =     -31.84799329 Ry
     estimated scf accuracy    <       1.26251684 Ry

     iteration # 20     ecut=    30.00 Ry     beta=0.70
     Davidson diagonalization with overlap
     ethr =  1.00E-02,  avg # of iterations =  1.0

     negative rho (up, down):  6.753E-06 0.000E+00

     total cpu time spent up to now is        6.6 secs

     total energy              =     -31.42221209 Ry
     Harris-Foulkes estimate   =     -31.68079153 Ry
     estimated scf accuracy    <       0.89321572 Ry

     iteration # 21     ecut=    30.00 Ry     beta=0.70
     Davidson diagonalization with overlap
     ethr =  1.00E-02,  avg # of iterations =  2.0

     negative rho (up, down):  3.195E-05 0.000E+00

     total cpu time spent up to now is        6.7 secs

     total energy              =     -31.67380942 Ry
     Harris-Foulkes estimate   =     -31.95037941 Ry
     estimated scf accuracy    <       1.67904594 Ry

     iteration # 22     ecut=    30.00 Ry     beta=0.70
     Davidson diagonalization with overlap
     ethr =  1.00E-02,  avg # of iterations =  1.0

     negative rho (up, down):  4.346E-02 0.000E+00

     total cpu time spent up to now is        6.7 secs

     total energy              =     -32.24985373 Ry
     Harris-Foulkes estimate   =     -31.67692856 Ry
     estimated scf accuracy    <       1.45368716 Ry

     iteration # 23     ecut=    30.00 Ry     beta=0.70
     Davidson diagonalization with overlap
     ethr =  1.00E-02,  avg # of iterations =  1.0

     negative rho (up, down):  6.830E-02 0.000E+00

     total cpu time spent up to now is        6.8 secs

     total energy              =     -32.34778791 Ry
     Harris-Foulkes estimate   =     -32.23112980 Ry
     estimated scf accuracy    <       2.34681087 Ry

     iteration # 24     ecut=    30.00 Ry     beta=0.70
     Davidson diagonalization with overlap
     ethr =  1.00E-02,  avg # of iterations =  1.0

     negative rho (up, down):  1.631E-01 0.000E+00

     total cpu time spent up to now is        6.8 secs

     total energy              =     -32.61214096 Ry
     Harris-Foulkes estimate   =     -32.35053821 Ry
     estimated scf accuracy    <       2.60355777 Ry

     iteration # 25     ecut=    30.00 Ry     beta=0.70
     Davidson diagonalization with overlap
     ethr =  1.00E-02,  avg # of iterations =  1.0

     negative rho (up, down):  5.886E-02 0.000E+00

     total cpu time spent up to now is        6.9 secs

     total energy              =     -32.28627501 Ry
     Harris-Foulkes estimate   =     -32.62363605 Ry
     estimated scf accuracy    <       3.35023134 Ry

     iteration # 26     ecut=    30.00 Ry     beta=0.70
     Davidson diagonalization with overlap
     ethr =  1.00E-02,  avg # of iterations =  1.0

     negative rho (up, down):  6.586E-02 0.000E+00

     total cpu time spent up to now is        6.9 secs

     total energy              =     -32.24019473 Ry
     Harris-Foulkes estimate   =     -32.29813994 Ry
     estimated scf accuracy    <       2.56531088 Ry

     iteration # 27     ecut=    30.00 Ry     beta=0.70
     Davidson diagonalization with overlap
     ethr =  1.00E-02,  avg # of iterations =  1.0

     negative rho (up, down):  2.102E-02 0.000E+00

     total cpu time spent up to now is        7.0 secs

     total energy              =     -31.44403479 Ry
     Harris-Foulkes estimate   =     -32.24165856 Ry
     estimated scf accuracy    <       2.42331406 Ry

     iteration # 28     ecut=    30.00 Ry     beta=0.70
     Davidson diagonalization with overlap
     ethr =  1.00E-02,  avg # of iterations =  2.0

     negative rho (up, down):  1.193E-02 0.000E+00

     total cpu time spent up to now is        7.0 secs

     total energy              =     -31.73342045 Ry
     Harris-Foulkes estimate   =     -31.77139820 Ry
     estimated scf accuracy    <       1.11612801 Ry

     iteration # 29     ecut=    30.00 Ry     beta=0.70
     Davidson diagonalization with overlap
     ethr =  1.00E-02,  avg # of iterations =  1.0

     negative rho (up, down):  8.052E-03 0.000E+00

     total cpu time spent up to now is        7.1 secs

     total energy              =     -31.72307511 Ry
     Harris-Foulkes estimate   =     -31.73465761 Ry
     estimated scf accuracy    <       1.03899903 Ry

     iteration # 30     ecut=    30.00 Ry     beta=0.70
     Davidson diagonalization with overlap
     ethr =  1.00E-02,  avg # of iterations =  1.0

     negative rho (up, down):  2.808E-03 0.000E+00

     total cpu time spent up to now is        7.1 secs

     total energy              =     -31.64988720 Ry
     Harris-Foulkes estimate   =     -31.72312936 Ry
     estimated scf accuracy    <       1.03039614 Ry

     iteration # 31     ecut=    30.00 Ry     beta=0.70
     Davidson diagonalization with overlap
     ethr =  1.00E-02,  avg # of iterations =  1.0

     negative rho (up, down):  9.423E-04 0.000E+00

     total cpu time spent up to now is        7.2 secs

     total energy              =     -31.64079053 Ry
     Harris-Foulkes estimate   =     -31.65570060 Ry
     estimated scf accuracy    <       0.23710283 Ry

     iteration # 32     ecut=    30.00 Ry     beta=0.70
     Davidson diagonalization with overlap
     ethr =  2.96E-03,  avg # of iterations =  1.0

     negative rho (up, down):  1.401E-08 0.000E+00

     total cpu time spent up to now is        7.2 secs

     total energy              =     -31.76752582 Ry
     Harris-Foulkes estimate   =     -31.65773639 Ry
     estimated scf accuracy    <       0.46280043 Ry

     iteration # 33     ecut=    30.00 Ry     beta=0.70
     Davidson diagonalization with overlap
     ethr =  2.96E-03,  avg # of iterations =  1.0

     negative rho (up, down):  1.483E-08 0.000E+00

     total cpu time spent up to now is        7.3 secs

     total energy              =     -31.82614344 Ry
     Harris-Foulkes estimate   =     -31.83223076 Ry
     estimated scf accuracy    <       1.49424910 Ry

     iteration # 34     ecut=    30.00 Ry     beta=0.70
     Davidson diagonalization with overlap
     ethr =  2.96E-03,  avg # of iterations =  1.0

     total cpu time spent up to now is        7.3 secs

     total energy              =     -31.84192959 Ry
     Harris-Foulkes estimate   =     -31.82622527 Ry
     estimated scf accuracy    <       1.48106217 Ry

     iteration # 35     ecut=    30.00 Ry     beta=0.70
     Davidson diagonalization with overlap
     ethr =  2.96E-03,  avg # of iterations =  1.0

     negative rho (up, down):  8.215E-05 0.000E+00

     total cpu time spent up to now is        7.4 secs

     total energy              =     -31.87326303 Ry
     Harris-Foulkes estimate   =     -31.84196518 Ry
     estimated scf accuracy    <       1.51509181 Ry

     iteration # 36     ecut=    30.00 Ry     beta=0.70
     Davidson diagonalization with overlap
     ethr =  2.96E-03,  avg # of iterations =  1.0

     negative rho (up, down):  2.601E-04 0.000E+00

     total cpu time spent up to now is        7.4 secs

     total energy              =     -31.86857188 Ry
     Harris-Foulkes estimate   =     -31.87341322 Ry
     estimated scf accuracy    <       1.58029538 Ry

     iteration # 37     ecut=    30.00 Ry     beta=0.70
     Davidson diagonalization with overlap
     ethr =  2.96E-03,  avg # of iterations =  1.0

     negative rho (up, down):  1.507E-02 0.000E+00

     total cpu time spent up to now is        7.5 secs

     total energy              =     -32.02772043 Ry
     Harris-Foulkes estimate   =     -31.86857894 Ry
     estimated scf accuracy    <       1.57509947 Ry

     iteration # 38     ecut=    30.00 Ry     beta=0.70
     Davidson diagonalization with overlap
     ethr =  2.96E-03,  avg # of iterations =  1.0

     negative rho (up, down):  2.923E-02 0.000E+00

     total cpu time spent up to now is        7.5 secs

     total energy              =     -32.11887244 Ry
     Harris-Foulkes estimate   =     -32.03028641 Ry
     estimated scf accuracy    <       1.91112227 Ry

     iteration # 39     ecut=    30.00 Ry     beta=0.70
     Davidson diagonalization with overlap
     ethr =  2.96E-03,  avg # of iterations =  1.0

     negative rho (up, down):  2.651E-02 0.000E+00

     total cpu time spent up to now is        7.6 secs

     total energy              =     -32.10395690 Ry
     Harris-Foulkes estimate   =     -32.12000883 Ry
     estimated scf accuracy    <       2.10319521 Ry

     iteration # 40     ecut=    30.00 Ry     beta=0.70
     Davidson diagonalization with overlap
     ethr =  2.96E-03,  avg # of iterations =  1.0

     negative rho (up, down):  3.156E-02 0.000E+00

     total cpu time spent up to now is        7.6 secs

     total energy              =     -30.99765899 Ry
     Harris-Foulkes estimate   =     -32.10406003 Ry
     estimated scf accuracy    <       2.07558238 Ry

     iteration # 41     ecut=    30.00 Ry     beta=0.70
     Davidson diagonalization with overlap
     ethr =  2.96E-03,  avg # of iterations =  3.0

     negative rho (up, down):  2.379E-03 0.000E+00

     total cpu time spent up to now is        7.7 secs

     total energy              =     -32.03509932 Ry
     Harris-Foulkes estimate   =     -32.47211111 Ry
     estimated scf accuracy    <       2.32425090 Ry

     iteration # 42     ecut=    30.00 Ry     beta=0.70
     Davidson diagonalization with overlap
     ethr =  2.96E-03,  avg # of iterations =  1.0

     negative rho (up, down):  1.073E-04 0.000E+00

     total cpu time spent up to now is        7.7 secs

     total energy              =     -31.72621239 Ry
     Harris-Foulkes estimate   =     -32.04033670 Ry
     estimated scf accuracy    <       1.59481330 Ry

     iteration # 43     ecut=    30.00 Ry     beta=0.70
     Davidson diagonalization with overlap
     ethr =  2.96E-03,  avg # of iterations =  1.0

     negative rho (up, down):  4.690E-05 0.000E+00

     total cpu time spent up to now is        7.8 secs

     total energy              =     -31.67729708 Ry
     Harris-Foulkes estimate   =     -31.73071418 Ry
     estimated scf accuracy    <       1.06338211 Ry

     iteration # 44     ecut=    30.00 Ry     beta=0.70
     Davidson diagonalization with overlap
     ethr =  2.96E-03,  avg # of iterations =  1.0

     negative rho (up, down):  1.623E-05 0.000E+00

     total cpu time spent up to now is        7.8 secs

     total energy              =     -31.63827657 Ry
     Harris-Foulkes estimate   =     -31.67773915 Ry
     estimated scf accuracy    <       0.91364497 Ry

     iteration # 45     ecut=    30.00 Ry     beta=0.70
     Davidson diagonalization with overlap
     ethr =  2.96E-03,  avg # of iterations =  1.0

     negative rho (up, down):  1.162E-04 0.000E+00

     total cpu time spent up to now is        7.9 secs

     total energy              =     -31.65743202 Ry
     Harris-Foulkes estimate   =     -31.65196217 Ry
     estimated scf accuracy    <       0.00042424 Ry

     iteration # 46     ecut=    30.00 Ry     beta=0.70
     Davidson diagonalization with overlap
     ethr =  5.30E-06,  avg # of iterations =  7.0

     negative rho (up, down):  1.311E-04 0.000E+00

     total cpu time spent up to now is        7.9 secs

     total energy              =     -31.78034536 Ry
     Harris-Foulkes estimate   =     -31.73480879 Ry
     estimated scf accuracy    <       1.07397296 Ry

     iteration # 47     ecut=    30.00 Ry     beta=0.70
     Davidson diagonalization with overlap
     ethr =  5.30E-06,  avg # of iterations =  5.0

     negative rho (up, down):  3.925E-06 0.000E+00

     total cpu time spent up to now is        8.0 secs

     total energy              =     -31.65653251 Ry
     Harris-Foulkes estimate   =     -31.78050528 Ry
     estimated scf accuracy    <       1.15534573 Ry

     iteration # 48     ecut=    30.00 Ry     beta=0.70
     Davidson diagonalization with overlap
     ethr =  5.30E-06,  avg # of iterations =  7.0

     total cpu time spent up to now is        8.1 secs

     total energy              =     -31.58796404 Ry
     Harris-Foulkes estimate   =     -31.66028122 Ry
     estimated scf accuracy    <       0.47748921 Ry

     iteration # 49     ecut=    30.00 Ry     beta=0.70
     Davidson diagonalization with overlap
     ethr =  5.30E-06,  avg # of iterations =  8.0

     total cpu time spent up to now is        8.2 secs

     total energy              =     -31.71063380 Ry
     Harris-Foulkes estimate   =     -31.73961794 Ry
     estimated scf accuracy    <       1.30858714 Ry

     iteration # 50     ecut=    30.00 Ry     beta=0.70
     Davidson diagonalization with overlap
     ethr =  5.30E-06,  avg # of iterations =  2.0

     total cpu time spent up to now is        8.3 secs

     total energy              =     -31.71834889 Ry
     Harris-Foulkes estimate   =     -31.71046068 Ry
     estimated scf accuracy    <       1.34167378 Ry

     iteration # 51     ecut=    30.00 Ry     beta=0.70
     Davidson diagonalization with overlap
     ethr =  5.30E-06,  avg # of iterations =  1.0

     negative rho (up, down):  1.034E-08 0.000E+00

     total cpu time spent up to now is        8.3 secs

     total energy              =     -31.69600258 Ry
     Harris-Foulkes estimate   =     -31.71826463 Ry
     estimated scf accuracy    <       1.30189469 Ry

     iteration # 52     ecut=    30.00 Ry     beta=0.70
     Davidson diagonalization with overlap
     ethr =  5.30E-06,  avg # of iterations =  2.0

     total cpu time spent up to now is        8.3 secs

     total energy              =     -31.66676805 Ry
     Harris-Foulkes estimate   =     -31.69515375 Ry
     estimated scf accuracy    <       1.52231234 Ry

     iteration # 53     ecut=    30.00 Ry     beta=0.70
     Davidson diagonalization with overlap
     ethr =  5.30E-06,  avg # of iterations =  4.0

     total cpu time spent up to now is        8.4 secs

     total energy              =     -31.60265210 Ry
     Harris-Foulkes estimate   =     -31.66716104 Ry
     estimated scf accuracy    <       1.08253818 Ry

     iteration # 54     ecut=    30.00 Ry     beta=0.70
     Davidson diagonalization with overlap
     ethr =  5.30E-06,  avg # of iterations =  5.0

     total cpu time spent up to now is        8.5 secs

     total energy              =     -31.62855096 Ry
     Harris-Foulkes estimate   =     -31.67168206 Ry
     estimated scf accuracy    <       0.82986135 Ry

     iteration # 55     ecut=    30.00 Ry     beta=0.70
     Davidson diagonalization with overlap
     ethr =  5.30E-06,  avg # of iterations =  4.0

     total cpu time spent up to now is        8.5 secs

     total energy              =     -31.64074501 Ry
     Harris-Foulkes estimate   =     -31.65523882 Ry
     estimated scf accuracy    <       0.26061466 Ry

     iteration # 56     ecut=    30.00 Ry     beta=0.70
     Davidson diagonalization with overlap
     ethr =  5.30E-06,  avg # of iterations =  3.0

     total cpu time spent up to now is        8.6 secs

     total energy              =     -31.64544104 Ry
     Harris-Foulkes estimate   =     -31.65691614 Ry
     estimated scf accuracy    <       0.31383108 Ry

     iteration # 57     ecut=    30.00 Ry     beta=0.70
     Davidson diagonalization with overlap
     ethr =  5.30E-06,  avg # of iterations =  2.0

     total cpu time spent up to now is        8.6 secs

     total energy              =     -31.65369953 Ry
     Harris-Foulkes estimate   =     -31.65242165 Ry
     estimated scf accuracy    <       0.03045126 Ry

     iteration # 58     ecut=    30.00 Ry     beta=0.70
     Davidson diagonalization with overlap
     ethr =  5.30E-06,  avg # of iterations =  1.0

     total cpu time spent up to now is        8.7 secs

     total energy              =     -31.64988398 Ry
     Harris-Foulkes estimate   =     -31.65474886 Ry
     estimated scf accuracy    <       0.22087246 Ry

     iteration # 59     ecut=    30.00 Ry     beta=0.70
     Davidson diagonalization with overlap
     ethr =  5.30E-06,  avg # of iterations =  1.0

     total cpu time spent up to now is        8.7 secs

     total energy              =     -31.65196974 Ry
     Harris-Foulkes estimate   =     -31.65206936 Ry
     estimated scf accuracy    <       0.00202648 Ry

     iteration # 60     ecut=    30.00 Ry     beta=0.70
     Davidson diagonalization with overlap
     ethr =  5.30E-06,  avg # of iterations =  1.0

     total cpu time spent up to now is        8.8 secs

     total energy              =     -31.65196563 Ry
     Harris-Foulkes estimate   =     -31.65207024 Ry
     estimated scf accuracy    <       0.00197362 Ry

     iteration # 61     ecut=    30.00 Ry     beta=0.70
     Davidson diagonalization with overlap
     ethr =  5.30E-06,  avg # of iterations =  1.0

     total cpu time spent up to now is        8.8 secs

     total energy              =     -31.65206005 Ry
     Harris-Foulkes estimate   =     -31.65207626 Ry
     estimated scf accuracy    <       0.00249363 Ry

     iteration # 62     ecut=    30.00 Ry     beta=0.70
     Davidson diagonalization with overlap
     ethr =  5.30E-06,  avg # of iterations =  1.0

     total cpu time spent up to now is        8.9 secs

     total energy              =     -31.65205457 Ry
     Harris-Foulkes estimate   =     -31.65206212 Ry
     estimated scf accuracy    <       0.00137520 Ry

     iteration # 63     ecut=    30.00 Ry     beta=0.70
     Davidson diagonalization with overlap
     ethr =  5.30E-06,  avg # of iterations =  1.0

     total cpu time spent up to now is        8.9 secs

     total energy              =     -31.65205225 Ry
     Harris-Foulkes estimate   =     -31.65205537 Ry
     estimated scf accuracy    <       0.00084380 Ry

     iteration # 64     ecut=    30.00 Ry     beta=0.70
     Davidson diagonalization with overlap
     ethr =  5.30E-06,  avg # of iterations =  1.0

     total cpu time spent up to now is        9.0 secs

     total energy              =     -31.65205300 Ry
     Harris-Foulkes estimate   =     -31.65205246 Ry
     estimated scf accuracy    <       0.00061944 Ry

     iteration # 65     ecut=    30.00 Ry     beta=0.70
     Davidson diagonalization with overlap
     ethr =  5.30E-06,  avg # of iterations =  1.0

     total cpu time spent up to now is        9.0 secs

     total energy              =     -31.65203559 Ry
     Harris-Foulkes estimate   =     -31.65205300 Ry
     estimated scf accuracy    <       0.00065715 Ry

     iteration # 66     ecut=    30.00 Ry     beta=0.70
     Davidson diagonalization with overlap
     ethr =  5.30E-06,  avg # of iterations =  1.0

     total cpu time spent up to now is        9.1 secs

     total energy              =     -31.65204385 Ry
     Harris-Foulkes estimate   =     -31.65204411 Ry
     estimated scf accuracy    <       0.00000035 Ry

     iteration # 67     ecut=    30.00 Ry     beta=0.70
     Davidson diagonalization with overlap
     ethr =  4.40E-09,  avg # of iterations =  1.0

     total cpu time spent up to now is        9.1 secs

     total energy              =     -31.65204308 Ry
     Harris-Foulkes estimate   =     -31.65204388 Ry
     estimated scf accuracy    <       0.00000085 Ry

     iteration # 68     ecut=    30.00 Ry     beta=0.70
     Davidson diagonalization with overlap
     ethr =  4.40E-09,  avg # of iterations =  1.0

     total cpu time spent up to now is        9.1 secs

     End of self-consistent calculation

          k = 0.0000 0.0000 0.0000 ( 22119 PWs)   bands (ev):

   -23.6333  -8.3104  -6.9512  -6.9511  -6.8182  -5.4577  -0.1204   0.7626

     the Fermi energy is    -6.7830 ev

!    total energy              =     -31.65204273 Ry
     Harris-Foulkes estimate   =     -31.65204310 Ry
     estimated scf accuracy    <          8.1E-09 Ry

     convergence has been achieved in  68 iterations

     Forces acting on atoms (Ry/au):

     atom    1 type  2   force =     0.00100507   -0.11008835    0.04265231
     atom    2 type  1   force =    -0.00030191    0.11049962   -0.04301072
     atom    3 type  1   force =    -0.00070316   -0.00041127    0.00035840

     Total force =     0.167334     Total SCF correction =     0.000082

     Entering Dynamics:    iteration =     3
                           time      =   0.0145 pico-seconds


     Andersen thermostat:    3 collisions

ATOMIC_POSITIONS (bohr)
O        2.862090039   2.553706756  14.151206051
H        2.737974399   0.112916224  15.059356817
H        5.487428148  12.055013398   0.527301336


     kinetic energy (Ekin) =     0.02518981 Ry
     temperature           =  1325.71714517 K 
     Ekin + Etot (const)   =   -31.62685293 Ry
     Message from routine dynamics:
     Total linear momentum <> 0

     Linear momentum :    0.2548381434   -0.0525896603   -0.4046038244

     Writing output data file pwscf.save

     second order wave-functions extrapolation
     Check: negative starting charge=   -0.344342
     second order charge density extrapolation
     Check: negative starting charge=   -0.346361

     negative rho (up, down):  1.607E-01 0.000E+00

     total cpu time spent up to now is        9.6 secs

     per-process dynamical memory:    20.4 Mb

     Self-consistent Calculation

     iteration #  1     ecut=    30.00 Ry     beta=0.70
     Davidson diagonalization with overlap
     ethr =  1.00E-06,  avg # of iterations = 17.0

     negative rho (up, down):  1.928E-02 0.000E+00

     total cpu time spent up to now is        9.8 secs

     total energy              =      29.95972611 Ry
     Harris-Foulkes estimate   =     -83.69698433 Ry
     estimated scf accuracy    <      22.05841864 Ry

     iteration #  2     ecut=    30.00 Ry     beta=0.70
     Davidson diagonalization with overlap
     ethr =  1.00E-02,  avg # of iterations =  5.0

     negative rho (up, down):  1.200E-02 0.000E+00

     total cpu time spent up to now is        9.9 secs

     total energy              =     -34.03068136 Ry
     Harris-Foulkes estimate   =     -44.43946767 Ry
     estimated scf accuracy    <      19.73478870 Ry

     iteration #  3     ecut=    30.00 Ry     beta=0.70
     Davidson diagonalization with overlap
     ethr =  1.00E-02,  avg # of iterations =  3.0

     negative rho (up, down):  9.410E-03 0.000E+00

     total cpu time spent up to now is        9.9 secs

     total energy              =     -33.91911552 Ry
     Harris-Foulkes estimate   =     -35.77089884 Ry
     estimated scf accuracy    <       6.73539240 Ry

     iteration #  4     ecut=    30.00 Ry     beta=0.70
     Davidson diagonalization with overlap
     ethr =  1.00E-02,  avg # of iterations =  1.0

     negative rho (up, down):  6.781E-03 0.000E+00

     total cpu time spent up to now is       10.0 secs

     total energy              =     -32.76548814 Ry
     Harris-Foulkes estimate   =     -34.26405845 Ry
     estimated scf accuracy    <       5.24737307 Ry

     iteration #  5     ecut=    30.00 Ry     beta=0.70
     Davidson diagonalization with overlap
     ethr =  1.00E-02,  avg # of iterations =  1.0

     negative rho (up, down):  5.836E-03 0.000E+00

     total cpu time spent up to now is       10.0 secs

     total energy              =     -32.71450321 Ry
     Harris-Foulkes estimate   =     -33.07564155 Ry
     estimated scf accuracy    <       2.88514571 Ry

     iteration #  6     ecut=    30.00 Ry     beta=0.70
     Davidson diagonalization with overlap
     ethr =  1.00E-02,  avg # of iterations =  1.0

     negative rho (up, down):  3.195E-03 0.000E+00

     total cpu time spent up to now is       10.1 secs

     total energy              =     -31.89352282 Ry
     Harris-Foulkes estimate   =     -32.71930419 Ry
     estimated scf accuracy    <       2.42331594 Ry

     iteration #  7     ecut=    30.00 Ry     beta=0.70
     Davidson diagonalization with overlap
     ethr =  1.00E-02,  avg # of iterations =  1.0

     negative rho (up, down):  2.474E-03 0.000E+00

     total cpu time spent up to now is       10.1 secs

     total energy              =     -32.07853935 Ry
     Harris-Foulkes estimate   =     -32.30010154 Ry
     estimated scf accuracy    <       2.16516116 Ry

     iteration #  8     ecut=    30.00 Ry     beta=0.70
     Davidson diagonalization with overlap
     ethr =  1.00E-02,  avg # of iterations =  1.0

     negative rho (up, down):  2.582E-03 0.000E+00

     total cpu time spent up to now is       10.2 secs

     total energy              =     -32.06721188 Ry
     Harris-Foulkes estimate   =     -32.08966906 Ry
     estimated scf accuracy    <       1.68008203 Ry

     iteration #  9     ecut=    30.00 Ry     beta=0.70
     Davidson diagonalization with overlap
     ethr =  1.00E-02,  avg # of iterations =  1.0

     negative rho (up, down):  2.385E-03 0.000E+00

     total cpu time spent up to now is       10.2 secs

     total energy              =     -31.92306971 Ry
     Harris-Foulkes estimate   =     -32.06875639 Ry
     estimated scf accuracy    <       1.64261824 Ry

     iteration # 10     ecut=    30.00 Ry     beta=0.70
     Davidson diagonalization with overlap
     ethr =  1.00E-02,  avg # of iterations =  1.0

     negative rho (up, down):  2.163E-06 0.000E+00

     total cpu time spent up to now is       10.3 secs

     total energy              =     -31.57833673 Ry
     Harris-Foulkes estimate   =     -32.03449835 Ry
     estimated scf accuracy    <       1.62280557 Ry

     iteration # 11     ecut=    30.00 Ry     beta=0.70
     Davidson diagonalization with overlap
     ethr =  1.00E-02,  avg # of iterations =  2.0

     negative rho (up, down):  2.322E-06 0.000E+00

     total cpu time spent up to now is       10.3 secs

     total energy              =     -31.88096286 Ry
     Harris-Foulkes estimate   =     -32.04872077 Ry
     estimated scf accuracy    <       1.12661781 Ry

     iteration # 12     ecut=    30.00 Ry     beta=0.70
     Davidson diagonalization with overlap
     ethr =  1.00E-02,  avg # of iterations =  1.0

     negative rho (up, down):  3.927E-07 0.000E+00

     total cpu time spent up to now is       10.4 secs

     total energy              =     -31.77122658 Ry
     Harris-Foulkes estimate   =     -31.88955548 Ry
     estimated scf accuracy    <       0.97563729 Ry

     iteration # 13     ecut=    30.00 Ry     beta=0.70
     Davidson diagonalization with overlap
     ethr =  1.00E-02,  avg # of iterations =  1.0

     negative rho (up, down):  2.472E-08 0.000E+00

     total cpu time spent up to now is       10.4 secs

     total energy              =     -31.81800146 Ry
     Harris-Foulkes estimate   =     -31.93130096 Ry
     estimated scf accuracy    <       1.35745541 Ry

     iteration # 14     ecut=    30.00 Ry     beta=0.70
     Davidson diagonalization with overlap
     ethr =  1.00E-02,  avg # of iterations =  1.0

     total cpu time spent up to now is       10.5 secs

     total energy              =     -31.84926686 Ry
     Harris-Foulkes estimate   =     -31.86800392 Ry
     estimated scf accuracy    <       0.51486921 Ry

     iteration # 15     ecut=    30.00 Ry     beta=0.70
     Davidson diagonalization with overlap
     ethr =  6.44E-03,  avg # of iterations =  1.0

     total cpu time spent up to now is       10.5 secs

     total energy              =     -31.85775587 Ry
     Harris-Foulkes estimate   =     -31.85829480 Ry
     estimated scf accuracy    <       0.00696832 Ry

     iteration # 16     ecut=    30.00 Ry     beta=0.70
     Davidson diagonalization with overlap
     ethr =  8.71E-05,  avg # of iterations =  6.0

     total cpu time spent up to now is       10.6 secs

     total energy              =     -31.85799524 Ry
     Harris-Foulkes estimate   =     -31.85798824 Ry
     estimated scf accuracy    <       0.00008413 Ry

     iteration # 17     ecut=    30.00 Ry     beta=0.70
     Davidson diagonalization with overlap
     ethr =  1.05E-06,  avg # of iterations = 11.0

     total cpu time spent up to now is       10.6 secs

     total energy              =     -31.85801784 Ry
     Harris-Foulkes estimate   =     -31.85803834 Ry
     estimated scf accuracy    <       0.00383432 Ry

     iteration # 18     ecut=    30.00 Ry     beta=0.70
     Davidson diagonalization with overlap
     ethr =  1.05E-06,  avg # of iterations =  1.0

     total cpu time spent up to now is       10.7 secs

     total energy              =     -31.85775520 Ry
     Harris-Foulkes estimate   =     -31.85802137 Ry
     estimated scf accuracy    <       0.00281594 Ry

     iteration # 19     ecut=    30.00 Ry     beta=0.70
     Davidson diagonalization with overlap
     ethr =  1.05E-06,  avg # of iterations =  1.0

     total cpu time spent up to now is       10.7 secs

     total energy              =     -31.85824646 Ry
     Harris-Foulkes estimate   =     -31.85825419 Ry
     estimated scf accuracy    <       0.02020711 Ry

     iteration # 20     ecut=    30.00 Ry     beta=0.70
     Davidson diagonalization with overlap
     ethr =  1.05E-06,  avg # of iterations =  1.0

     total cpu time spent up to now is       10.8 secs

     total energy              =     -31.85748357 Ry
     Harris-Foulkes estimate   =     -31.85824660 Ry
     estimated scf accuracy    <       0.01957619 Ry

     iteration # 21     ecut=    30.00 Ry     beta=0.70
     Davidson diagonalization with overlap
     ethr =  1.05E-06,  avg # of iterations =  2.0

     total cpu time spent up to now is       10.8 secs

     total energy              =     -31.85792806 Ry
     Harris-Foulkes estimate   =     -31.85804950 Ry
     estimated scf accuracy    <       0.00511002 Ry

     iteration # 22     ecut=    30.00 Ry     beta=0.70
     Davidson diagonalization with overlap
     ethr =  1.05E-06,  avg # of iterations =  1.0

     total cpu time spent up to now is       10.9 secs

     total energy              =     -31.85798517 Ry
     Harris-Foulkes estimate   =     -31.85798537 Ry
     estimated scf accuracy    <       0.00001580 Ry

     iteration # 23     ecut=    30.00 Ry     beta=0.70
     Davidson diagonalization with overlap
     ethr =  1.98E-07,  avg # of iterations =  1.0

     total cpu time spent up to now is       10.9 secs

     total energy              =     -31.85798530 Ry
     Harris-Foulkes estimate   =     -31.85798537 Ry
     estimated scf accuracy    <       0.00000060 Ry

     iteration # 24     ecut=    30.00 Ry     beta=0.70
     Davidson diagonalization with overlap
     ethr =  7.53E-09,  avg # of iterations =  1.0

     total cpu time spent up to now is       11.0 secs

     End of self-consistent calculation

          k = 0.0000 0.0000 0.0000 ( 22119 PWs)   bands (ev):

   -23.8836  -9.6566  -6.9621  -6.9616  -6.8266  -2.2734   0.0059   0.7871

     the Fermi energy is    -6.7929 ev

!    total energy              =     -31.85798524 Ry
     Harris-Foulkes estimate   =     -31.85798531 Ry
     estimated scf accuracy    <          4.3E-09 Ry

     convergence has been achieved in  24 iterations

     Forces acting on atoms (Ry/au):

     atom    1 type  2   force =    -0.00736771   -0.17806107    0.06639725
     atom    2 type  1   force =     0.00822239    0.17836571   -0.06646381
     atom    3 type  1   force =    -0.00085467   -0.00030464    0.00006656

     Total force =     0.269200     Total SCF correction =     0.000069

     Entering Dynamics:    iteration =     4
                           time      =   0.0194 pico-seconds


     Andersen thermostat:    3 collisions

ATOMIC_POSITIONS (bohr)
O        2.882202027   2.431913049  14.186871587
H        2.823934147   2.099973706  14.308186473
H        5.082862638  11.997361171   0.713473092


     kinetic energy (Ekin) =     0.06925048 Ry
     temperature           =  3644.59115701 K 
     Ekin + Etot (const)   =   -31.78873476 Ry
     Message from routine dynamics:
     Total linear momentum <> 0

     Linear momentum :    0.0291210918   -0.3761471901    0.1870981542

     Writing output data file pwscf.save

     second order wave-functions extrapolation
     Check: negative starting charge=   -0.346361
     second order charge density extrapolation
     Check: negative starting charge=   -0.357264

     negative rho (up, down):  4.055E-01 0.000E+00

[...]

     total cpu time spent up to now is       18.3 secs

     total energy              =      78.07939196 Ry
     Harris-Foulkes estimate   =    -432.24964143 Ry
     estimated scf accuracy    <      20.45214176 Ry

     iteration # 59     ecut=    30.00 Ry     beta=0.70
     Davidson diagonalization with overlap
     ethr =  1.00E-02,  avg # of iterations = 10.0

     negative rho (up, down):  1.196E-01 0.000E+00

     total cpu time spent up to now is       18.4 secs

     total energy              =      49.07142319 Ry
     Harris-Foulkes estimate   =    -134.77331599 Ry
     estimated scf accuracy    <      29.67231318 Ry

     iteration # 60     ecut=    30.00 Ry     beta=0.70
     Davidson diagonalization with overlap
     ethr =  1.00E-02,  avg # of iterations = 11.0

     negative rho (up, down):  1.913E-02 0.000E+00

     total cpu time spent up to now is       18.5 secs

     total energy              =      17.35386091 Ry
     Harris-Foulkes estimate   =   -1428.85612121 Ry
     estimated scf accuracy    <      18.58279654 Ry

     iteration # 61     ecut=    30.00 Ry     beta=0.70
     Davidson diagonalization with overlap
     ethr =  1.00E-02,  avg # of iterations =  6.0

     negative rho (up, down):  5.308E-02 0.000E+00

     total cpu time spent up to now is       18.6 secs

     total energy              =       2.14764561 Ry
     Harris-Foulkes estimate   =   -6238.72772899 Ry
     estimated scf accuracy    <       7.31510575 Ry

     iteration # 62     ecut=    30.00 Ry     beta=0.70
     Davidson diagonalization with overlap
     ethr =  1.00E-02,  avg # of iterations =  5.0

     negative rho (up, down):  1.315E-01 0.000E+00

     total cpu time spent up to now is       18.6 secs

     total energy              =      21.10970053 Ry
     Harris-Foulkes estimate   =    -126.37352483 Ry
     estimated scf accuracy    <      14.70255457 Ry

     iteration # 63     ecut=    30.00 Ry     beta=0.70
     Davidson diagonalization with overlap
     ethr =  1.00E-02,  avg # of iterations =  4.0

     negative rho (up, down):  8.450E-02 0.000E+00

     total cpu time spent up to now is       18.7 secs

     total energy              =     -19.60094689 Ry
     Harris-Foulkes estimate   =     -78.73226798 Ry
     estimated scf accuracy    <      11.51447360 Ry

     iteration # 64     ecut=    30.00 Ry     beta=0.70
     Davidson diagonalization with overlap
     ethr =  1.00E-02,  avg # of iterations =  6.0

     total cpu time spent up to now is       18.8 secs

     total energy              =     110.33636456 Ry
     Harris-Foulkes estimate   =    -260.10015121 Ry
     estimated scf accuracy    <      33.69491880 Ry

     iteration # 65     ecut=    30.00 Ry     beta=0.70
     Davidson diagonalization with overlap
     ethr =  1.00E-02,  avg # of iterations =  9.0

     negative rho (up, down):  6.462E-02 0.000E+00

     total cpu time spent up to now is       18.9 secs

     total energy              =     -41.28495274 Ry
     Harris-Foulkes estimate   =     -42.50320679 Ry
     estimated scf accuracy    <      17.68023757 Ry

     iteration # 66     ecut=    30.00 Ry     beta=0.70
     Davidson diagonalization with overlap
     ethr =  1.00E-02,  avg # of iterations = 14.0

     total cpu time spent up to now is       19.0 secs

     total energy              =      98.73326373 Ry
     Harris-Foulkes estimate   =   -1222.19683310 Ry
     estimated scf accuracy    <      41.64136482 Ry

     iteration # 67     ecut=    30.00 Ry     beta=0.70
     Davidson diagonalization with overlap
     ethr =  1.00E-02,  avg # of iterations = 11.0

     negative rho (up, down):  1.261E-01 0.000E+00

     total cpu time spent up to now is       19.1 secs

     total energy              =     -36.67734224 Ry
     Harris-Foulkes estimate   =     -41.39879418 Ry
     estimated scf accuracy    <      16.24637977 Ry

     iteration # 68     ecut=    30.00 Ry     beta=0.70
     Davidson diagonalization with overlap
     ethr =  1.00E-02,  avg # of iterations =  8.0

     negative rho (up, down):  1.512E-01 0.000E+00

     total cpu time spent up to now is       19.1 secs

     total energy              =       2.21908595 Ry
     Harris-Foulkes estimate   =    -291.66912704 Ry
     estimated scf accuracy    <      32.68858448 Ry

     iteration # 69     ecut=    30.00 Ry     beta=0.70
     Davidson diagonalization with overlap
     ethr =  1.00E-02,  avg # of iterations = 10.0

     negative rho (up, down):  1.139E-01 0.000E+00

     total cpu time spent up to now is       19.2 secs

     total energy              =      98.96598444 Ry
     Harris-Foulkes estimate   =    -347.54873303 Ry
     estimated scf accuracy    <      57.65471656 Ry

     iteration # 70     ecut=    30.00 Ry     beta=0.70
     Davidson diagonalization with overlap
     ethr =  1.00E-02,  avg # of iterations =  8.0

     negative rho (up, down):  1.374E-01 0.000E+00

     total cpu time spent up to now is       19.3 secs

     total energy              =      16.11304503 Ry
     Harris-Foulkes estimate   =     -84.32891536 Ry
     estimated scf accuracy    <      16.71268762 Ry

     iteration # 71     ecut=    30.00 Ry     beta=0.70
     Davidson diagonalization with overlap
     ethr =  1.00E-02,  avg # of iterations =  9.0

     negative rho (up, down):  4.780E-02 0.000E+00

     total cpu time spent up to now is       19.4 secs

     total energy              =    -153.22873632 Ry
     Harris-Foulkes estimate   =    -360.79863295 Ry
     estimated scf accuracy    <      55.67524158 Ry

     iteration # 72     ecut=    30.00 Ry     beta=0.70
     Davidson diagonalization with overlap
     ethr =  1.00E-02,  avg # of iterations =  7.0

     negative rho (up, down):  2.871E-02 0.000E+00

     total cpu time spent up to now is       19.5 secs

     total energy              =      -7.21976266 Ry
     Harris-Foulkes estimate   =   -2404.00854022 Ry
     estimated scf accuracy    <       6.74549793 Ry

     iteration # 73     ecut=    30.00 Ry     beta=0.70
     Davidson diagonalization with overlap
     ethr =  1.00E-02,  avg # of iterations =  6.0

     negative rho (up, down):  9.722E-03 0.000E+00

     total cpu time spent up to now is       19.5 secs

     total energy              =     -18.60371583 Ry
     Harris-Foulkes estimate   =     -59.75306843 Ry
     estimated scf accuracy    <       9.48696579 Ry

     iteration # 74     ecut=    30.00 Ry     beta=0.70
     Davidson diagonalization with overlap
     ethr =  1.00E-02,  avg # of iterations =  6.0

     negative rho (up, down):  2.414E-02 0.000E+00

     total cpu time spent up to now is       19.6 secs

     total energy              =      -1.69073389 Ry
     Harris-Foulkes estimate   =    -270.75479166 Ry
     estimated scf accuracy    <       9.17360361 Ry

     iteration # 75     ecut=    30.00 Ry     beta=0.70
     Davidson diagonalization with overlap
     ethr =  1.00E-02,  avg # of iterations =  4.0

     negative rho (up, down):  8.100E-02 0.000E+00

     total cpu time spent up to now is       19.7 secs

     total energy              =     -53.27888662 Ry
     Harris-Foulkes estimate   =    -950.90758457 Ry
     estimated scf accuracy    <      11.52276820 Ry

     iteration # 76     ecut=    30.00 Ry     beta=0.70
     Davidson diagonalization with overlap
     ethr =  1.00E-02,  avg # of iterations =  8.0

     negative rho (up, down):  2.256E-01 0.000E+00

     total cpu time spent up to now is       19.7 secs

     total energy              =    -542.54914918 Ry
     Harris-Foulkes estimate   =   -3270.73282149 Ry
     estimated scf accuracy    <      41.82186225 Ry

     iteration # 77     ecut=    30.00 Ry     beta=0.70
     Davidson diagonalization with overlap
     ethr =  1.00E-02,  avg # of iterations =  6.0

     negative rho (up, down):  1.460E-01 0.000E+00

     total cpu time spent up to now is       19.8 secs

     total energy              =      94.85966521 Ry
     Harris-Foulkes estimate   =   -2483.08974702 Ry
     estimated scf accuracy    <      39.84484850 Ry

     iteration # 78     ecut=    30.00 Ry     beta=0.70
     Davidson diagonalization with overlap
     ethr =  1.00E-02,  avg # of iterations = 10.0

     negative rho (up, down):  1.901E-01 0.000E+00

     total cpu time spent up to now is       19.9 secs

     total energy              =   -2205.95829712 Ry
     Harris-Foulkes estimate   =    -361.24086324 Ry
     estimated scf accuracy    <      50.98981054 Ry

     iteration # 79     ecut=    30.00 Ry     beta=0.70
     Davidson diagonalization with overlap
     ethr =  1.00E-02,  avg # of iterations =  7.0

     negative rho (up, down):  3.122E-01 0.000E+00

     total cpu time spent up to now is       20.0 secs

     total energy              =    -228.56889476 Ry
     Harris-Foulkes estimate   =   -3598.61023821 Ry
     estimated scf accuracy    <      20.95313033 Ry

     iteration # 80     ecut=    30.00 Ry     beta=0.70
     Davidson diagonalization with overlap
     ethr =  1.00E-02,  avg # of iterations =  9.0

     negative rho (up, down):  2.715E-01 0.000E+00

     total cpu time spent up to now is       20.1 secs

     total energy              =    -490.06588527 Ry
     Harris-Foulkes estimate   =   -1632.30803934 Ry
     estimated scf accuracy    <      46.68402950 Ry

     iteration # 81     ecut=    30.00 Ry     beta=0.70
     Davidson diagonalization with overlap
     ethr =  1.00E-02,  avg # of iterations = 15.0

     negative rho (up, down):  4.624E-01 0.000E+00

     total cpu time spent up to now is       20.2 secs

     total energy              =    -460.71672750 Ry
     Harris-Foulkes estimate   =   -7476.43982934 Ry
     estimated scf accuracy    <      40.93528271 Ry

     iteration # 82     ecut=    30.00 Ry     beta=0.70
     Davidson diagonalization with overlap
     ethr =  1.00E-02,  avg # of iterations = 11.0

     negative rho (up, down):  4.024E-01 0.000E+00

     total cpu time spent up to now is       20.2 secs

     total energy              =     -75.79307793 Ry
     Harris-Foulkes estimate   =   -2376.71033623 Ry
     estimated scf accuracy    <      40.08302506 Ry

     iteration # 83     ecut=    30.00 Ry     beta=0.70
     Davidson diagonalization with overlap
     ethr =  1.00E-02,  avg # of iterations =  5.0

     negative rho (up, down):  4.716E-01 0.000E+00

     total cpu time spent up to now is       20.3 secs

     total energy              =    -195.51764605 Ry
     Harris-Foulkes estimate   =   -1226.82475287 Ry
     estimated scf accuracy    <      39.53534377 Ry

     iteration # 84     ecut=    30.00 Ry     beta=0.70
     Davidson diagonalization with overlap
     ethr =  1.00E-02,  avg # of iterations =  7.0

     negative rho (up, down):  1.331E+00 0.000E+00

     total cpu time spent up to now is       20.4 secs

     total energy              =    -712.65226362 Ry
     Harris-Foulkes estimate   =   -1290.95320605 Ry
     estimated scf accuracy    <      41.94190972 Ry

     iteration # 85     ecut=    30.00 Ry     beta=0.70
     Davidson diagonalization with overlap
     ethr =  1.00E-02,  avg # of iterations =  8.0

     negative rho (up, down):  1.356E+00 0.000E+00

     total cpu time spent up to now is       20.5 secs

     total energy              =     -58.80835247 Ry
     Harris-Foulkes estimate   =   -2902.63725854 Ry
     estimated scf accuracy    <      30.53779172 Ry

     iteration # 86     ecut=    30.00 Ry     beta=0.70
     Davidson diagonalization with overlap
     ethr =  1.00E-02,  avg # of iterations =  6.0

     negative rho (up, down):  1.426E+00 0.000E+00

     total cpu time spent up to now is       20.6 secs

     total energy              =    -940.74007188 Ry
     Harris-Foulkes estimate   =   -8215.47961501 Ry
     estimated scf accuracy    <      26.79605048 Ry

     iteration # 87     ecut=    30.00 Ry     beta=0.70
     Davidson diagonalization with overlap
     ethr =  1.00E-02,  avg # of iterations =  7.0

     negative rho (up, down):  1.100E+00 0.000E+00

     total cpu time spent up to now is       20.7 secs

     total energy              =     112.21928238 Ry
     Harris-Foulkes estimate   =   -3815.39383782 Ry
     estimated scf accuracy    <      35.13895396 Ry

     iteration # 88     ecut=    30.00 Ry     beta=0.70
     Davidson diagonalization with overlap
     ethr =  1.00E-02,  avg # of iterations =  6.0

     negative rho (up, down):  4.917E-01 0.000E+00

     total cpu time spent up to now is       20.8 secs

     total energy              =     105.54930264 Ry
     Harris-Foulkes estimate   =   -1013.49995842 Ry
     estimated scf accuracy    <      20.38462697 Ry

     iteration # 89     ecut=    30.00 Ry     beta=0.70
     Davidson diagonalization with overlap
     ethr =  1.00E-02,  avg # of iterations =  6.0

     negative rho (up, down):  8.801E-02 0.000E+00

     total cpu time spent up to now is       20.8 secs

     total energy              =     140.89607672 Ry
     Harris-Foulkes estimate   =   -1042.14413288 Ry
     estimated scf accuracy    <      22.06189969 Ry

     iteration # 90     ecut=    30.00 Ry     beta=0.70
     Davidson diagonalization with overlap
     ethr =  1.00E-02,  avg # of iterations = 11.0

     negative rho (up, down):  4.951E-03 0.000E+00

     total cpu time spent up to now is       21.0 secs

     total energy              =      89.50014318 Ry
     Harris-Foulkes estimate   =   -2980.99957429 Ry
     estimated scf accuracy    <      19.47394655 Ry

     iteration # 91     ecut=    30.00 Ry     beta=0.70
     Davidson diagonalization with overlap
     ethr =  1.00E-02,  avg # of iterations =  6.0

     negative rho (up, down):  1.433E-03 0.000E+00

     total cpu time spent up to now is       21.0 secs

     total energy              =     -64.67383037 Ry
     Harris-Foulkes estimate   =     -78.43531521 Ry
     estimated scf accuracy    <      63.26961179 Ry

     iteration # 92     ecut=    30.00 Ry     beta=0.70
     Davidson diagonalization with overlap
     ethr =  1.00E-02,  avg # of iterations =  4.0

     negative rho (up, down):  9.491E-04 0.000E+00

     total cpu time spent up to now is       21.1 secs

     total energy              =     -11.31531557 Ry
     Harris-Foulkes estimate   =   -1267.63661945 Ry
     estimated scf accuracy    <      24.82451442 Ry

     iteration # 93     ecut=    30.00 Ry     beta=0.70
     Davidson diagonalization with overlap
     ethr =  1.00E-02,  avg # of iterations =  5.0

     negative rho (up, down):  4.307E-03 0.000E+00

     total cpu time spent up to now is       21.2 secs

     total energy              =     -12.41994473 Ry
     Harris-Foulkes estimate   =    -129.18775511 Ry
     estimated scf accuracy    <      23.53782461 Ry

     iteration # 94     ecut=    30.00 Ry     beta=0.70
     Davidson diagonalization with overlap
     ethr =  1.00E-02,  avg # of iterations =  5.0

     negative rho (up, down):  4.443E-01 0.000E+00

     total cpu time spent up to now is       21.2 secs

     total energy              =     -47.50618350 Ry
     Harris-Foulkes estimate   =     -65.80830785 Ry
     estimated scf accuracy    <      47.15599189 Ry

     iteration # 95     ecut=    30.00 Ry     beta=0.70
     Davidson diagonalization with overlap
     ethr =  1.00E-02,  avg # of iterations = 10.0

     negative rho (up, down):  6.010E-01 0.000E+00

     total cpu time spent up to now is       21.3 secs

     total energy              =    -133.41454390 Ry
     Harris-Foulkes estimate   =    -491.17756771 Ry
     estimated scf accuracy    <      46.69927252 Ry

     iteration # 96     ecut=    30.00 Ry     beta=0.70
     Davidson diagonalization with overlap
     ethr =  1.00E-02,  avg # of iterations = 11.0

     negative rho (up, down):  4.371E-01 0.000E+00

     total cpu time spent up to now is       21.4 secs

     total energy              =     912.47979439 Ry
     Harris-Foulkes estimate   =   -1862.71340926 Ry
     estimated scf accuracy    <      23.09519669 Ry

     iteration # 97     ecut=    30.00 Ry     beta=0.70
     Davidson diagonalization with overlap
     ethr =  1.00E-02,  avg # of iterations = 12.0

     negative rho (up, down):  7.271E-01 0.000E+00

     total cpu time spent up to now is       21.5 secs

     total energy              =   -1737.72711118 Ry
     Harris-Foulkes estimate   =    -573.24848523 Ry
     estimated scf accuracy    <      18.87336914 Ry

     iteration # 98     ecut=    30.00 Ry     beta=0.70
     Davidson diagonalization with overlap
     ethr =  1.00E-02,  avg # of iterations =  7.0

     negative rho (up, down):  9.571E-01 0.000E+00

     total cpu time spent up to now is       21.6 secs

     total energy              =      49.80933663 Ry
     Harris-Foulkes estimate   =   -4691.09558887 Ry
     estimated scf accuracy    <      45.16944381 Ry

     iteration # 99     ecut=    30.00 Ry     beta=0.70
     Davidson diagonalization with overlap
     ethr =  1.00E-02,  avg # of iterations = 10.0

     negative rho (up, down):  1.861E-03 0.000E+00

     total cpu time spent up to now is       21.7 secs

     total energy              =     126.96761185 Ry
     Harris-Foulkes estimate   =    -961.69040862 Ry
     estimated scf accuracy    <      56.31736790 Ry

     iteration #100     ecut=    30.00 Ry     beta=0.70
     Davidson diagonalization with overlap
     ethr =  1.00E-02,  avg # of iterations = 12.0

     negative rho (up, down):  2.704E-02 0.000E+00

     total cpu time spent up to now is       21.8 secs

     total energy              =     -43.46990665 Ry
     Harris-Foulkes estimate   =     -49.18727812 Ry
     estimated scf accuracy    <      25.87814528 Ry

     End of self-consistent calculation

     convergence NOT achieved after 100 iterations: stopping

     Writing output data file pwscf.save
 
     init_run     :      0.17s CPU      0.19s WALL (       1 calls)
     electrons    :     16.72s CPU     19.66s WALL (       6 calls)
     update_pot   :      1.02s CPU      1.30s WALL (       5 calls)
     forces       :      0.21s CPU      0.21s WALL (       5 calls)

     Called by init_run:
     wfcinit      :      0.01s CPU      0.02s WALL (       1 calls)
     potinit      :      0.05s CPU      0.05s WALL (       1 calls)

     Called by electrons:
     c_bands      :      8.76s CPU      9.08s WALL (     302 calls)
     sum_band     :      1.54s CPU      1.61s WALL (     302 calls)
     v_of_rho     :      3.55s CPU      3.67s WALL (     308 calls)
     mix_rho      :      2.29s CPU      4.23s WALL (     302 calls)

     Called by c_bands:
     init_us_2    :      0.05s CPU      0.06s WALL (     605 calls)
     cegterg      :      8.68s CPU      8.91s WALL (     302 calls)

     Called by sum_band:

     Called by *egterg:
     h_psi        :      7.30s CPU      7.47s WALL (    1478 calls)
     g_psi        :      0.08s CPU      0.08s WALL (    1175 calls)
     cdiaghg      :      0.50s CPU      0.52s WALL (    1472 calls)

     Called by h_psi:
     h_psi:pot    :      7.26s CPU      7.43s WALL (    1478 calls)
     h_psi:calbec :      0.11s CPU      0.14s WALL (    1478 calls)
     vloc_psi     :      7.12s CPU      7.26s WALL (    1478 calls)
     add_vuspsi   :      0.02s CPU      0.02s WALL (    1478 calls)

     General routines
     calbec       :      0.12s CPU      0.16s WALL (    1502 calls)
     fft          :      2.14s CPU      2.21s WALL (    3398 calls)
     fftw         :      7.46s CPU      7.64s WALL (   18794 calls)
     davcio       :      0.39s CPU      1.65s WALL (    5519 calls)
 
     Parallel routines
     fft_scatter  :      3.03s CPU      3.16s WALL (   22192 calls)
 
     PWSCF        :    18.45s CPU        21.95s WALL

 
   This run was terminated on:  17: 4:31  13Feb2018            

=------------------------------------------------------------------------------=
   JOB DONE.
=------------------------------------------------------------------------------=
