
     Program PWSCF v.6.0 (svn rev. 13079) starts on 13Feb2018 at 17:10:35 

     This program is part of the open-source Quantum ESPRESSO suite
     for quantum simulation of materials; please cite
         "P. Giannozzi et al., J. Phys.:Condens. Matter 21 395502 (2009);
          URL http://www.quantum-espresso.org", 
     in publications or presentations arising from this work. More details at
     http://www.quantum-espresso.org/quote

     Parallel version (MPI), running on    28 processors
     R & G space division:  proc/nbgrp/npool/nimage =      28
     Reading input from inputs/MD-H2O-round1/774.in

     Current dimensions of program PWSCF are:
     Max number of different atomic species (ntypx) = 10
     Max number of k-points (npk) =  40000
     Max angular momentum in pseudopotentials (lmaxx) =  3

     Subspace diagonalization in iterative solution of the eigenvalue problem:
     a serial algorithm will be used

 
     Parallelization info
     --------------------
     sticks:   dense  smooth     PW     G-vecs:    dense   smooth      PW
     Min         136     136     33                 6338     6338     787
     Max         137     137     34                 6341     6341     792
     Sum        3809    3809    949               177509   177509   22119
 


     bravais-lattice index     =            1
     lattice parameter (alat)  =      20.0000  a.u.
     unit-cell volume          =    8000.0000 (a.u.)^3
     number of atoms/cell      =            3
     number of atomic types    =            2
     number of electrons       =         8.00
     number of Kohn-Sham states=            8
     kinetic-energy cutoff     =      30.0000  Ry
     charge density cutoff     =     120.0000  Ry
     convergence threshold     =      1.0E-08
     mixing beta               =       0.7000
     number of iterations used =            8  plain     mixing
     Exchange-correlation      = BLYP ( 1  3  1  3 0 0)
     nstep                     =         5000


     celldm(1)=  20.000000  celldm(2)=   0.000000  celldm(3)=   0.000000
     celldm(4)=   0.000000  celldm(5)=   0.000000  celldm(6)=   0.000000

     crystal axes: (cart. coord. in units of alat)
               a(1) = (   1.000000   0.000000   0.000000 )  
               a(2) = (   0.000000   1.000000   0.000000 )  
               a(3) = (   0.000000   0.000000   1.000000 )  

     reciprocal axes: (cart. coord. in units 2 pi/alat)
               b(1) = (  1.000000  0.000000  0.000000 )  
               b(2) = (  0.000000  1.000000  0.000000 )  
               b(3) = (  0.000000  0.000000  1.000000 )  


     PseudoPot. # 1 for  H read from file:
     ./H.blyp-hgh.UPF
     MD5 check sum: c576e69559cde411e611be972c763230
     Pseudo is Norm-conserving, Zval =  1.0
     Generated in analytical, separable form
     Using radial grid of  929 points,  0 beta functions with: 

     PseudoPot. # 2 for  O read from file:
     ./O.blyp-hgh.UPF
     MD5 check sum: d0b7156309aa9befef28faac7bc56342
     Pseudo is Norm-conserving, Zval =  6.0
     Generated in analytical, separable form
     Using radial grid of 1095 points,  1 beta functions with: 
                l(1) =   0

     atomic species   valence    mass     pseudopotential
        H              1.00     1.01000      H( 1.00)
        O              6.00    16.00000      O( 1.00)

     No symmetry found



   Cartesian axes

     site n.     atom                  positions (alat units)
         1           O   tau(   1) = (   0.5837379   0.3952280   0.7906548  )
         2           H   tau(   2) = (   0.8628142   0.6470484   0.2791007  )
         3           H   tau(   3) = (   0.5454298   0.3836141   0.7209081  )

     number of k points=     1  Marzari-Vanderbilt smearing, width (Ry)=  0.0250
                       cart. coord. in units 2pi/alat
        k(    1) = (   0.0000000   0.0000000   0.0000000), wk =   2.0000000

     Dense  grid:   177509 G-vectors     FFT dimensions: (  72,  72,  72)

     Estimated max dynamical RAM per process >       6.09Mb

     Estimated total allocated dynamical RAM >     170.64Mb

     Initial potential from superposition of free atoms
     Check: negative starting charge=   -0.351619

     starting charge    7.99998, renormalised to    8.00000

     negative rho (up, down):  3.516E-01 0.000E+00
     Starting wfc are    6 randomized atomic wfcs +    2 random wfc

     total cpu time spent up to now is        0.4 secs

     per-process dynamical memory:    18.8 Mb

     Self-consistent Calculation

     iteration #  1     ecut=    30.00 Ry     beta=0.70
     Davidson diagonalization with overlap
     ethr =  1.00E-02,  avg # of iterations =  5.0

     negative rho (up, down):  9.497E-02 0.000E+00

     total cpu time spent up to now is        0.4 secs

     total energy              =     -31.58597672 Ry
     Harris-Foulkes estimate   =     -32.07363249 Ry
     estimated scf accuracy    <       0.50980758 Ry

     iteration #  2     ecut=    30.00 Ry     beta=0.70
     Davidson diagonalization with overlap
     ethr =  6.37E-03,  avg # of iterations =  3.0

     negative rho (up, down):  7.404E-02 0.000E+00

     total cpu time spent up to now is        0.5 secs

     total energy              =     -31.70001820 Ry
     Harris-Foulkes estimate   =     -32.34247182 Ry
     estimated scf accuracy    <       2.20076771 Ry

     iteration #  3     ecut=    30.00 Ry     beta=0.70
     Davidson diagonalization with overlap
     ethr =  6.37E-03,  avg # of iterations =  2.0

     negative rho (up, down):  2.649E-02 0.000E+00

     total cpu time spent up to now is        0.5 secs

     total energy              =     -31.66591042 Ry
     Harris-Foulkes estimate   =     -31.81144734 Ry
     estimated scf accuracy    <       0.90575921 Ry

     iteration #  4     ecut=    30.00 Ry     beta=0.70
     Davidson diagonalization with overlap
     ethr =  6.37E-03,  avg # of iterations =  1.0

     negative rho (up, down):  1.165E-02 0.000E+00

     total cpu time spent up to now is        0.6 secs

     total energy              =     -31.75447495 Ry
     Harris-Foulkes estimate   =     -31.98698241 Ry
     estimated scf accuracy    <       1.46497332 Ry

     iteration #  5     ecut=    30.00 Ry     beta=0.70
     Davidson diagonalization with overlap
     ethr =  6.37E-03,  avg # of iterations =  1.0

     negative rho (up, down):  1.125E-03 0.000E+00

     total cpu time spent up to now is        0.6 secs

     total energy              =     -31.81967574 Ry
     Harris-Foulkes estimate   =     -31.87613346 Ry
     estimated scf accuracy    <       0.90655612 Ry

     iteration #  6     ecut=    30.00 Ry     beta=0.70
     Davidson diagonalization with overlap
     ethr =  6.37E-03,  avg # of iterations =  1.0

     negative rho (up, down):  6.179E-04 0.000E+00

     total cpu time spent up to now is        0.7 secs

     total energy              =     -31.83678523 Ry
     Harris-Foulkes estimate   =     -31.84577742 Ry
     estimated scf accuracy    <       0.16290370 Ry

     iteration #  7     ecut=    30.00 Ry     beta=0.70
     Davidson diagonalization with overlap
     ethr =  2.04E-03,  avg # of iterations =  1.0

     negative rho (up, down):  1.781E-04 0.000E+00

     total cpu time spent up to now is        0.7 secs

     total energy              =     -31.83072796 Ry
     Harris-Foulkes estimate   =     -31.84693131 Ry
     estimated scf accuracy    <       0.20140628 Ry

     iteration #  8     ecut=    30.00 Ry     beta=0.70
     Davidson diagonalization with overlap
     ethr =  2.04E-03,  avg # of iterations =  1.0

     negative rho (up, down):  1.033E-07 0.000E+00

     total cpu time spent up to now is        0.8 secs

     total energy              =     -31.81748059 Ry
     Harris-Foulkes estimate   =     -31.85567090 Ry
     estimated scf accuracy    <       0.88831169 Ry

     iteration #  9     ecut=    30.00 Ry     beta=0.70
     Davidson diagonalization with overlap
     ethr =  2.04E-03,  avg # of iterations =  1.0

     negative rho (up, down):  8.019E-08 0.000E+00

     total cpu time spent up to now is        0.8 secs

     total energy              =     -31.84101157 Ry
     Harris-Foulkes estimate   =     -31.84898950 Ry
     estimated scf accuracy    <       0.31200361 Ry

     iteration # 10     ecut=    30.00 Ry     beta=0.70
     Davidson diagonalization with overlap
     ethr =  2.04E-03,  avg # of iterations =  1.0

     negative rho (up, down):  5.542E-07 0.000E+00

     total cpu time spent up to now is        0.8 secs

     total energy              =     -31.84374545 Ry
     Harris-Foulkes estimate   =     -31.84408965 Ry
     estimated scf accuracy    <       0.00897642 Ry

     iteration # 11     ecut=    30.00 Ry     beta=0.70
     Davidson diagonalization with overlap
     ethr =  1.12E-04,  avg # of iterations =  3.0

     negative rho (up, down):  5.540E-08 0.000E+00

     total cpu time spent up to now is        0.9 secs

     total energy              =     -31.84373151 Ry
     Harris-Foulkes estimate   =     -31.84400075 Ry
     estimated scf accuracy    <       0.00222486 Ry

     iteration # 12     ecut=    30.00 Ry     beta=0.70
     Davidson diagonalization with overlap
     ethr =  2.78E-05,  avg # of iterations =  7.0

     total cpu time spent up to now is        1.0 secs

     total energy              =     -31.84377993 Ry
     Harris-Foulkes estimate   =     -31.84440157 Ry
     estimated scf accuracy    <       0.03185958 Ry

     iteration # 13     ecut=    30.00 Ry     beta=0.70
     Davidson diagonalization with overlap
     ethr =  2.78E-05,  avg # of iterations =  1.0

     total cpu time spent up to now is        1.0 secs

     total energy              =     -31.84395223 Ry
     Harris-Foulkes estimate   =     -31.84400364 Ry
     estimated scf accuracy    <       0.00227292 Ry

     iteration # 14     ecut=    30.00 Ry     beta=0.70
     Davidson diagonalization with overlap
     ethr =  2.78E-05,  avg # of iterations =  1.0

     total cpu time spent up to now is        1.0 secs

     total energy              =     -31.84397347 Ry
     Harris-Foulkes estimate   =     -31.84397453 Ry
     estimated scf accuracy    <       0.00003550 Ry

     iteration # 15     ecut=    30.00 Ry     beta=0.70
     Davidson diagonalization with overlap
     ethr =  4.44E-07,  avg # of iterations =  5.0

     total cpu time spent up to now is        1.1 secs

     total energy              =     -31.84397400 Ry
     Harris-Foulkes estimate   =     -31.84397401 Ry
     estimated scf accuracy    <       0.00000015 Ry

     iteration # 16     ecut=    30.00 Ry     beta=0.70
     Davidson diagonalization with overlap
     ethr =  1.83E-09,  avg # of iterations =  1.0

     total cpu time spent up to now is        1.1 secs

     total energy              =     -31.84397403 Ry
     Harris-Foulkes estimate   =     -31.84397405 Ry
     estimated scf accuracy    <       0.00000203 Ry

     iteration # 17     ecut=    30.00 Ry     beta=0.70
     Davidson diagonalization with overlap
     ethr =  1.83E-09,  avg # of iterations =  1.0

     total cpu time spent up to now is        1.2 secs

     total energy              =     -31.84397412 Ry
     Harris-Foulkes estimate   =     -31.84397404 Ry
     estimated scf accuracy    <       0.00000067 Ry

     iteration # 18     ecut=    30.00 Ry     beta=0.70
     Davidson diagonalization with overlap
     ethr =  1.83E-09,  avg # of iterations =  1.0

     total cpu time spent up to now is        1.2 secs

     total energy              =     -31.84397413 Ry
     Harris-Foulkes estimate   =     -31.84397416 Ry
     estimated scf accuracy    <       0.00000069 Ry

     iteration # 19     ecut=    30.00 Ry     beta=0.70
     Davidson diagonalization with overlap
     ethr =  1.83E-09,  avg # of iterations =  1.0

     total cpu time spent up to now is        1.3 secs

     End of self-consistent calculation

          k = 0.0000 0.0000 0.0000 ( 22119 PWs)   bands (ev):

   -26.1319 -11.0602  -7.1479  -7.1469  -7.0028  -0.4485   0.5185   0.8335

     the Fermi energy is    -6.9752 ev

!    total energy              =     -31.84397413 Ry
     Harris-Foulkes estimate   =     -31.84397414 Ry
     estimated scf accuracy    <          4.8E-10 Ry

     convergence has been achieved in  19 iterations

     Forces acting on atoms (Ry/au):

     atom    1 type  2   force =     0.28809125    0.08828964    0.52427893
     atom    2 type  1   force =    -0.00002518   -0.00027453    0.00029400
     atom    3 type  1   force =    -0.28806607   -0.08801511   -0.52457293

     Total force =     0.855316     Total SCF correction =     0.000004

     Molecular Dynamics Calculation

     Starting temperature  =  1000.00 K

     temperature is controlled by Andersen thermostat
     Collision frequency = 1.0000/timestep
     mass H                =     1.01
     mass O                =    16.00
     Time step             =   100.00 a.u.,  4.8378 femto-seconds

     Entering Dynamics:    iteration =     1
                           time      =   0.0048 pico-seconds


     Andersen thermostat:    3 collisions

ATOMIC_POSITIONS (bohr)
O       11.753689673   7.944762519  15.999291856
H       17.408202764  12.940392294   5.378591775
H        9.506273488   7.036002966  11.671930068


     kinetic energy (Ekin) =     0.00624118 Ry
     temperature           =   328.46776923 K 
     Ekin + Etot (const)   =   -31.83773294 Ry

     Linear momentum :   -0.0000000000    0.0000000000   -0.0000000000

     Writing output data file pwscf.save
     Check: negative starting charge=   -0.351619
     NEW-OLD atomic charge density approx. for the potential
     Check: negative starting charge=   -0.344735

     negative rho (up, down):  4.068E-01 0.000E+00

     total cpu time spent up to now is        1.7 secs

     per-process dynamical memory:    20.4 Mb

     Self-consistent Calculation

     iteration #  1     ecut=    30.00 Ry     beta=0.70
     Davidson diagonalization with overlap
     ethr =  1.00E-06,  avg # of iterations = 12.0

     negative rho (up, down):  9.692E-02 0.000E+00

     total cpu time spent up to now is        1.8 secs

     total energy              =     -14.41935485 Ry
     Harris-Foulkes estimate   =     -37.96906153 Ry
     estimated scf accuracy    <       9.31098829 Ry

     iteration #  2     ecut=    30.00 Ry     beta=0.70
     Davidson diagonalization with overlap
     ethr =  1.00E-02,  avg # of iterations =  4.0

     negative rho (up, down):  6.746E-02 0.000E+00

     total cpu time spent up to now is        1.9 secs

     total energy              =     -32.81675658 Ry
     Harris-Foulkes estimate   =     -40.30589027 Ry
     estimated scf accuracy    <      16.89938892 Ry

     iteration #  3     ecut=    30.00 Ry     beta=0.70
     Davidson diagonalization with overlap
     ethr =  1.00E-02,  avg # of iterations =  3.0

     negative rho (up, down):  4.711E-02 0.000E+00

     total cpu time spent up to now is        1.9 secs

     total energy              =     -31.47051538 Ry
     Harris-Foulkes estimate   =     -33.33603000 Ry
     estimated scf accuracy    <       5.63313320 Ry

     iteration #  4     ecut=    30.00 Ry     beta=0.70
     Davidson diagonalization with overlap
     ethr =  1.00E-02,  avg # of iterations =  2.0

     negative rho (up, down):  4.038E-02 0.000E+00

     total cpu time spent up to now is        2.0 secs

     total energy              =     -31.07304460 Ry
     Harris-Foulkes estimate   =     -32.01488671 Ry
     estimated scf accuracy    <       4.05077541 Ry

     iteration #  5     ecut=    30.00 Ry     beta=0.70
     Davidson diagonalization with overlap
     ethr =  1.00E-02,  avg # of iterations =  1.0

     negative rho (up, down):  1.544E-02 0.000E+00

     total cpu time spent up to now is        2.0 secs

     total energy              =     -31.50917691 Ry
     Harris-Foulkes estimate   =     -32.31557465 Ry
     estimated scf accuracy    <       3.85710517 Ry

     iteration #  6     ecut=    30.00 Ry     beta=0.70
     Davidson diagonalization with overlap
     ethr =  1.00E-02,  avg # of iterations =  1.0

     negative rho (up, down):  1.423E-02 0.000E+00

     total cpu time spent up to now is        2.1 secs

     total energy              =     -31.54681219 Ry
     Harris-Foulkes estimate   =     -31.56341466 Ry
     estimated scf accuracy    <       0.32163522 Ry

     iteration #  7     ecut=    30.00 Ry     beta=0.70
     Davidson diagonalization with overlap
     ethr =  4.02E-03,  avg # of iterations =  1.0

     negative rho (up, down):  1.477E-02 0.000E+00

     total cpu time spent up to now is        2.1 secs

     total energy              =     -31.55376803 Ry
     Harris-Foulkes estimate   =     -31.55304104 Ry
     estimated scf accuracy    <       0.09704460 Ry

     iteration #  8     ecut=    30.00 Ry     beta=0.70
     Davidson diagonalization with overlap
     ethr =  1.21E-03,  avg # of iterations =  1.0

     negative rho (up, down):  1.387E-02 0.000E+00

     total cpu time spent up to now is        2.2 secs

     total energy              =     -31.56048647 Ry
     Harris-Foulkes estimate   =     -31.58856938 Ry
     estimated scf accuracy    <       1.53660572 Ry

     iteration #  9     ecut=    30.00 Ry     beta=0.70
     Davidson diagonalization with overlap
     ethr =  1.21E-03,  avg # of iterations =  1.0

     negative rho (up, down):  6.110E-03 0.000E+00

     total cpu time spent up to now is        2.2 secs

     total energy              =     -31.47766078 Ry
     Harris-Foulkes estimate   =     -31.56426434 Ry
     estimated scf accuracy    <       0.68787158 Ry

     iteration # 10     ecut=    30.00 Ry     beta=0.70
     Davidson diagonalization with overlap
     ethr =  1.21E-03,  avg # of iterations =  1.0

     negative rho (up, down):  1.059E-04 0.000E+00

     total cpu time spent up to now is        2.3 secs

     total energy              =     -31.75290973 Ry
     Harris-Foulkes estimate   =     -31.63820251 Ry
     estimated scf accuracy    <       2.07936963 Ry

     iteration # 11     ecut=    30.00 Ry     beta=0.70
     Davidson diagonalization with overlap
     ethr =  1.21E-03,  avg # of iterations =  1.0

     negative rho (up, down):  9.883E-06 0.000E+00

     total cpu time spent up to now is        2.3 secs

     total energy              =     -31.83327319 Ry
     Harris-Foulkes estimate   =     -31.76870853 Ry
     estimated scf accuracy    <       3.11502959 Ry

     iteration # 12     ecut=    30.00 Ry     beta=0.70
     Davidson diagonalization with overlap
     ethr =  1.21E-03,  avg # of iterations =  1.0

     negative rho (up, down):  1.063E-05 0.000E+00

     total cpu time spent up to now is        2.4 secs

     total energy              =     -31.88984057 Ry
     Harris-Foulkes estimate   =     -31.83435555 Ry
     estimated scf accuracy    <       3.35949083 Ry

     iteration # 13     ecut=    30.00 Ry     beta=0.70
     Davidson diagonalization with overlap
     ethr =  1.21E-03,  avg # of iterations =  1.0

     negative rho (up, down):  2.607E-06 0.000E+00

     total cpu time spent up to now is        2.4 secs

     total energy              =     -31.95757521 Ry
     Harris-Foulkes estimate   =     -31.89040606 Ry
     estimated scf accuracy    <       3.42441237 Ry

     iteration # 14     ecut=    30.00 Ry     beta=0.70
     Davidson diagonalization with overlap
     ethr =  1.21E-03,  avg # of iterations =  1.0

     negative rho (up, down):  7.097E-03 0.000E+00

     total cpu time spent up to now is        2.5 secs

     total energy              =     -32.04899354 Ry
     Harris-Foulkes estimate   =     -31.95870956 Ry
     estimated scf accuracy    <       3.42678699 Ry

     iteration # 15     ecut=    30.00 Ry     beta=0.70
     Davidson diagonalization with overlap
     ethr =  1.21E-03,  avg # of iterations =  1.0

     negative rho (up, down):  4.514E-04 0.000E+00

     total cpu time spent up to now is        2.5 secs

     total energy              =     -31.74263663 Ry
     Harris-Foulkes estimate   =     -32.05913999 Ry
     estimated scf accuracy    <       2.96225264 Ry

     iteration # 16     ecut=    30.00 Ry     beta=0.70
     Davidson diagonalization with overlap
     ethr =  1.21E-03,  avg # of iterations =  2.0

     negative rho (up, down):  2.812E-03 0.000E+00

     total cpu time spent up to now is        2.6 secs

     total energy              =     -31.82384388 Ry
     Harris-Foulkes estimate   =     -31.76464493 Ry
     estimated scf accuracy    <       1.57423582 Ry

     iteration # 17     ecut=    30.00 Ry     beta=0.70
     Davidson diagonalization with overlap
     ethr =  1.21E-03,  avg # of iterations =  1.0

     negative rho (up, down):  3.983E-03 0.000E+00

     total cpu time spent up to now is        2.6 secs

     total energy              =     -31.93046423 Ry
     Harris-Foulkes estimate   =     -31.82550897 Ry
     estimated scf accuracy    <       1.81765600 Ry

     iteration # 18     ecut=    30.00 Ry     beta=0.70
     Davidson diagonalization with overlap
     ethr =  1.21E-03,  avg # of iterations =  1.0

     negative rho (up, down):  5.856E-02 0.000E+00

     total cpu time spent up to now is        2.7 secs

     total energy              =     -30.63249820 Ry
     Harris-Foulkes estimate   =     -31.93464719 Ry
     estimated scf accuracy    <       2.36228856 Ry

     iteration # 19     ecut=    30.00 Ry     beta=0.70
     Davidson diagonalization with overlap
     ethr =  1.21E-03,  avg # of iterations =  7.0

     negative rho (up, down):  1.496E-07 0.000E+00

     total cpu time spent up to now is        2.7 secs

     total energy              =     -31.77282989 Ry
     Harris-Foulkes estimate   =     -33.01943516 Ry
     estimated scf accuracy    <       4.26244659 Ry

     iteration # 20     ecut=    30.00 Ry     beta=0.70
     Davidson diagonalization with overlap
     ethr =  1.21E-03,  avg # of iterations =  4.0

     negative rho (up, down):  6.516E-08 0.000E+00

     total cpu time spent up to now is        2.8 secs

     total energy              =     -31.67913417 Ry
     Harris-Foulkes estimate   =     -31.83532082 Ry
     estimated scf accuracy    <       1.45141177 Ry

     iteration # 21     ecut=    30.00 Ry     beta=0.70
     Davidson diagonalization with overlap
     ethr =  1.21E-03,  avg # of iterations =  1.0

     negative rho (up, down):  9.015E-08 0.000E+00

     total cpu time spent up to now is        2.8 secs

     total energy              =     -31.58914829 Ry
     Harris-Foulkes estimate   =     -31.68061358 Ry
     estimated scf accuracy    <       1.09025712 Ry

     iteration # 22     ecut=    30.00 Ry     beta=0.70
     Davidson diagonalization with overlap
     ethr =  1.21E-03,  avg # of iterations =  1.0

     negative rho (up, down):  6.772E-08 0.000E+00

     total cpu time spent up to now is        2.9 secs

     total energy              =     -31.45947651 Ry
     Harris-Foulkes estimate   =     -31.58949502 Ry
     estimated scf accuracy    <       0.92642991 Ry

     iteration # 23     ecut=    30.00 Ry     beta=0.70
     Davidson diagonalization with overlap
     ethr =  1.21E-03,  avg # of iterations =  2.0

     total cpu time spent up to now is        2.9 secs

     total energy              =     -31.56525511 Ry
     Harris-Foulkes estimate   =     -31.64469514 Ry
     estimated scf accuracy    <       1.32258149 Ry

     iteration # 24     ecut=    30.00 Ry     beta=0.70
     Davidson diagonalization with overlap
     ethr =  1.21E-03,  avg # of iterations =  1.0

     total cpu time spent up to now is        3.0 secs

     total energy              =     -31.52366530 Ry
     Harris-Foulkes estimate   =     -31.56310333 Ry
     estimated scf accuracy    <       0.63827814 Ry

     iteration # 25     ecut=    30.00 Ry     beta=0.70
     Davidson diagonalization with overlap
     ethr =  1.21E-03,  avg # of iterations =  1.0

     total cpu time spent up to now is        3.0 secs

     total energy              =     -31.53854358 Ry
     Harris-Foulkes estimate   =     -31.56988108 Ry
     estimated scf accuracy    <       0.70835098 Ry

     iteration # 26     ecut=    30.00 Ry     beta=0.70
     Davidson diagonalization with overlap
     ethr =  1.21E-03,  avg # of iterations =  1.0

     total cpu time spent up to now is        3.1 secs

     total energy              =     -31.55517074 Ry
     Harris-Foulkes estimate   =     -31.55601163 Ry
     estimated scf accuracy    <       0.08740370 Ry

     iteration # 27     ecut=    30.00 Ry     beta=0.70
     Davidson diagonalization with overlap
     ethr =  1.09E-03,  avg # of iterations =  1.0

     total cpu time spent up to now is        3.1 secs

     total energy              =     -31.55585354 Ry
     Harris-Foulkes estimate   =     -31.55533372 Ry
     estimated scf accuracy    <       0.03506799 Ry

     iteration # 28     ecut=    30.00 Ry     beta=0.70
     Davidson diagonalization with overlap
     ethr =  4.38E-04,  avg # of iterations =  1.0

     total cpu time spent up to now is        3.2 secs

     total energy              =     -31.55225432 Ry
     Harris-Foulkes estimate   =     -31.55601832 Ry
     estimated scf accuracy    <       0.08997370 Ry

     iteration # 29     ecut=    30.00 Ry     beta=0.70
     Davidson diagonalization with overlap
     ethr =  4.38E-04,  avg # of iterations =  1.0

     total cpu time spent up to now is        3.2 secs

     total energy              =     -31.55373133 Ry
     Harris-Foulkes estimate   =     -31.55547235 Ry
     estimated scf accuracy    <       0.04198619 Ry

     iteration # 30     ecut=    30.00 Ry     beta=0.70
     Davidson diagonalization with overlap
     ethr =  4.38E-04,  avg # of iterations =  1.0

     total cpu time spent up to now is        3.3 secs

     total energy              =     -31.55437565 Ry
     Harris-Foulkes estimate   =     -31.55513019 Ry
     estimated scf accuracy    <       0.01709991 Ry

     iteration # 31     ecut=    30.00 Ry     beta=0.70
     Davidson diagonalization with overlap
     ethr =  2.14E-04,  avg # of iterations =  1.0

     total cpu time spent up to now is        3.3 secs

     total energy              =     -31.55491723 Ry
     Harris-Foulkes estimate   =     -31.55504749 Ry
     estimated scf accuracy    <       0.01014020 Ry

     iteration # 32     ecut=    30.00 Ry     beta=0.70
     Davidson diagonalization with overlap
     ethr =  1.27E-04,  avg # of iterations =  1.0

     total cpu time spent up to now is        3.4 secs

     total energy              =     -31.55486868 Ry
     Harris-Foulkes estimate   =     -31.55494924 Ry
     estimated scf accuracy    <       0.00253442 Ry

     iteration # 33     ecut=    30.00 Ry     beta=0.70
     Davidson diagonalization with overlap
     ethr =  3.17E-05,  avg # of iterations =  7.0

     total cpu time spent up to now is        3.4 secs

     total energy              =     -31.55491596 Ry
     Harris-Foulkes estimate   =     -31.55491883 Ry
     estimated scf accuracy    <       0.00016511 Ry

     iteration # 34     ecut=    30.00 Ry     beta=0.70
     Davidson diagonalization with overlap
     ethr =  2.06E-06,  avg # of iterations = 13.0

     total cpu time spent up to now is        3.5 secs

     total energy              =     -31.55491649 Ry
     Harris-Foulkes estimate   =     -31.55491692 Ry
     estimated scf accuracy    <       0.00001843 Ry

     iteration # 35     ecut=    30.00 Ry     beta=0.70
     Davidson diagonalization with overlap
     ethr =  2.30E-07,  avg # of iterations =  1.0

     total cpu time spent up to now is        3.6 secs

     total energy              =     -31.55491669 Ry
     Harris-Foulkes estimate   =     -31.55491669 Ry
     estimated scf accuracy    <       0.00000004 Ry

     iteration # 36     ecut=    30.00 Ry     beta=0.70
     Davidson diagonalization with overlap
     ethr =  5.11E-10,  avg # of iterations =  1.0

     total cpu time spent up to now is        3.6 secs

     End of self-consistent calculation

          k = 0.0000 0.0000 0.0000 ( 22119 PWs)   bands (ev):

   -23.6142  -7.6515  -6.9515  -6.9513  -6.8232  -6.4427  -0.1637   0.7060

     the Fermi energy is    -6.7907 ev

!    total energy              =     -31.55491667 Ry
     Harris-Foulkes estimate   =     -31.55491669 Ry
     estimated scf accuracy    <          9.0E-09 Ry

     convergence has been achieved in  36 iterations

     Forces acting on atoms (Ry/au):

     atom    1 type  2   force =    -0.02602338   -0.01105544   -0.05133992
     atom    2 type  1   force =    -0.00026154    0.00019936    0.00001629
     atom    3 type  1   force =     0.02628491    0.01085608    0.05132363

     Total force =     0.082935     Total SCF correction =     0.000018

     Entering Dynamics:    iteration =     2
                           time      =   0.0097 pico-seconds


     Andersen thermostat:    3 collisions

ATOMIC_POSITIONS (bohr)
O       11.721649050   7.937109677  15.975808735
H       17.496607293  13.176071016   5.148272650
H        9.925443196   6.921557376  12.274259016


     kinetic energy (Ekin) =     0.01690905 Ry
     temperature           =   889.90842214 K 
     Ekin + Etot (const)   =   -31.53800762 Ry
     Message from routine dynamics:
     Total linear momentum <> 0

     Linear momentum :   -0.2795354676    0.1911436707   -0.0398253127

     Writing output data file pwscf.save

     first order wave-functions extrapolation
     Check: negative starting charge=   -0.344735
     first order charge density extrapolation
     Check: negative starting charge=   -0.344398

     negative rho (up, down):  4.832E-01 0.000E+00

     total cpu time spent up to now is        4.1 secs

     per-process dynamical memory:    20.4 Mb

     Self-consistent Calculation

     iteration #  1     ecut=    30.00 Ry     beta=0.70
     Davidson diagonalization with overlap
     ethr =  1.00E-06,  avg # of iterations = 12.0

     negative rho (up, down):  1.147E-01 0.000E+00

     total cpu time spent up to now is        4.2 secs

     total energy              =      48.25957791 Ry
     Harris-Foulkes estimate   =    -109.34704485 Ry
     estimated scf accuracy    <      25.51573160 Ry

     iteration #  2     ecut=    30.00 Ry     beta=0.70
     Davidson diagonalization with overlap
     ethr =  1.00E-02,  avg # of iterations =  6.0

     negative rho (up, down):  7.098E-02 0.000E+00

     total cpu time spent up to now is        4.3 secs

     total energy              =     -35.19181081 Ry
     Harris-Foulkes estimate   =     -46.25494713 Ry
     estimated scf accuracy    <      21.99354375 Ry

     iteration #  3     ecut=    30.00 Ry     beta=0.70
     Davidson diagonalization with overlap
     ethr =  1.00E-02,  avg # of iterations =  2.0

     negative rho (up, down):  6.414E-02 0.000E+00

     total cpu time spent up to now is        4.4 secs

     total energy              =     -34.43921021 Ry
     Harris-Foulkes estimate   =     -36.05582842 Ry
     estimated scf accuracy    <      10.05050300 Ry

     iteration #  4     ecut=    30.00 Ry     beta=0.70
     Davidson diagonalization with overlap
     ethr =  1.00E-02,  avg # of iterations =  1.0

     negative rho (up, down):  3.845E-02 0.000E+00

     total cpu time spent up to now is        4.5 secs

     total energy              =     -32.31627714 Ry
     Harris-Foulkes estimate   =     -34.94243711 Ry
     estimated scf accuracy    <       6.35282673 Ry

     iteration #  5     ecut=    30.00 Ry     beta=0.70
     Davidson diagonalization with overlap
     ethr =  1.00E-02,  avg # of iterations =  1.0

     negative rho (up, down):  1.046E-02 0.000E+00

     total cpu time spent up to now is        4.5 secs

     total energy              =     -31.04739875 Ry
     Harris-Foulkes estimate   =     -32.38508087 Ry
     estimated scf accuracy    <       2.47597334 Ry

     iteration #  6     ecut=    30.00 Ry     beta=0.70
     Davidson diagonalization with overlap
     ethr =  1.00E-02,  avg # of iterations =  4.0

     negative rho (up, down):  1.724E-02 0.000E+00

     total cpu time spent up to now is        4.6 secs

     total energy              =     -31.65381174 Ry
     Harris-Foulkes estimate   =     -32.06630891 Ry
     estimated scf accuracy    <       2.09145903 Ry

     iteration #  7     ecut=    30.00 Ry     beta=0.70
     Davidson diagonalization with overlap
     ethr =  1.00E-02,  avg # of iterations =  1.0

     negative rho (up, down):  1.691E-02 0.000E+00

     total cpu time spent up to now is        4.6 secs

     total energy              =     -31.81641862 Ry
     Harris-Foulkes estimate   =     -31.83399810 Ry
     estimated scf accuracy    <       1.46209939 Ry

     iteration #  8     ecut=    30.00 Ry     beta=0.70
     Davidson diagonalization with overlap
     ethr =  1.00E-02,  avg # of iterations =  1.0

     negative rho (up, down):  1.697E-02 0.000E+00

     total cpu time spent up to now is        4.7 secs

     total energy              =     -31.81800790 Ry
     Harris-Foulkes estimate   =     -31.81723160 Ry
     estimated scf accuracy    <       1.41745650 Ry

     iteration #  9     ecut=    30.00 Ry     beta=0.70
     Davidson diagonalization with overlap
     ethr =  1.00E-02,  avg # of iterations =  1.0

     negative rho (up, down):  1.694E-02 0.000E+00

     total cpu time spent up to now is        4.7 secs

     total energy              =     -31.81734936 Ry
     Harris-Foulkes estimate   =     -31.81808194 Ry
     estimated scf accuracy    <       1.42566399 Ry

     iteration # 10     ecut=    30.00 Ry     beta=0.70
     Davidson diagonalization with overlap
     ethr =  1.00E-02,  avg # of iterations =  1.0

     negative rho (up, down):  1.014E-01 0.000E+00

     total cpu time spent up to now is        4.8 secs

     total energy              =     -31.60468595 Ry
     Harris-Foulkes estimate   =     -31.81735901 Ry
     estimated scf accuracy    <       1.42315328 Ry

     iteration # 11     ecut=    30.00 Ry     beta=0.70
     Davidson diagonalization with overlap
     ethr =  1.00E-02,  avg # of iterations =  3.0

     negative rho (up, down):  7.824E-02 0.000E+00

     total cpu time spent up to now is        4.9 secs

     total energy              =     -31.71756442 Ry
     Harris-Foulkes estimate   =     -33.11990017 Ry
     estimated scf accuracy    <       6.43216179 Ry

     iteration # 12     ecut=    30.00 Ry     beta=0.70
     Davidson diagonalization with overlap
     ethr =  1.00E-02,  avg # of iterations =  2.0

     negative rho (up, down):  1.033E-01 0.000E+00

     total cpu time spent up to now is        4.9 secs

     total energy              =     -32.22441648 Ry
     Harris-Foulkes estimate   =     -32.33201288 Ry
     estimated scf accuracy    <       5.50444275 Ry

     iteration # 13     ecut=    30.00 Ry     beta=0.70
     Davidson diagonalization with overlap
     ethr =  1.00E-02,  avg # of iterations =  2.0

     negative rho (up, down):  1.404E-01 0.000E+00

     total cpu time spent up to now is        5.0 secs

     total energy              =     -33.32287800 Ry
     Harris-Foulkes estimate   =     -32.27208770 Ry
     estimated scf accuracy    <       5.26468622 Ry

     iteration # 14     ecut=    30.00 Ry     beta=0.70
     Davidson diagonalization with overlap
     ethr =  1.00E-02,  avg # of iterations =  3.0

     negative rho (up, down):  2.974E-01 0.000E+00

     total cpu time spent up to now is        5.0 secs

     total energy              =     -29.98300066 Ry
     Harris-Foulkes estimate   =     -35.56726691 Ry
     estimated scf accuracy    <       3.67570033 Ry

     iteration # 15     ecut=    30.00 Ry     beta=0.70
     Davidson diagonalization with overlap
     ethr =  1.00E-02,  avg # of iterations =  2.0

     negative rho (up, down):  4.665E-01 0.000E+00

     total cpu time spent up to now is        5.1 secs

     total energy              =     -39.42148764 Ry
     Harris-Foulkes estimate   =     -31.93278419 Ry
     estimated scf accuracy    <       1.82788137 Ry

     iteration # 16     ecut=    30.00 Ry     beta=0.70
     Davidson diagonalization with overlap
     ethr =  1.00E-02,  avg # of iterations =  3.0

     negative rho (up, down):  3.302E-01 0.000E+00

     total cpu time spent up to now is        5.2 secs

     total energy              =     -14.28280568 Ry
     Harris-Foulkes estimate   =     -64.79061515 Ry
     estimated scf accuracy    <      10.91225960 Ry

     iteration # 17     ecut=    30.00 Ry     beta=0.70
     Davidson diagonalization with overlap
     ethr =  1.00E-02,  avg # of iterations =  4.0

     negative rho (up, down):  1.688E-02 0.000E+00

     total cpu time spent up to now is        5.2 secs

     total energy              =     -30.85692280 Ry
     Harris-Foulkes estimate   =     -32.36561359 Ry
     estimated scf accuracy    <       2.65905319 Ry

     iteration # 18     ecut=    30.00 Ry     beta=0.70
     Davidson diagonalization with overlap
     ethr =  1.00E-02,  avg # of iterations =  3.0

     negative rho (up, down):  1.611E-02 0.000E+00

     total cpu time spent up to now is        5.3 secs

     total energy              =     -31.34822361 Ry
     Harris-Foulkes estimate   =     -31.98593088 Ry
     estimated scf accuracy    <       3.87888391 Ry

     iteration # 19     ecut=    30.00 Ry     beta=0.70
     Davidson diagonalization with overlap
     ethr =  1.00E-02,  avg # of iterations =  2.0

     negative rho (up, down):  3.912E-03 0.000E+00

     total cpu time spent up to now is        5.3 secs

     total energy              =     -31.37589690 Ry
     Harris-Foulkes estimate   =     -31.74122986 Ry
     estimated scf accuracy    <       0.93840715 Ry

     iteration # 20     ecut=    30.00 Ry     beta=0.70
     Davidson diagonalization with overlap
     ethr =  1.00E-02,  avg # of iterations =  2.0

     negative rho (up, down):  4.552E-04 0.000E+00

     total cpu time spent up to now is        5.4 secs

     total energy              =     -31.52861789 Ry
     Harris-Foulkes estimate   =     -31.62334410 Ry
     estimated scf accuracy    <       1.33733261 Ry

     iteration # 21     ecut=    30.00 Ry     beta=0.70
     Davidson diagonalization with overlap
     ethr =  1.00E-02,  avg # of iterations =  1.0

     negative rho (up, down):  4.075E-04 0.000E+00

     total cpu time spent up to now is        5.4 secs

     total energy              =     -31.61991824 Ry
     Harris-Foulkes estimate   =     -31.66501601 Ry
     estimated scf accuracy    <       1.64125063 Ry

     iteration # 22     ecut=    30.00 Ry     beta=0.70
     Davidson diagonalization with overlap
     ethr =  1.00E-02,  avg # of iterations =  1.0

     negative rho (up, down):  4.774E-04 0.000E+00

     total cpu time spent up to now is        5.5 secs

     total energy              =     -31.57917722 Ry
     Harris-Foulkes estimate   =     -31.62541012 Ry
     estimated scf accuracy    <       1.21422615 Ry

     iteration # 23     ecut=    30.00 Ry     beta=0.70
     Davidson diagonalization with overlap
     ethr =  1.00E-02,  avg # of iterations =  1.0

     negative rho (up, down):  5.004E-04 0.000E+00

     total cpu time spent up to now is        5.5 secs

     total energy              =     -31.59005231 Ry
     Harris-Foulkes estimate   =     -31.59170972 Ry
     estimated scf accuracy    <       0.08954140 Ry

     iteration # 24     ecut=    30.00 Ry     beta=0.70
     Davidson diagonalization with overlap
     ethr =  1.12E-03,  avg # of iterations =  1.0

     negative rho (up, down):  4.424E-04 0.000E+00

     total cpu time spent up to now is        5.6 secs

     total energy              =     -31.59487551 Ry
     Harris-Foulkes estimate   =     -31.59137854 Ry
     estimated scf accuracy    <       0.04164938 Ry

     iteration # 25     ecut=    30.00 Ry     beta=0.70
     Davidson diagonalization with overlap
     ethr =  5.21E-04,  avg # of iterations =  1.0

     negative rho (up, down):  6.212E-05 0.000E+00

     total cpu time spent up to now is        5.6 secs

     total energy              =     -31.60634796 Ry
     Harris-Foulkes estimate   =     -31.59776638 Ry
     estimated scf accuracy    <       0.16021108 Ry

     iteration # 26     ecut=    30.00 Ry     beta=0.70
     Davidson diagonalization with overlap
     ethr =  5.21E-04,  avg # of iterations =  1.0

     negative rho (up, down):  4.247E-07 0.000E+00

     total cpu time spent up to now is        5.7 secs

     total energy              =     -31.61152324 Ry
     Harris-Foulkes estimate   =     -31.61481020 Ry
     estimated scf accuracy    <       0.16615097 Ry

     iteration # 27     ecut=    30.00 Ry     beta=0.70
     Davidson diagonalization with overlap
     ethr =  5.21E-04,  avg # of iterations =  1.0

     total cpu time spent up to now is        5.7 secs

     total energy              =     -31.61332650 Ry
     Harris-Foulkes estimate   =     -31.61355827 Ry
     estimated scf accuracy    <       0.00620557 Ry

     iteration # 28     ecut=    30.00 Ry     beta=0.70
     Davidson diagonalization with overlap
     ethr =  7.76E-05,  avg # of iterations =  1.0

     total cpu time spent up to now is        5.8 secs

     total energy              =     -31.61340804 Ry
     Harris-Foulkes estimate   =     -31.61367731 Ry
     estimated scf accuracy    <       0.00754527 Ry

     iteration # 29     ecut=    30.00 Ry     beta=0.70
     Davidson diagonalization with overlap
     ethr =  7.76E-05,  avg # of iterations =  1.0

     total cpu time spent up to now is        5.8 secs

     total energy              =     -31.61358295 Ry
     Harris-Foulkes estimate   =     -31.61361513 Ry
     estimated scf accuracy    <       0.00170237 Ry

     iteration # 30     ecut=    30.00 Ry     beta=0.70
     Davidson diagonalization with overlap
     ethr =  2.13E-05,  avg # of iterations =  6.0

     total cpu time spent up to now is        5.9 secs

     total energy              =     -31.61358960 Ry
     Harris-Foulkes estimate   =     -31.61359443 Ry
     estimated scf accuracy    <       0.00021922 Ry

     iteration # 31     ecut=    30.00 Ry     beta=0.70
     Davidson diagonalization with overlap
     ethr =  2.74E-06,  avg # of iterations = 16.0

     total cpu time spent up to now is        6.0 secs

     total energy              =     -31.61359158 Ry
     Harris-Foulkes estimate   =     -31.61359182 Ry
     estimated scf accuracy    <       0.00000633 Ry

     iteration # 32     ecut=    30.00 Ry     beta=0.70
     Davidson diagonalization with overlap
     ethr =  7.91E-08,  avg # of iterations =  1.0

     total cpu time spent up to now is        6.0 secs

     total energy              =     -31.61359182 Ry
     Harris-Foulkes estimate   =     -31.61359178 Ry
     estimated scf accuracy    <       0.00000019 Ry

     iteration # 33     ecut=    30.00 Ry     beta=0.70
     Davidson diagonalization with overlap
     ethr =  2.34E-09,  avg # of iterations =  1.0

     total cpu time spent up to now is        6.1 secs

     total energy              =     -31.61359194 Ry
     Harris-Foulkes estimate   =     -31.61359184 Ry
     estimated scf accuracy    <       0.00000011 Ry

     iteration # 34     ecut=    30.00 Ry     beta=0.70
     Davidson diagonalization with overlap
     ethr =  1.43E-09,  avg # of iterations =  1.0

     total cpu time spent up to now is        6.1 secs

     End of self-consistent calculation

          k = 0.0000 0.0000 0.0000 ( 22119 PWs)   bands (ev):

   -23.5856  -8.0359  -6.9080  -6.9076  -6.7728  -5.8768  -0.1444   0.7536

     the Fermi energy is    -6.7389 ev

!    total energy              =     -31.61359194 Ry
     Harris-Foulkes estimate   =     -31.61359194 Ry
     estimated scf accuracy    <          6.5E-10 Ry

     convergence has been achieved in  34 iterations

     Forces acting on atoms (Ry/au):

     atom    1 type  2   force =    -0.04002422   -0.02329427   -0.08350369
     atom    2 type  1   force =    -0.00025263    0.00014021   -0.00008464
     atom    3 type  1   force =     0.04027684    0.02315406    0.08358833

     Total force =     0.135140     Total SCF correction =     0.000037

     Entering Dynamics:    iteration =     3
                           time      =   0.0145 pico-seconds


     Andersen thermostat:    3 collisions

ATOMIC_POSITIONS (bohr)
O       11.688597079   7.943619881  15.949399125
H       17.747910291  13.114333473   4.740542225
H       10.197735769   6.880162981  13.100359504


     kinetic energy (Ekin) =     0.01967582 Ry
     temperature           =  1035.52090875 K 
     Ekin + Etot (const)   =   -31.59391612 Ry
     Message from routine dynamics:
     Total linear momentum <> 0

     Linear momentum :    0.1824899248   -0.0613016139   -0.1437381696

     Writing output data file pwscf.save

     second order wave-functions extrapolation
     Check: negative starting charge=   -0.344398
     second order charge density extrapolation
     Check: negative starting charge=   -0.345730

     negative rho (up, down):  7.552E-02 0.000E+00

     total cpu time spent up to now is        6.6 secs

     per-process dynamical memory:    20.4 Mb

     Self-consistent Calculation

     iteration #  1     ecut=    30.00 Ry     beta=0.70
     Davidson diagonalization with overlap
     c_bands:  1 eigenvalues not converged
     ethr =  1.00E-06,  avg # of iterations = 20.0

     negative rho (up, down):  1.588E-02 0.000E+00

     total cpu time spent up to now is        6.7 secs

     total energy              =     -16.11801983 Ry
     Harris-Foulkes estimate   =     -38.43427293 Ry
     estimated scf accuracy    <       7.86490893 Ry

     iteration #  2     ecut=    30.00 Ry     beta=0.70
     Davidson diagonalization with overlap
     ethr =  1.00E-02,  avg # of iterations =  4.0

     negative rho (up, down):  1.082E-02 0.000E+00

     total cpu time spent up to now is        6.8 secs

     total energy              =     -32.93508849 Ry
     Harris-Foulkes estimate   =     -39.07946743 Ry
     estimated scf accuracy    <      13.55112378 Ry

     iteration #  3     ecut=    30.00 Ry     beta=0.70
     Davidson diagonalization with overlap
     ethr =  1.00E-02,  avg # of iterations =  2.0

     negative rho (up, down):  7.509E-03 0.000E+00

     total cpu time spent up to now is        6.8 secs

     total energy              =     -31.99595017 Ry
     Harris-Foulkes estimate   =     -33.42222579 Ry
     estimated scf accuracy    <       4.21646955 Ry

     iteration #  4     ecut=    30.00 Ry     beta=0.70
     Davidson diagonalization with overlap
     ethr =  1.00E-02,  avg # of iterations =  3.0

     negative rho (up, down):  5.197E-03 0.000E+00

     total cpu time spent up to now is        6.9 secs

     total energy              =     -31.71327902 Ry
     Harris-Foulkes estimate   =     -32.05733040 Ry
     estimated scf accuracy    <       1.71104098 Ry

     iteration #  5     ecut=    30.00 Ry     beta=0.70
     Davidson diagonalization with overlap
     ethr =  1.00E-02,  avg # of iterations =  2.0

     negative rho (up, down):  4.147E-03 0.000E+00

     total cpu time spent up to now is        6.9 secs

     total energy              =     -31.66980276 Ry
     Harris-Foulkes estimate   =     -31.90826302 Ry
     estimated scf accuracy    <       1.46596869 Ry

     iteration #  6     ecut=    30.00 Ry     beta=0.70
     Davidson diagonalization with overlap
     ethr =  1.00E-02,  avg # of iterations =  1.0

     negative rho (up, down):  1.610E-03 0.000E+00

     total cpu time spent up to now is        7.0 secs

     total energy              =     -31.43766554 Ry
     Harris-Foulkes estimate   =     -31.91783331 Ry
     estimated scf accuracy    <       1.58411373 Ry

     iteration #  7     ecut=    30.00 Ry     beta=0.70
     Davidson diagonalization with overlap
     ethr =  1.00E-02,  avg # of iterations =  1.0

     negative rho (up, down):  2.054E-03 0.000E+00

     total cpu time spent up to now is        7.0 secs

     total energy              =     -31.83612293 Ry
     Harris-Foulkes estimate   =     -32.00713250 Ry
     estimated scf accuracy    <       1.87551676 Ry

     iteration #  8     ecut=    30.00 Ry     beta=0.70
     Davidson diagonalization with overlap
     ethr =  1.00E-02,  avg # of iterations =  1.0

     negative rho (up, down):  2.190E-03 0.000E+00

     total cpu time spent up to now is        7.1 secs

     total energy              =     -31.74490334 Ry
     Harris-Foulkes estimate   =     -31.84601778 Ry
     estimated scf accuracy    <       1.43301748 Ry

     iteration #  9     ecut=    30.00 Ry     beta=0.70
     Davidson diagonalization with overlap
     ethr =  1.00E-02,  avg # of iterations =  1.0

     negative rho (up, down):  2.173E-03 0.000E+00

     total cpu time spent up to now is        7.1 secs

     total energy              =     -31.69827509 Ry
     Harris-Foulkes estimate   =     -31.74468990 Ry
     estimated scf accuracy    <       0.94499275 Ry

     iteration # 10     ecut=    30.00 Ry     beta=0.70
     Davidson diagonalization with overlap
     ethr =  1.00E-02,  avg # of iterations =  1.0

     negative rho (up, down):  1.713E-04 0.000E+00

     total cpu time spent up to now is        7.2 secs

     total energy              =     -32.00595035 Ry
     Harris-Foulkes estimate   =     -31.74628865 Ry
     estimated scf accuracy    <       0.74402417 Ry

     iteration # 11     ecut=    30.00 Ry     beta=0.70
     Davidson diagonalization with overlap
     ethr =  9.30E-03,  avg # of iterations =  1.0

     negative rho (up, down):  5.580E-06 0.000E+00

     total cpu time spent up to now is        7.2 secs

     total energy              =     -31.74785804 Ry
     Harris-Foulkes estimate   =     -32.09271596 Ry
     estimated scf accuracy    <       1.88038581 Ry

     iteration # 12     ecut=    30.00 Ry     beta=0.70
     Davidson diagonalization with overlap
     ethr =  9.30E-03,  avg # of iterations =  1.0

     negative rho (up, down):  8.929E-06 0.000E+00

     total cpu time spent up to now is        7.3 secs

     total energy              =     -31.77025386 Ry
     Harris-Foulkes estimate   =     -31.76792767 Ry
     estimated scf accuracy    <       1.00929344 Ry

     iteration # 13     ecut=    30.00 Ry     beta=0.70
     Davidson diagonalization with overlap
     ethr =  9.30E-03,  avg # of iterations =  1.0

     negative rho (up, down):  8.702E-06 0.000E+00

     total cpu time spent up to now is        7.3 secs

     total energy              =     -31.77301152 Ry
     Harris-Foulkes estimate   =     -31.77058614 Ry
     estimated scf accuracy    <       1.00412373 Ry

     iteration # 14     ecut=    30.00 Ry     beta=0.70
     Davidson diagonalization with overlap
     ethr =  9.30E-03,  avg # of iterations =  1.0

     negative rho (up, down):  4.231E-06 0.000E+00

     total cpu time spent up to now is        7.4 secs

     total energy              =     -31.73483004 Ry
     Harris-Foulkes estimate   =     -31.77303497 Ry
     estimated scf accuracy    <       1.00463920 Ry

     iteration # 15     ecut=    30.00 Ry     beta=0.70
     Davidson diagonalization with overlap
     ethr =  9.30E-03,  avg # of iterations =  1.0

     negative rho (up, down):  1.861E-06 0.000E+00

     total cpu time spent up to now is        7.4 secs

     total energy              =     -31.71158935 Ry
     Harris-Foulkes estimate   =     -31.73611038 Ry
     estimated scf accuracy    <       0.68139130 Ry

     iteration # 16     ecut=    30.00 Ry     beta=0.70
     Davidson diagonalization with overlap
     ethr =  8.52E-03,  avg # of iterations =  1.0

     negative rho (up, down):  2.152E-06 0.000E+00

     total cpu time spent up to now is        7.5 secs

     total energy              =     -31.72120135 Ry
     Harris-Foulkes estimate   =     -31.72230891 Ry
     estimated scf accuracy    <       0.00154658 Ry

     iteration # 17     ecut=    30.00 Ry     beta=0.70
     Davidson diagonalization with overlap
     ethr =  1.93E-05,  avg # of iterations = 13.0

     negative rho (up, down):  2.956E-05 0.000E+00

     total cpu time spent up to now is        7.5 secs

     total energy              =     -31.74619916 Ry
     Harris-Foulkes estimate   =     -31.75411587 Ry
     estimated scf accuracy    <       0.96871016 Ry

     iteration # 18     ecut=    30.00 Ry     beta=0.70
     Davidson diagonalization with overlap
     ethr =  1.93E-05,  avg # of iterations =  1.0

     negative rho (up, down):  5.327E-05 0.000E+00

     total cpu time spent up to now is        7.6 secs

     total energy              =     -31.74776952 Ry
     Harris-Foulkes estimate   =     -31.74638079 Ry
     estimated scf accuracy    <       0.91836481 Ry

     iteration # 19     ecut=    30.00 Ry     beta=0.70
     Davidson diagonalization with overlap
     ethr =  1.93E-05,  avg # of iterations =  1.0

     negative rho (up, down):  2.180E-05 0.000E+00

     total cpu time spent up to now is        7.6 secs

     total energy              =     -31.73751325 Ry
     Harris-Foulkes estimate   =     -31.74779985 Ry
     estimated scf accuracy    <       0.94301430 Ry

     iteration # 20     ecut=    30.00 Ry     beta=0.70
     Davidson diagonalization with overlap
     ethr =  1.93E-05,  avg # of iterations =  1.0

     total cpu time spent up to now is        7.7 secs

     total energy              =     -31.70685607 Ry
     Harris-Foulkes estimate   =     -31.73795620 Ry
     estimated scf accuracy    <       0.75444931 Ry

     iteration # 21     ecut=    30.00 Ry     beta=0.70
     Davidson diagonalization with overlap
     ethr =  1.93E-05,  avg # of iterations =  3.0

     total cpu time spent up to now is        7.7 secs

     total energy              =     -31.72391342 Ry
     Harris-Foulkes estimate   =     -31.72289032 Ry
     estimated scf accuracy    <       0.04607630 Ry

     iteration # 22     ecut=    30.00 Ry     beta=0.70
     Davidson diagonalization with overlap
     ethr =  1.93E-05,  avg # of iterations =  1.0

     total cpu time spent up to now is        7.8 secs

     total energy              =     -31.72197888 Ry
     Harris-Foulkes estimate   =     -31.72438979 Ry
     estimated scf accuracy    <       0.17157701 Ry

     iteration # 23     ecut=    30.00 Ry     beta=0.70
     Davidson diagonalization with overlap
     ethr =  1.93E-05,  avg # of iterations =  1.0

     total cpu time spent up to now is        7.8 secs

     total energy              =     -31.72138423 Ry
     Harris-Foulkes estimate   =     -31.72266943 Ry
     estimated scf accuracy    <       0.03040012 Ry

     iteration # 24     ecut=    30.00 Ry     beta=0.70
     Davidson diagonalization with overlap
     ethr =  1.93E-05,  avg # of iterations =  1.0

     total cpu time spent up to now is        7.9 secs

     total energy              =     -31.72218463 Ry
     Harris-Foulkes estimate   =     -31.72249316 Ry
     estimated scf accuracy    <       0.01505890 Ry

     iteration # 25     ecut=    30.00 Ry     beta=0.70
     Davidson diagonalization with overlap
     ethr =  1.93E-05,  avg # of iterations =  1.0

     total cpu time spent up to now is        7.9 secs

     total energy              =     -31.72230562 Ry
     Harris-Foulkes estimate   =     -31.72230569 Ry
     estimated scf accuracy    <       0.00063265 Ry

     iteration # 26     ecut=    30.00 Ry     beta=0.70
     Davidson diagonalization with overlap
     ethr =  7.91E-06,  avg # of iterations =  1.0

     total cpu time spent up to now is        8.0 secs

     total energy              =     -31.72229903 Ry
     Harris-Foulkes estimate   =     -31.72230567 Ry
     estimated scf accuracy    <       0.00060592 Ry

     iteration # 27     ecut=    30.00 Ry     beta=0.70
     Davidson diagonalization with overlap
     ethr =  7.57E-06,  avg # of iterations =  1.0

     total cpu time spent up to now is        8.0 secs

     total energy              =     -31.72229773 Ry
     Harris-Foulkes estimate   =     -31.72230041 Ry
     estimated scf accuracy    <       0.00020015 Ry

     iteration # 28     ecut=    30.00 Ry     beta=0.70
     Davidson diagonalization with overlap
     ethr =  2.50E-06,  avg # of iterations =  1.0

     total cpu time spent up to now is        8.1 secs

     total energy              =     -31.72229736 Ry
     Harris-Foulkes estimate   =     -31.72229844 Ry
     estimated scf accuracy    <       0.00004370 Ry

     iteration # 29     ecut=    30.00 Ry     beta=0.70
     Davidson diagonalization with overlap
     ethr =  5.46E-07,  avg # of iterations =  1.0

     total cpu time spent up to now is        8.1 secs

     End of self-consistent calculation

          k = 0.0000 0.0000 0.0000 ( 22119 PWs)   bands (ev):

   -23.5892  -8.6815  -6.8930  -6.8924  -6.7579  -4.4809  -0.1068   0.7944

     the Fermi energy is    -6.7239 ev

!    total energy              =     -31.72229792 Ry
     Harris-Foulkes estimate   =     -31.72229791 Ry
     estimated scf accuracy    <          4.6E-11 Ry

     convergence has been achieved in  29 iterations

     Forces acting on atoms (Ry/au):

     atom    1 type  2   force =    -0.07322798   -0.05251047   -0.14022653
     atom    2 type  1   force =    -0.00011356    0.00018116   -0.00018534
     atom    3 type  1   force =     0.07334153    0.05232931    0.14041187

     Total force =     0.235831     Total SCF correction =     0.000005

     Entering Dynamics:    iteration =     4
                           time      =   0.0194 pico-seconds


     Andersen thermostat:    3 collisions

ATOMIC_POSITIONS (bohr)
O       11.675252248   7.882266853  15.854524807
H       17.480410774  13.401240905   4.876702428
H       10.676638553   7.565184698  14.467158804


     kinetic energy (Ekin) =     0.03711997 Ry
     temperature           =  1953.59085138 K 
     Ekin + Etot (const)   =   -31.68517795 Ry
     Message from routine dynamics:
     Total linear momentum <> 0

     Linear momentum :   -0.0777806548   -0.1071542139    0.3437155059

     Writing output data file pwscf.save

     second order wave-functions extrapolation
     Check: negative starting charge=   -0.345730
     second order charge density extrapolation
     Check: negative starting charge=   -0.350103

     negative rho (up, down):  3.548E-01 0.000E+00

     total cpu time spent up to now is        8.6 secs

     per-process dynamical memory:    20.4 Mb

     Self-consistent Calculation

     iteration #  1     ecut=    30.00 Ry     beta=0.70
     Davidson diagonalization with overlap
     ethr =  1.00E-06,  avg # of iterations = 11.0

     negative rho (up, down):  6.216E-02 0.000E+00

     total cpu time spent up to now is        8.8 secs

     total energy              =     -13.79085276 Ry
     Harris-Foulkes estimate   =     -37.80415528 Ry
     estimated scf accuracy    <       6.92600303 Ry

     iteration #  2     ecut=    30.00 Ry     beta=0.70
     Davidson diagonalization with overlap
     ethr =  1.00E-02,  avg # of iterations =  4.0

     negative rho (up, down):  3.808E-02 0.000E+00

     total cpu time spent up to now is        8.9 secs

     total energy              =     -31.89017700 Ry
     Harris-Foulkes estimate   =     -34.78973011 Ry
     estimated scf accuracy    <       5.49351435 Ry

     iteration #  3     ecut=    30.00 Ry     beta=0.70
     Davidson diagonalization with overlap
     ethr =  1.00E-02,  avg # of iterations =  2.0

     negative rho (up, down):  3.038E-02 0.000E+00

     total cpu time spent up to now is        8.9 secs

     total energy              =     -32.55740731 Ry
     Harris-Foulkes estimate   =     -33.67632200 Ry
     estimated scf accuracy    <       4.13579206 Ry

     iteration #  4     ecut=    30.00 Ry     beta=0.70
     Davidson diagonalization with overlap
     ethr =  1.00E-02,  avg # of iterations =  2.0

     negative rho (up, down):  3.725E-02 0.000E+00

     total cpu time spent up to now is        9.0 secs

     total energy              =     -33.33314872 Ry
     Harris-Foulkes estimate   =     -32.63473947 Ry
     estimated scf accuracy    <       2.34271520 Ry

     iteration #  5     ecut=    30.00 Ry     beta=0.70
     Davidson diagonalization with overlap
     ethr =  1.00E-02,  avg # of iterations =  1.0

     negative rho (up, down):  1.817E-02 0.000E+00

     total cpu time spent up to now is        9.0 secs

     total energy              =     -31.33772306 Ry
     Harris-Foulkes estimate   =     -33.34830251 Ry
     estimated scf accuracy    <       3.42775806 Ry

     iteration #  6     ecut=    30.00 Ry     beta=0.70
     Davidson diagonalization with overlap
     ethr =  1.00E-02,  avg # of iterations =  2.0

     negative rho (up, down):  1.307E-02 0.000E+00

     total cpu time spent up to now is        9.1 secs

     total energy              =     -32.69632736 Ry
     Harris-Foulkes estimate   =     -32.94114487 Ry
     estimated scf accuracy    <       2.58785739 Ry

     iteration #  7     ecut=    30.00 Ry     beta=0.70
     Davidson diagonalization with overlap
     ethr =  1.00E-02,  avg # of iterations =  1.0

     negative rho (up, down):  6.855E-03 0.000E+00

     total cpu time spent up to now is        9.1 secs

     total energy              =     -31.88352806 Ry
     Harris-Foulkes estimate   =     -32.70426419 Ry
     estimated scf accuracy    <       2.26170687 Ry

     iteration #  8     ecut=    30.00 Ry     beta=0.70
     Davidson diagonalization with overlap
     ethr =  1.00E-02,  avg # of iterations =  1.0

     negative rho (up, down):  6.848E-03 0.000E+00

     total cpu time spent up to now is        9.2 secs

     total energy              =     -31.89566596 Ry
     Harris-Foulkes estimate   =     -31.91861741 Ry
     estimated scf accuracy    <       0.71740479 Ry

     iteration #  9     ecut=    30.00 Ry     beta=0.70
     Davidson diagonalization with overlap
     ethr =  8.97E-03,  avg # of iterations =  1.0

     negative rho (up, down):  4.463E-03 0.000E+00

     total cpu time spent up to now is        9.2 secs

     total energy              =     -31.89432167 Ry
     Harris-Foulkes estimate   =     -31.91007090 Ry
     estimated scf accuracy    <       0.06608976 Ry

     iteration # 10     ecut=    30.00 Ry     beta=0.70
     Davidson diagonalization with overlap
     ethr =  8.26E-04,  avg # of iterations =  1.0

     negative rho (up, down):  2.914E-05 0.000E+00

     total cpu time spent up to now is        9.3 secs

     total energy              =     -32.29161242 Ry
     Harris-Foulkes estimate   =     -32.05244382 Ry
     estimated scf accuracy    <       1.12934921 Ry

     iteration # 11     ecut=    30.00 Ry     beta=0.70
     Davidson diagonalization with overlap
     ethr =  8.26E-04,  avg # of iterations =  3.0

     negative rho (up, down):  3.188E-05 0.000E+00

     total cpu time spent up to now is        9.3 secs

     total energy              =     -32.96685255 Ry
     Harris-Foulkes estimate   =     -32.30070391 Ry
     estimated scf accuracy    <       1.40045100 Ry

     iteration # 12     ecut=    30.00 Ry     beta=0.70
     Davidson diagonalization with overlap
     ethr =  8.26E-04,  avg # of iterations =  3.0

     negative rho (up, down):  1.972E-05 0.000E+00

     total cpu time spent up to now is        9.4 secs

     total energy              =     -33.15455983 Ry
     Harris-Foulkes estimate   =     -32.98678870 Ry
     estimated scf accuracy    <       2.42004865 Ry

     iteration # 13     ecut=    30.00 Ry     beta=0.70
     Davidson diagonalization with overlap
     ethr =  8.26E-04,  avg # of iterations =  1.0

     negative rho (up, down):  2.927E-05 0.000E+00

     total cpu time spent up to now is        9.4 secs

     total energy              =     -32.86678082 Ry
     Harris-Foulkes estimate   =     -33.15500819 Ry
     estimated scf accuracy    <       2.64699010 Ry

     iteration # 14     ecut=    30.00 Ry     beta=0.70
     Davidson diagonalization with overlap
     ethr =  8.26E-04,  avg # of iterations =  1.0

     negative rho (up, down):  1.025E-05 0.000E+00

     total cpu time spent up to now is        9.5 secs

     total energy              =     -33.37001443 Ry
     Harris-Foulkes estimate   =     -32.86808463 Ry
     estimated scf accuracy    <       2.25890120 Ry

     iteration # 15     ecut=    30.00 Ry     beta=0.70
     Davidson diagonalization with overlap
     ethr =  8.26E-04,  avg # of iterations =  5.0

     negative rho (up, down):  7.655E-06 0.000E+00

     total cpu time spent up to now is        9.5 secs

     total energy              =     -33.32140276 Ry
     Harris-Foulkes estimate   =     -33.37284829 Ry
     estimated scf accuracy    <       2.92084177 Ry

     iteration # 16     ecut=    30.00 Ry     beta=0.70
     Davidson diagonalization with overlap
     ethr =  8.26E-04,  avg # of iterations =  1.0

     negative rho (up, down):  5.460E-06 0.000E+00

     total cpu time spent up to now is        9.6 secs

     total energy              =     -33.33047162 Ry
     Harris-Foulkes estimate   =     -33.32149675 Ry
     estimated scf accuracy    <       2.85870631 Ry

     iteration # 17     ecut=    30.00 Ry     beta=0.70
     Davidson diagonalization with overlap
     ethr =  8.26E-04,  avg # of iterations =  1.0

     negative rho (up, down):  8.445E-07 0.000E+00

     total cpu time spent up to now is        9.6 secs

     total energy              =     -32.83038100 Ry
     Harris-Foulkes estimate   =     -33.33047767 Ry
     estimated scf accuracy    <       2.87077618 Ry

     iteration # 18     ecut=    30.00 Ry     beta=0.70
     Davidson diagonalization with overlap
     ethr =  8.26E-04,  avg # of iterations =  3.0

     negative rho (up, down):  4.016E-03 0.000E+00

     total cpu time spent up to now is        9.7 secs

     total energy              =     -31.12440088 Ry
     Harris-Foulkes estimate   =     -32.83493824 Ry
     estimated scf accuracy    <       2.17957714 Ry

     iteration # 19     ecut=    30.00 Ry     beta=0.70
     Davidson diagonalization with overlap
     ethr =  8.26E-04,  avg # of iterations = 14.0

     negative rho (up, down):  2.932E-04 0.000E+00

     total cpu time spent up to now is        9.8 secs

     total energy              =     -33.87828118 Ry
     Harris-Foulkes estimate   =     -33.83006011 Ry
     estimated scf accuracy    <      11.91985941 Ry

     iteration # 20     ecut=    30.00 Ry     beta=0.70
     Davidson diagonalization with overlap
     ethr =  8.26E-04,  avg # of iterations =  3.0

     negative rho (up, down):  2.092E-04 0.000E+00

     total cpu time spent up to now is        9.9 secs

     total energy              =     -33.78887712 Ry
     Harris-Foulkes estimate   =     -33.89792514 Ry
     estimated scf accuracy    <      11.80231976 Ry

     iteration # 21     ecut=    30.00 Ry     beta=0.70
     Davidson diagonalization with overlap
     ethr =  8.26E-04,  avg # of iterations =  1.0

     negative rho (up, down):  6.412E-03 0.000E+00

     total cpu time spent up to now is        9.9 secs

     total energy              =     -33.28391282 Ry
     Harris-Foulkes estimate   =     -33.79062450 Ry
     estimated scf accuracy    <      11.61640010 Ry

     iteration # 22     ecut=    30.00 Ry     beta=0.70
     Davidson diagonalization with overlap
     ethr =  8.26E-04,  avg # of iterations =  2.0

     negative rho (up, down):  7.501E-03 0.000E+00

     total cpu time spent up to now is       10.0 secs

     total energy              =     -33.51250761 Ry
     Harris-Foulkes estimate   =     -33.31223969 Ry
     estimated scf accuracy    <      10.55905355 Ry

     iteration # 23     ecut=    30.00 Ry     beta=0.70
     Davidson diagonalization with overlap
     ethr =  8.26E-04,  avg # of iterations =  1.0

     negative rho (up, down):  4.001E-02 0.000E+00

     total cpu time spent up to now is       10.0 secs

     total energy              =     -34.07221319 Ry
     Harris-Foulkes estimate   =     -33.52036540 Ry
     estimated scf accuracy    <      10.88665216 Ry

     iteration # 24     ecut=    30.00 Ry     beta=0.70
     Davidson diagonalization with overlap
     ethr =  8.26E-04,  avg # of iterations =  2.0

     negative rho (up, down):  7.061E-02 0.000E+00

     total cpu time spent up to now is       10.1 secs

     total energy              =     -32.80446858 Ry
     Harris-Foulkes estimate   =     -34.08475190 Ry
     estimated scf accuracy    <      12.01897822 Ry

     iteration # 25     ecut=    30.00 Ry     beta=0.70
     Davidson diagonalization with overlap
     ethr =  8.26E-04,  avg # of iterations =  7.0

     negative rho (up, down):  6.105E-02 0.000E+00

     total cpu time spent up to now is       10.1 secs

     total energy              =     -31.60267594 Ry
     Harris-Foulkes estimate   =     -32.93510117 Ry
     estimated scf accuracy    <       3.22062643 Ry

     iteration # 26     ecut=    30.00 Ry     beta=0.70
     Davidson diagonalization with overlap
     ethr =  8.26E-04,  avg # of iterations =  8.0

     negative rho (up, down):  4.561E-02 0.000E+00

     total cpu time spent up to now is       10.2 secs

     total energy              =     -31.87506125 Ry
     Harris-Foulkes estimate   =     -32.04778175 Ry
     estimated scf accuracy    <       1.10200332 Ry

     iteration # 27     ecut=    30.00 Ry     beta=0.70
     Davidson diagonalization with overlap
     ethr =  8.26E-04,  avg # of iterations =  1.0

     negative rho (up, down):  5.076E-02 0.000E+00

     total cpu time spent up to now is       10.3 secs

     total energy              =     -31.93795573 Ry
     Harris-Foulkes estimate   =     -31.90923641 Ry
     estimated scf accuracy    <       0.35537557 Ry

     iteration # 28     ecut=    30.00 Ry     beta=0.70
     Davidson diagonalization with overlap
     ethr =  8.26E-04,  avg # of iterations =  1.0

     negative rho (up, down):  7.648E-03 0.000E+00

     total cpu time spent up to now is       10.3 secs

     total energy              =     -32.00006854 Ry
     Harris-Foulkes estimate   =     -31.96309506 Ry
     estimated scf accuracy    <       1.44560962 Ry

     iteration # 29     ecut=    30.00 Ry     beta=0.70
     Davidson diagonalization with overlap
     ethr =  8.26E-04,  avg # of iterations =  1.0

     negative rho (up, down):  6.672E-04 0.000E+00

     total cpu time spent up to now is       10.4 secs

     total energy              =     -31.92870638 Ry
     Harris-Foulkes estimate   =     -31.99927132 Ry
     estimated scf accuracy    <       1.36351981 Ry

     iteration # 30     ecut=    30.00 Ry     beta=0.70
     Davidson diagonalization with overlap
     ethr =  8.26E-04,  avg # of iterations =  1.0

     negative rho (up, down):  2.362E-04 0.000E+00

     total cpu time spent up to now is       10.4 secs

     total energy              =     -31.87800959 Ry
     Harris-Foulkes estimate   =     -31.92513354 Ry
     estimated scf accuracy    <       1.35281188 Ry

     iteration # 31     ecut=    30.00 Ry     beta=0.70
     Davidson diagonalization with overlap
     ethr =  8.26E-04,  avg # of iterations =  1.0

     negative rho (up, down):  1.160E-04 0.000E+00

     total cpu time spent up to now is       10.5 secs

     total energy              =     -31.89640822 Ry
     Harris-Foulkes estimate   =     -31.90666750 Ry
     estimated scf accuracy    <       0.11052982 Ry

     iteration # 32     ecut=    30.00 Ry     beta=0.70
     Davidson diagonalization with overlap
     ethr =  8.26E-04,  avg # of iterations =  1.0

     total cpu time spent up to now is       10.5 secs

     total energy              =     -31.89448326 Ry
     Harris-Foulkes estimate   =     -31.91568208 Ry
     estimated scf accuracy    <       0.81693261 Ry

     iteration # 33     ecut=    30.00 Ry     beta=0.70
     Davidson diagonalization with overlap
     ethr =  8.26E-04,  avg # of iterations =  1.0

     negative rho (up, down):  8.990E-06 0.000E+00

     total cpu time spent up to now is       10.6 secs

     total energy              =     -31.90891952 Ry
     Harris-Foulkes estimate   =     -31.90509005 Ry
     estimated scf accuracy    <       0.00140339 Ry

     iteration # 34     ecut=    30.00 Ry     beta=0.70
     Davidson diagonalization with overlap
     ethr =  1.75E-05,  avg # of iterations =  6.0

     negative rho (up, down):  4.237E-04 0.000E+00

     total cpu time spent up to now is       10.6 secs

     total energy              =     -32.00247023 Ry
     Harris-Foulkes estimate   =     -31.96503821 Ry
     estimated scf accuracy    <       0.96534338 Ry

     iteration # 35     ecut=    30.00 Ry     beta=0.70
     Davidson diagonalization with overlap
     ethr =  1.75E-05,  avg # of iterations =  4.0

     negative rho (up, down):  2.522E-04 0.000E+00

     total cpu time spent up to now is       10.7 secs

     total energy              =     -32.05234381 Ry
     Harris-Foulkes estimate   =     -32.00251135 Ry
     estimated scf accuracy    <       1.01707680 Ry

     iteration # 36     ecut=    30.00 Ry     beta=0.70
     Davidson diagonalization with overlap
     ethr =  1.75E-05,  avg # of iterations = 17.0

     negative rho (up, down):  1.116E-03 0.000E+00

     total cpu time spent up to now is       10.8 secs

     total energy              =     -32.19754959 Ry
     Harris-Foulkes estimate   =     -32.05251790 Ry
     estimated scf accuracy    <       1.09189507 Ry

     iteration # 37     ecut=    30.00 Ry     beta=0.70
     Davidson diagonalization with overlap
     ethr =  1.75E-05,  avg # of iterations =  9.0

     negative rho (up, down):  2.325E-04 0.000E+00

     total cpu time spent up to now is       10.8 secs

     total energy              =     -32.40863191 Ry
     Harris-Foulkes estimate   =     -32.19838539 Ry
     estimated scf accuracy    <       1.30346154 Ry

     iteration # 38     ecut=    30.00 Ry     beta=0.70
     Davidson diagonalization with overlap
     ethr =  1.75E-05,  avg # of iterations =  9.0

     negative rho (up, down):  1.057E-04 0.000E+00

     total cpu time spent up to now is       10.9 secs

     total energy              =     -32.47976827 Ry
     Harris-Foulkes estimate   =     -32.41769729 Ry
     estimated scf accuracy    <       1.59486884 Ry

     iteration # 39     ecut=    30.00 Ry     beta=0.70
     Davidson diagonalization with overlap
     ethr =  1.75E-05,  avg # of iterations =  2.0

     negative rho (up, down):  2.647E-05 0.000E+00

     total cpu time spent up to now is       11.0 secs

     total energy              =     -32.46535905 Ry
     Harris-Foulkes estimate   =     -32.47985010 Ry
     estimated scf accuracy    <       1.68099365 Ry

     iteration # 40     ecut=    30.00 Ry     beta=0.70
     Davidson diagonalization with overlap
     ethr =  1.75E-05,  avg # of iterations =  1.0

     negative rho (up, down):  3.296E-04 0.000E+00

     total cpu time spent up to now is       11.0 secs

     total energy              =     -32.36051609 Ry
     Harris-Foulkes estimate   =     -32.46536509 Ry
     estimated scf accuracy    <       1.66245170 Ry

     iteration # 41     ecut=    30.00 Ry     beta=0.70
     Davidson diagonalization with overlap
     ethr =  1.75E-05,  avg # of iterations =  3.0

     negative rho (up, down):  3.296E-06 0.000E+00

     total cpu time spent up to now is       11.1 secs

     total energy              =     -32.43600025 Ry
     Harris-Foulkes estimate   =     -32.36075134 Ry
     estimated scf accuracy    <       1.51781058 Ry

     iteration # 42     ecut=    30.00 Ry     beta=0.70
     Davidson diagonalization with overlap
     ethr =  1.75E-05,  avg # of iterations =  3.0

     negative rho (up, down):  2.142E-02 0.000E+00

     total cpu time spent up to now is       11.1 secs

     total energy              =     -31.24470374 Ry
     Harris-Foulkes estimate   =     -32.43612790 Ry
     estimated scf accuracy    <       1.62047662 Ry

     iteration # 43     ecut=    30.00 Ry     beta=0.70
     Davidson diagonalization with overlap
     ethr =  1.75E-05,  avg # of iterations = 15.0

     negative rho (up, down):  8.542E-07 0.000E+00

     total cpu time spent up to now is       11.2 secs

     total energy              =     -32.77856301 Ry
     Harris-Foulkes estimate   =     -33.30949456 Ry
     estimated scf accuracy    <      11.18243011 Ry

     iteration # 44     ecut=    30.00 Ry     beta=0.70
     Davidson diagonalization with overlap
     ethr =  1.75E-05,  avg # of iterations = 12.0

     total cpu time spent up to now is       11.3 secs

     total energy              =     -31.62981973 Ry
     Harris-Foulkes estimate   =     -33.00737993 Ry
     estimated scf accuracy    <       3.21099612 Ry

     iteration # 45     ecut=    30.00 Ry     beta=0.70
     Davidson diagonalization with overlap
     ethr =  1.75E-05,  avg # of iterations = 11.0

     total cpu time spent up to now is       11.4 secs

     total energy              =     -31.77187143 Ry
     Harris-Foulkes estimate   =     -32.05998448 Ry
     estimated scf accuracy    <       1.09910676 Ry

     iteration # 46     ecut=    30.00 Ry     beta=0.70
     Davidson diagonalization with overlap
     ethr =  1.75E-05,  avg # of iterations =  6.0

     total cpu time spent up to now is       11.5 secs

     total energy              =     -31.96632345 Ry
     Harris-Foulkes estimate   =     -32.04184623 Ry
     estimated scf accuracy    <       1.43404505 Ry

     iteration # 47     ecut=    30.00 Ry     beta=0.70
     Davidson diagonalization with overlap
     ethr =  1.75E-05,  avg # of iterations =  4.0

     total cpu time spent up to now is       11.6 secs

     total energy              =     -31.65182920 Ry
     Harris-Foulkes estimate   =     -31.96658092 Ry
     estimated scf accuracy    <       1.38158422 Ry

     iteration # 48     ecut=    30.00 Ry     beta=0.70
     Davidson diagonalization with overlap
     ethr =  1.75E-05,  avg # of iterations =  8.0

     total cpu time spent up to now is       11.7 secs

     total energy              =     -32.07992941 Ry
     Harris-Foulkes estimate   =     -32.11629106 Ry
     estimated scf accuracy    <       1.18267665 Ry

     iteration # 49     ecut=    30.00 Ry     beta=0.70
     Davidson diagonalization with overlap
     ethr =  1.75E-05,  avg # of iterations =  1.0

     total cpu time spent up to now is       11.7 secs

     total energy              =     -32.00088087 Ry
     Harris-Foulkes estimate   =     -32.07997237 Ry
     estimated scf accuracy    <       1.13110633 Ry

     iteration # 50     ecut=    30.00 Ry     beta=0.70
     Davidson diagonalization with overlap
     ethr =  1.75E-05,  avg # of iterations =  4.0

     total cpu time spent up to now is       11.8 secs

     total energy              =     -32.02053131 Ry
     Harris-Foulkes estimate   =     -32.00112357 Ry
     estimated scf accuracy    <       1.01639412 Ry

     iteration # 51     ecut=    30.00 Ry     beta=0.70
     Davidson diagonalization with overlap
     ethr =  1.75E-05,  avg # of iterations =  1.0

     total cpu time spent up to now is       11.8 secs

     total energy              =     -32.09250198 Ry
     Harris-Foulkes estimate   =     -32.02054598 Ry
     estimated scf accuracy    <       1.04421654 Ry

     iteration # 52     ecut=    30.00 Ry     beta=0.70
     Davidson diagonalization with overlap
     ethr =  1.75E-05,  avg # of iterations =  4.0

     negative rho (up, down):  2.013E-04 0.000E+00

     total cpu time spent up to now is       11.9 secs

     total energy              =     -32.30619457 Ry
     Harris-Foulkes estimate   =     -32.09269730 Ry
[...]
     Harris-Foulkes estimate   =     -32.47996542 Ry
     estimated scf accuracy    <       1.67873980 Ry

     iteration # 56     ecut=    30.00 Ry     beta=0.70
     Davidson diagonalization with overlap
     ethr =  1.75E-05,  avg # of iterations =  5.0

     negative rho (up, down):  6.387E-03 0.000E+00

     total cpu time spent up to now is       12.1 secs

     total energy              =     -31.25085658 Ry
     Harris-Foulkes estimate   =     -32.18109173 Ry
     estimated scf accuracy    <       1.27735420 Ry

     iteration # 57     ecut=    30.00 Ry     beta=0.70
     Davidson diagonalization with overlap
     ethr =  1.75E-05,  avg # of iterations = 17.0

     negative rho (up, down):  4.170E-07 0.000E+00

     total cpu time spent up to now is       12.2 secs

     total energy              =     -32.97979371 Ry
     Harris-Foulkes estimate   =     -33.56407389 Ry
     estimated scf accuracy    <      11.39636955 Ry

     iteration # 58     ecut=    30.00 Ry     beta=0.70
     Davidson diagonalization with overlap
     ethr =  1.75E-05,  avg # of iterations = 12.0

     total cpu time spent up to now is       12.3 secs

     total energy              =     -31.73406273 Ry
     Harris-Foulkes estimate   =     -33.08191466 Ry
     estimated scf accuracy    <       3.37401760 Ry

     iteration # 59     ecut=    30.00 Ry     beta=0.70
     Davidson diagonalization with overlap
     ethr =  1.75E-05,  avg # of iterations = 14.0

     total cpu time spent up to now is       12.4 secs

     total energy              =     -31.96730550 Ry
     Harris-Foulkes estimate   =     -31.95311005 Ry
     estimated scf accuracy    <       0.94828479 Ry

     iteration # 60     ecut=    30.00 Ry     beta=0.70
     Davidson diagonalization with overlap
     ethr =  1.75E-05,  avg # of iterations =  1.0

     total cpu time spent up to now is       12.5 secs

     total energy              =     -31.88598573 Ry
     Harris-Foulkes estimate   =     -31.96732726 Ry
     estimated scf accuracy    <       0.96772073 Ry

     iteration # 61     ecut=    30.00 Ry     beta=0.70
     Davidson diagonalization with overlap
     ethr =  1.75E-05,  avg # of iterations =  4.0

     total cpu time spent up to now is       12.5 secs

     total energy              =     -31.89729786 Ry
     Harris-Foulkes estimate   =     -31.90447992 Ry
     estimated scf accuracy    <       0.02190923 Ry

     iteration # 62     ecut=    30.00 Ry     beta=0.70
     Davidson diagonalization with overlap
     ethr =  1.75E-05,  avg # of iterations =  4.0

     total cpu time spent up to now is       12.6 secs

     total energy              =     -31.85700439 Ry
     Harris-Foulkes estimate   =     -31.94606630 Ry
     estimated scf accuracy    <       0.93314721 Ry

     iteration # 63     ecut=    30.00 Ry     beta=0.70
     Davidson diagonalization with overlap
     ethr =  1.75E-05,  avg # of iterations =  4.0

     total cpu time spent up to now is       12.7 secs

     total energy              =     -31.88002132 Ry
     Harris-Foulkes estimate   =     -31.92958588 Ry
     estimated scf accuracy    <       1.52309427 Ry

     iteration # 64     ecut=    30.00 Ry     beta=0.70
     Davidson diagonalization with overlap
     ethr =  1.75E-05,  avg # of iterations =  3.0

     total cpu time spent up to now is       12.7 secs

     total energy              =     -31.88286115 Ry
     Harris-Foulkes estimate   =     -31.90516802 Ry
     estimated scf accuracy    <       0.03027967 Ry

     iteration # 65     ecut=    30.00 Ry     beta=0.70
     Davidson diagonalization with overlap
     ethr =  1.75E-05,  avg # of iterations =  6.0

     negative rho (up, down):  1.661E-05 0.000E+00

     total cpu time spent up to now is       12.8 secs

     total energy              =     -31.90398151 Ry
     Harris-Foulkes estimate   =     -32.15621243 Ry
     estimated scf accuracy    <       1.62342626 Ry

     iteration # 66     ecut=    30.00 Ry     beta=0.70
     Davidson diagonalization with overlap
     ethr =  1.75E-05,  avg # of iterations =  5.0

     negative rho (up, down):  2.733E-03 0.000E+00

     total cpu time spent up to now is       12.9 secs

     total energy              =     -31.81371139 Ry
     Harris-Foulkes estimate   =     -31.90865696 Ry
     estimated scf accuracy    <       0.30969260 Ry

     iteration # 67     ecut=    30.00 Ry     beta=0.70
     Davidson diagonalization with overlap
     ethr =  1.75E-05,  avg # of iterations =  6.0

     negative rho (up, down):  3.203E-05 0.000E+00

     total cpu time spent up to now is       12.9 secs

     total energy              =     -32.14922595 Ry
     Harris-Foulkes estimate   =     -32.06518340 Ry
     estimated scf accuracy    <       1.11108545 Ry

     iteration # 68     ecut=    30.00 Ry     beta=0.70
     Davidson diagonalization with overlap
     ethr =  1.75E-05,  avg # of iterations =  5.0

     negative rho (up, down):  7.296E-06 0.000E+00

     total cpu time spent up to now is       13.0 secs

     total energy              =     -32.18846757 Ry
     Harris-Foulkes estimate   =     -32.14946061 Ry
     estimated scf accuracy    <       1.23057142 Ry

     iteration # 69     ecut=    30.00 Ry     beta=0.70
     Davidson diagonalization with overlap
     ethr =  1.75E-05,  avg # of iterations =  1.0

     negative rho (up, down):  3.390E-06 0.000E+00

     total cpu time spent up to now is       13.1 secs

     total energy              =     -32.22332837 Ry
     Harris-Foulkes estimate   =     -32.18851328 Ry
     estimated scf accuracy    <       1.28582305 Ry

     iteration # 70     ecut=    30.00 Ry     beta=0.70
     Davidson diagonalization with overlap
     ethr =  1.75E-05,  avg # of iterations =  3.0

     negative rho (up, down):  1.719E-06 0.000E+00

     total cpu time spent up to now is       13.1 secs

     total energy              =     -32.23610442 Ry
     Harris-Foulkes estimate   =     -32.22336806 Ry
     estimated scf accuracy    <       1.33589004 Ry

     iteration # 71     ecut=    30.00 Ry     beta=0.70
     Davidson diagonalization with overlap
     ethr =  1.75E-05,  avg # of iterations =  1.0

     negative rho (up, down):  5.845E-06 0.000E+00

     total cpu time spent up to now is       13.2 secs

     total energy              =     -32.22043755 Ry
     Harris-Foulkes estimate   =     -32.23610934 Ry
     estimated scf accuracy    <       1.35386958 Ry

     iteration # 72     ecut=    30.00 Ry     beta=0.70
     Davidson diagonalization with overlap
     ethr =  1.75E-05,  avg # of iterations =  1.0

     negative rho (up, down):  1.218E-07 0.000E+00

     total cpu time spent up to now is       13.2 secs

     total energy              =     -32.13414024 Ry
     Harris-Foulkes estimate   =     -32.22044381 Ry
     estimated scf accuracy    <       1.33243867 Ry

     iteration # 73     ecut=    30.00 Ry     beta=0.70
     Davidson diagonalization with overlap
     ethr =  1.75E-05,  avg # of iterations =  4.0

     negative rho (up, down):  9.581E-07 0.000E+00

     total cpu time spent up to now is       13.3 secs

     total energy              =     -32.03031169 Ry
     Harris-Foulkes estimate   =     -32.13436936 Ry
     estimated scf accuracy    <       1.20954470 Ry

     iteration # 74     ecut=    30.00 Ry     beta=0.70
     Davidson diagonalization with overlap
     ethr =  1.75E-05,  avg # of iterations =  4.0

     total cpu time spent up to now is       13.3 secs

     total energy              =     -32.19331317 Ry
     Harris-Foulkes estimate   =     -32.03064825 Ry
     estimated scf accuracy    <       1.06244755 Ry

     iteration # 75     ecut=    30.00 Ry     beta=0.70
     Davidson diagonalization with overlap
     ethr =  1.75E-05,  avg # of iterations =  5.0

     negative rho (up, down):  2.385E-02 0.000E+00

     total cpu time spent up to now is       13.4 secs

     total energy              =     -31.24251104 Ry
     Harris-Foulkes estimate   =     -32.19420758 Ry
     estimated scf accuracy    <       1.29667867 Ry

     iteration # 76     ecut=    30.00 Ry     beta=0.70
     Davidson diagonalization with overlap
     ethr =  1.75E-05,  avg # of iterations = 13.0

     negative rho (up, down):  1.380E-07 0.000E+00

     total cpu time spent up to now is       13.5 secs

     total energy              =     -33.09652200 Ry
     Harris-Foulkes estimate   =     -33.69643333 Ry
     estimated scf accuracy    <      11.74608984 Ry

     iteration # 77     ecut=    30.00 Ry     beta=0.70
     Davidson diagonalization with overlap
     ethr =  1.75E-05,  avg # of iterations =  6.0

     total cpu time spent up to now is       13.6 secs

     total energy              =     -32.83314286 Ry
     Harris-Foulkes estimate   =     -33.14071118 Ry
     estimated scf accuracy    <       5.43356295 Ry

     iteration # 78     ecut=    30.00 Ry     beta=0.70
     Davidson diagonalization with overlap
     ethr =  1.75E-05,  avg # of iterations = 12.0

     negative rho (up, down):  2.350E-01 0.000E+00

     total cpu time spent up to now is       13.7 secs

     total energy              =     -30.81533347 Ry
     Harris-Foulkes estimate   =     -32.91767474 Ry
     estimated scf accuracy    <       2.96396413 Ry

     iteration # 79     ecut=    30.00 Ry     beta=0.70
     Davidson diagonalization with overlap
     ethr =  1.75E-05,  avg # of iterations = 12.0

     total cpu time spent up to now is       13.8 secs

     total energy              =     -31.37753654 Ry
     Harris-Foulkes estimate   =     -37.34593507 Ry
     estimated scf accuracy    <       7.90294301 Ry

     iteration # 80     ecut=    30.00 Ry     beta=0.70
     Davidson diagonalization with overlap
     ethr =  1.75E-05,  avg # of iterations = 18.0

     total cpu time spent up to now is       13.9 secs

     total energy              =     -31.81013400 Ry
     Harris-Foulkes estimate   =     -32.29126613 Ry
     estimated scf accuracy    <       1.83538233 Ry

     iteration # 81     ecut=    30.00 Ry     beta=0.70
     Davidson diagonalization with overlap
     ethr =  1.75E-05,  avg # of iterations =  8.0

     total cpu time spent up to now is       14.0 secs

     total energy              =     -31.92045748 Ry
     Harris-Foulkes estimate   =     -31.95113499 Ry
     estimated scf accuracy    <       0.94333038 Ry

     iteration # 82     ecut=    30.00 Ry     beta=0.70
     Davidson diagonalization with overlap
     ethr =  1.75E-05,  avg # of iterations =  1.0

     total cpu time spent up to now is       14.0 secs

     total energy              =     -31.74713193 Ry
     Harris-Foulkes estimate   =     -31.92119273 Ry
     estimated scf accuracy    <       0.72812183 Ry

     iteration # 83     ecut=    30.00 Ry     beta=0.70
     Davidson diagonalization with overlap
     ethr =  1.75E-05,  avg # of iterations =  6.0

     negative rho (up, down):  3.477E-08 0.000E+00

     total cpu time spent up to now is       14.1 secs

     total energy              =     -31.74291711 Ry
     Harris-Foulkes estimate   =     -32.11622560 Ry
     estimated scf accuracy    <       1.54842423 Ry

     iteration # 84     ecut=    30.00 Ry     beta=0.70
     Davidson diagonalization with overlap
     ethr =  1.75E-05,  avg # of iterations =  9.0

     total cpu time spent up to now is       14.2 secs

     total energy              =     -31.85431508 Ry
     Harris-Foulkes estimate   =     -32.02239527 Ry
     estimated scf accuracy    <       1.04470837 Ry

     iteration # 85     ecut=    30.00 Ry     beta=0.70
     Davidson diagonalization with overlap
     ethr =  1.75E-05,  avg # of iterations =  5.0

     total cpu time spent up to now is       14.2 secs

     total energy              =     -31.69786203 Ry
     Harris-Foulkes estimate   =     -31.93202325 Ry
     estimated scf accuracy    <       1.57901335 Ry

     iteration # 86     ecut=    30.00 Ry     beta=0.70
     Davidson diagonalization with overlap
     ethr =  1.75E-05,  avg # of iterations =  6.0

     total cpu time spent up to now is       14.3 secs

     total energy              =     -32.00276885 Ry
     Harris-Foulkes estimate   =     -32.04527540 Ry
     estimated scf accuracy    <       1.08090145 Ry

     iteration # 87     ecut=    30.00 Ry     beta=0.70
     Davidson diagonalization with overlap
     ethr =  1.75E-05,  avg # of iterations =  2.0

     negative rho (up, down):  4.524E-08 0.000E+00

     total cpu time spent up to now is       14.4 secs

     total energy              =     -31.95630192 Ry
     Harris-Foulkes estimate   =     -32.00287520 Ry
     estimated scf accuracy    <       1.01671131 Ry

     iteration # 88     ecut=    30.00 Ry     beta=0.70
     Davidson diagonalization with overlap
     ethr =  1.75E-05,  avg # of iterations =  3.0

     total cpu time spent up to now is       14.4 secs

     total energy              =     -31.96384810 Ry
     Harris-Foulkes estimate   =     -31.95639597 Ry
     estimated scf accuracy    <       0.94907325 Ry

     iteration # 89     ecut=    30.00 Ry     beta=0.70
     Davidson diagonalization with overlap
     ethr =  1.75E-05,  avg # of iterations =  1.0

     total cpu time spent up to now is       14.5 secs

     total energy              =     -31.95707581 Ry
     Harris-Foulkes estimate   =     -31.96385357 Ry
     estimated scf accuracy    <       0.96005035 Ry

     iteration # 90     ecut=    30.00 Ry     beta=0.70
     Davidson diagonalization with overlap
     ethr =  1.75E-05,  avg # of iterations =  1.0

     negative rho (up, down):  5.995E-08 0.000E+00

     total cpu time spent up to now is       14.5 secs

     total energy              =     -31.95905497 Ry
     Harris-Foulkes estimate   =     -31.95707778 Ry
     estimated scf accuracy    <       0.95049179 Ry

     iteration # 91     ecut=    30.00 Ry     beta=0.70
     Davidson diagonalization with overlap
     ethr =  1.75E-05,  avg # of iterations =  1.0

     negative rho (up, down):  8.131E-08 0.000E+00

     total cpu time spent up to now is       14.5 secs

     total energy              =     -31.93036979 Ry
     Harris-Foulkes estimate   =     -31.95905547 Ry
     estimated scf accuracy    <       0.95337684 Ry

     iteration # 92     ecut=    30.00 Ry     beta=0.70
     Davidson diagonalization with overlap
     ethr =  1.75E-05,  avg # of iterations =  1.0

     negative rho (up, down):  3.395E-06 0.000E+00

     total cpu time spent up to now is       14.6 secs

     total energy              =     -31.94074433 Ry
     Harris-Foulkes estimate   =     -31.93054238 Ry
     estimated scf accuracy    <       0.86640597 Ry

     iteration # 93     ecut=    30.00 Ry     beta=0.70
     Davidson diagonalization with overlap
     ethr =  1.75E-05,  avg # of iterations =  1.0

     negative rho (up, down):  1.526E-07 0.000E+00

     total cpu time spent up to now is       14.6 secs

     total energy              =     -31.82884136 Ry
     Harris-Foulkes estimate   =     -31.94088956 Ry
     estimated scf accuracy    <       0.91819469 Ry

     iteration # 94     ecut=    30.00 Ry     beta=0.70
     Davidson diagonalization with overlap
     ethr =  1.75E-05,  avg # of iterations =  5.0

     negative rho (up, down):  3.612E-08 0.000E+00

     total cpu time spent up to now is       14.7 secs

     total energy              =     -31.88263888 Ry
     Harris-Foulkes estimate   =     -31.96931863 Ry
     estimated scf accuracy    <       1.35741264 Ry

     iteration # 95     ecut=    30.00 Ry     beta=0.70
     Davidson diagonalization with overlap
     ethr =  1.75E-05,  avg # of iterations =  4.0

     total cpu time spent up to now is       14.8 secs

     total energy              =     -31.90451147 Ry
     Harris-Foulkes estimate   =     -31.90603995 Ry
     estimated scf accuracy    <       0.08197211 Ry

     iteration # 96     ecut=    30.00 Ry     beta=0.70
     Davidson diagonalization with overlap
     ethr =  1.75E-05,  avg # of iterations =  1.0

     total cpu time spent up to now is       14.8 secs

     total energy              =     -31.90639932 Ry
     Harris-Foulkes estimate   =     -31.90500293 Ry
     estimated scf accuracy    <       0.00913388 Ry

     iteration # 97     ecut=    30.00 Ry     beta=0.70
     Davidson diagonalization with overlap
     ethr =  1.75E-05,  avg # of iterations =  1.0

     total cpu time spent up to now is       14.9 secs

     total energy              =     -31.88630010 Ry
     Harris-Foulkes estimate   =     -31.90971541 Ry
     estimated scf accuracy    <       0.30390616 Ry

     iteration # 98     ecut=    30.00 Ry     beta=0.70
     Davidson diagonalization with overlap
     ethr =  1.75E-05,  avg # of iterations =  2.0

     total cpu time spent up to now is       14.9 secs

     total energy              =     -31.90617130 Ry
     Harris-Foulkes estimate   =     -31.91941296 Ry
     estimated scf accuracy    <       1.06154595 Ry

     iteration # 99     ecut=    30.00 Ry     beta=0.70
     Davidson diagonalization with overlap
     ethr =  1.75E-05,  avg # of iterations =  1.0

     total cpu time spent up to now is       15.0 secs

     total energy              =     -31.89782563 Ry
     Harris-Foulkes estimate   =     -31.90892277 Ry
     estimated scf accuracy    <       0.32854518 Ry

     iteration #100     ecut=    30.00 Ry     beta=0.70
     Davidson diagonalization with overlap
     ethr =  1.75E-05,  avg # of iterations =  1.0

     total cpu time spent up to now is       15.0 secs

     total energy              =     -31.90531637 Ry
     Harris-Foulkes estimate   =     -31.90543300 Ry
     estimated scf accuracy    <       0.04103071 Ry

     End of self-consistent calculation

     convergence NOT achieved after 100 iterations: stopping

     Writing output data file pwscf.save
 
     init_run     :      0.17s CPU      0.19s WALL (       1 calls)
     electrons    :     10.95s CPU     13.16s WALL (       5 calls)
     update_pot   :      0.82s CPU      1.06s WALL (       4 calls)
     forces       :      0.17s CPU      0.17s WALL (       4 calls)

     Called by init_run:
     wfcinit      :      0.01s CPU      0.02s WALL (       1 calls)
     potinit      :      0.05s CPU      0.05s WALL (       1 calls)

     Called by electrons:
     c_bands      :      5.47s CPU      5.73s WALL (     218 calls)
     sum_band     :      1.10s CPU      1.18s WALL (     218 calls)
     v_of_rho     :      2.36s CPU      2.45s WALL (     223 calls)
     mix_rho      :      1.65s CPU      3.03s WALL (     218 calls)

     Called by c_bands:
     init_us_2    :      0.03s CPU      0.04s WALL (     437 calls)
     cegterg      :      5.41s CPU      5.61s WALL (     218 calls)

     Called by sum_band:

     Called by *egterg:
     h_psi        :      4.60s CPU      4.73s WALL (     948 calls)
     g_psi        :      0.05s CPU      0.05s WALL (     729 calls)
     cdiaghg      :      0.31s CPU      0.32s WALL (     943 calls)

     Called by h_psi:
     h_psi:pot    :      4.57s CPU      4.70s WALL (     948 calls)
     h_psi:calbec :      0.06s CPU      0.06s WALL (     948 calls)
     vloc_psi     :      4.49s CPU      4.62s WALL (     948 calls)
     add_vuspsi   :      0.01s CPU      0.01s WALL (     948 calls)

     General routines
     calbec       :      0.07s CPU      0.08s WALL (     967 calls)
     fft          :      1.56s CPU      1.62s WALL (    2461 calls)
     fftw         :      4.78s CPU      4.97s WALL (   12026 calls)
     davcio       :      0.27s CPU      1.24s WALL (    3928 calls)
 
     Parallel routines
     fft_scatter  :      2.05s CPU      2.21s WALL (   14487 calls)
 
     PWSCF        :    12.42s CPU        15.15s WALL

 
   This run was terminated on:  17:10:51  13Feb2018            

=------------------------------------------------------------------------------=
   JOB DONE.
=------------------------------------------------------------------------------=
