
     Program PWSCF v.6.0 (svn rev. 13079) starts on 13Feb2018 at 13:22:55 

     This program is part of the open-source Quantum ESPRESSO suite
     for quantum simulation of materials; please cite
         "P. Giannozzi et al., J. Phys.:Condens. Matter 21 395502 (2009);
          URL http://www.quantum-espresso.org", 
     in publications or presentations arising from this work. More details at
     http://www.quantum-espresso.org/quote

     Parallel version (MPI), running on    28 processors
     R & G space division:  proc/nbgrp/npool/nimage =      28
     Reading input from inputs/MD-H2O-round1/78.in

     Current dimensions of program PWSCF are:
     Max number of different atomic species (ntypx) = 10
     Max number of k-points (npk) =  40000
     Max angular momentum in pseudopotentials (lmaxx) =  3

     Subspace diagonalization in iterative solution of the eigenvalue problem:
     a serial algorithm will be used

 
     Parallelization info
     --------------------
     sticks:   dense  smooth     PW     G-vecs:    dense   smooth      PW
     Min         136     136     33                 6338     6338     787
     Max         137     137     34                 6341     6341     792
     Sum        3809    3809    949               177509   177509   22119
 


     bravais-lattice index     =            1
     lattice parameter (alat)  =      20.0000  a.u.
     unit-cell volume          =    8000.0000 (a.u.)^3
     number of atoms/cell      =            3
     number of atomic types    =            2
     number of electrons       =         8.00
     number of Kohn-Sham states=            8
     kinetic-energy cutoff     =      30.0000  Ry
     charge density cutoff     =     120.0000  Ry
     convergence threshold     =      1.0E-08
     mixing beta               =       0.7000
     number of iterations used =            8  plain     mixing
     Exchange-correlation      = BLYP ( 1  3  1  3 0 0)
     nstep                     =         5000


     celldm(1)=  20.000000  celldm(2)=   0.000000  celldm(3)=   0.000000
     celldm(4)=   0.000000  celldm(5)=   0.000000  celldm(6)=   0.000000

     crystal axes: (cart. coord. in units of alat)
               a(1) = (   1.000000   0.000000   0.000000 )  
               a(2) = (   0.000000   1.000000   0.000000 )  
               a(3) = (   0.000000   0.000000   1.000000 )  

     reciprocal axes: (cart. coord. in units 2 pi/alat)
               b(1) = (  1.000000  0.000000  0.000000 )  
               b(2) = (  0.000000  1.000000  0.000000 )  
               b(3) = (  0.000000  0.000000  1.000000 )  


     PseudoPot. # 1 for  H read from file:
     ./H.blyp-hgh.UPF
     MD5 check sum: c576e69559cde411e611be972c763230
     Pseudo is Norm-conserving, Zval =  1.0
     Generated in analytical, separable form
     Using radial grid of  929 points,  0 beta functions with: 

     PseudoPot. # 2 for  O read from file:
     ./O.blyp-hgh.UPF
     MD5 check sum: d0b7156309aa9befef28faac7bc56342
     Pseudo is Norm-conserving, Zval =  6.0
     Generated in analytical, separable form
     Using radial grid of 1095 points,  1 beta functions with: 
                l(1) =   0

     atomic species   valence    mass     pseudopotential
        H              1.00     1.01000      H( 1.00)
        O              6.00    16.00000      O( 1.00)

     No symmetry found



   Cartesian axes

     site n.     atom                  positions (alat units)
         1           O   tau(   1) = (   0.4722740   0.2762592   0.7875351  )
         2           H   tau(   2) = (   0.4727165   0.7999053   0.5389528  )
         3           H   tau(   3) = (   0.4268479   0.8187476   0.5375032  )

     number of k points=     1  Marzari-Vanderbilt smearing, width (Ry)=  0.0250
                       cart. coord. in units 2pi/alat
        k(    1) = (   0.0000000   0.0000000   0.0000000), wk =   2.0000000

     Dense  grid:   177509 G-vectors     FFT dimensions: (  72,  72,  72)

     Estimated max dynamical RAM per process >       6.09Mb

     Estimated total allocated dynamical RAM >     170.64Mb

     Initial potential from superposition of free atoms
     Check: negative starting charge=   -0.362862

     starting charge    7.99998, renormalised to    8.00000

     negative rho (up, down):  3.629E-01 0.000E+00
     Starting wfc are    6 randomized atomic wfcs +    2 random wfc

     total cpu time spent up to now is        0.3 secs

     per-process dynamical memory:    18.8 Mb

     Self-consistent Calculation

     iteration #  1     ecut=    30.00 Ry     beta=0.70
     Davidson diagonalization with overlap
     ethr =  1.00E-02,  avg # of iterations =  5.0

     negative rho (up, down):  9.498E-02 0.000E+00

     total cpu time spent up to now is        0.4 secs

     total energy              =     -31.51043704 Ry
     Harris-Foulkes estimate   =     -32.31286255 Ry
     estimated scf accuracy    <       0.85057359 Ry

     iteration #  2     ecut=    30.00 Ry     beta=0.70
     Davidson diagonalization with overlap
     ethr =  1.00E-02,  avg # of iterations =  2.0

     negative rho (up, down):  4.192E-02 0.000E+00

     total cpu time spent up to now is        0.5 secs

     total energy              =     -31.75590003 Ry
     Harris-Foulkes estimate   =     -31.78962889 Ry
     estimated scf accuracy    <       0.12358648 Ry

     iteration #  3     ecut=    30.00 Ry     beta=0.70
     Davidson diagonalization with overlap
     ethr =  1.54E-03,  avg # of iterations =  3.0

     negative rho (up, down):  1.934E-02 0.000E+00

     total cpu time spent up to now is        0.5 secs

     total energy              =     -31.79509216 Ry
     Harris-Foulkes estimate   =     -31.77849934 Ry
     estimated scf accuracy    <       0.02094203 Ry

     iteration #  4     ecut=    30.00 Ry     beta=0.70
     Davidson diagonalization with overlap
     ethr =  2.62E-04,  avg # of iterations =  4.0

     negative rho (up, down):  5.046E-03 0.000E+00

     total cpu time spent up to now is        0.6 secs

     total energy              =     -31.81097827 Ry
     Harris-Foulkes estimate   =     -31.80007525 Ry
     estimated scf accuracy    <       0.01877051 Ry

     iteration #  5     ecut=    30.00 Ry     beta=0.70
     Davidson diagonalization with overlap
     ethr =  2.35E-04,  avg # of iterations =  1.0

     negative rho (up, down):  6.377E-05 0.000E+00

     total cpu time spent up to now is        0.6 secs

     total energy              =     -31.81587765 Ry
     Harris-Foulkes estimate   =     -31.81229180 Ry
     estimated scf accuracy    <       0.00007872 Ry

     iteration #  6     ecut=    30.00 Ry     beta=0.70
     Davidson diagonalization with overlap
     ethr =  9.84E-07,  avg # of iterations = 17.0

     negative rho (up, down):  2.523E-05 0.000E+00

     total cpu time spent up to now is        0.7 secs

     total energy              =     -31.81589665 Ry
     Harris-Foulkes estimate   =     -31.81589725 Ry
     estimated scf accuracy    <       0.00002425 Ry

     iteration #  7     ecut=    30.00 Ry     beta=0.70
     Davidson diagonalization with overlap
     ethr =  3.03E-07,  avg # of iterations =  1.0

     total cpu time spent up to now is        0.8 secs

     total energy              =     -31.81590591 Ry
     Harris-Foulkes estimate   =     -31.81589830 Ry
     estimated scf accuracy    <       0.00000029 Ry

     iteration #  8     ecut=    30.00 Ry     beta=0.70
     Davidson diagonalization with overlap
     ethr =  3.67E-09,  avg # of iterations =  2.0

     total cpu time spent up to now is        0.8 secs

     total energy              =     -31.81590622 Ry
     Harris-Foulkes estimate   =     -31.81590604 Ry
     estimated scf accuracy    <       0.00000003 Ry

     iteration #  9     ecut=    30.00 Ry     beta=0.70
     Davidson diagonalization with overlap
     ethr =  3.43E-10,  avg # of iterations =  2.0

     total cpu time spent up to now is        0.8 secs

     End of self-consistent calculation

          k = 0.0000 0.0000 0.0000 ( 22119 PWs)   bands (ev):

   -25.1033 -11.3696  -8.4064  -8.4057  -8.4055  -0.3628   0.7504   0.8346

     the Fermi energy is    -8.2828 ev

!    total energy              =     -31.81590627 Ry
     Harris-Foulkes estimate   =     -31.81590623 Ry
     estimated scf accuracy    <          6.5E-09 Ry

     convergence has been achieved in   9 iterations

     Forces acting on atoms (Ry/au):

     atom    1 type  2   force =     0.00006022   -0.00070506   -0.00146248
     atom    2 type  1   force =     0.64713555   -0.26544267    0.02116873
     atom    3 type  1   force =    -0.64719577    0.26614773   -0.01970625

     Total force =     0.989839     Total SCF correction =     0.000078

     Molecular Dynamics Calculation

     Starting temperature  =  1000.00 K

     temperature is controlled by Andersen thermostat
     Collision frequency = 1.0000/timestep
     mass H                =     1.01
     mass O                =    16.00
     Time step             =   100.00 a.u.,  4.8378 femto-seconds

     Entering Dynamics:    iteration =     1
                           time      =   0.0048 pico-seconds


     Andersen thermostat:    3 collisions

ATOMIC_POSITIONS (bohr)
O        9.426373672   5.502269123  15.804032956
H       13.465820690  14.736919102  10.353009430
H        4.828158654  17.999131001  10.331262747


     kinetic energy (Ekin) =     0.03674487 Ry
     temperature           =  1933.84981795 K 
     Ekin + Etot (const)   =   -31.77916140 Ry

     Linear momentum :    0.0000000000    0.0000000000   -0.0000000000

     Writing output data file pwscf.save
     Check: negative starting charge=   -0.362862
     NEW-OLD atomic charge density approx. for the potential
     Check: negative starting charge=   -0.349577

     negative rho (up, down):  3.771E-01 0.000E+00

     total cpu time spent up to now is        1.3 secs

     per-process dynamical memory:    20.4 Mb

     Self-consistent Calculation

     iteration #  1     ecut=    30.00 Ry     beta=0.70
     Davidson diagonalization with overlap
     c_bands:  1 eigenvalues not converged
     ethr =  1.00E-06,  avg # of iterations = 20.0

     negative rho (up, down):  1.086E-01 0.000E+00

     total cpu time spent up to now is        1.5 secs

     total energy              =     -29.19361612 Ry
     Harris-Foulkes estimate   =     -31.75127283 Ry
     estimated scf accuracy    <       3.24884201 Ry

     iteration #  2     ecut=    30.00 Ry     beta=0.70
     Davidson diagonalization with overlap
     ethr =  1.00E-02,  avg # of iterations =  4.0

     negative rho (up, down):  4.469E-02 0.000E+00

     total cpu time spent up to now is        1.5 secs

     total energy              =     -31.69877961 Ry
     Harris-Foulkes estimate   =     -38.49897273 Ry
     estimated scf accuracy    <      21.42387540 Ry

     iteration #  3     ecut=    30.00 Ry     beta=0.70
     Davidson diagonalization with overlap
     ethr =  1.00E-02,  avg # of iterations =  2.0

     negative rho (up, down):  2.322E-02 0.000E+00

     total cpu time spent up to now is        1.6 secs

     total energy              =     -29.92204277 Ry
     Harris-Foulkes estimate   =     -31.88975502 Ry
     estimated scf accuracy    <      12.19092605 Ry

     iteration #  4     ecut=    30.00 Ry     beta=0.70
     Davidson diagonalization with overlap
     ethr =  1.00E-02,  avg # of iterations =  1.0

     negative rho (up, down):  4.229E-01 0.000E+00

     total cpu time spent up to now is        1.6 secs

     total energy              =     -23.84499697 Ry
     Harris-Foulkes estimate   =     -29.94620092 Ry
     estimated scf accuracy    <       9.64619169 Ry

     iteration #  5     ecut=    30.00 Ry     beta=0.70
     Davidson diagonalization with overlap
     ethr =  1.00E-02,  avg # of iterations =  7.0

     negative rho (up, down):  3.097E-01 0.000E+00

     total cpu time spent up to now is        1.7 secs

     total energy              =     -38.33101019 Ry
     Harris-Foulkes estimate   =     -38.95570165 Ry
     estimated scf accuracy    <      14.56052951 Ry

     iteration #  6     ecut=    30.00 Ry     beta=0.70
     Davidson diagonalization with overlap
     ethr =  1.00E-02,  avg # of iterations =  2.0

     negative rho (up, down):  4.119E-03 0.000E+00

     total cpu time spent up to now is        1.8 secs

     total energy              =     -34.29715005 Ry
     Harris-Foulkes estimate   =     -38.33738806 Ry
     estimated scf accuracy    <      13.49953966 Ry

     iteration #  7     ecut=    30.00 Ry     beta=0.70
     Davidson diagonalization with overlap
     ethr =  1.00E-02,  avg # of iterations =  2.0

     total cpu time spent up to now is        1.8 secs

     total energy              =     -33.49197102 Ry
     Harris-Foulkes estimate   =     -34.45443321 Ry
     estimated scf accuracy    <       7.45301834 Ry

     iteration #  8     ecut=    30.00 Ry     beta=0.70
     Davidson diagonalization with overlap
     ethr =  1.00E-02,  avg # of iterations =  1.0

     total cpu time spent up to now is        1.9 secs

     total energy              =     -32.02602705 Ry
     Harris-Foulkes estimate   =     -33.51471985 Ry
     estimated scf accuracy    <       6.03803152 Ry

     iteration #  9     ecut=    30.00 Ry     beta=0.70
     Davidson diagonalization with overlap
     ethr =  1.00E-02,  avg # of iterations =  4.0

     total cpu time spent up to now is        1.9 secs

     total energy              =     -32.28230742 Ry
     Harris-Foulkes estimate   =     -32.05749585 Ry
     estimated scf accuracy    <       3.72981039 Ry

     iteration # 10     ecut=    30.00 Ry     beta=0.70
     Davidson diagonalization with overlap
     ethr =  1.00E-02,  avg # of iterations =  1.0

     negative rho (up, down):  3.379E-03 0.000E+00

     total cpu time spent up to now is        2.0 secs

     total energy              =     -31.21355960 Ry
     Harris-Foulkes estimate   =     -32.28547001 Ry
     estimated scf accuracy    <       4.12807478 Ry

     iteration # 11     ecut=    30.00 Ry     beta=0.70
     Davidson diagonalization with overlap
     ethr =  1.00E-02,  avg # of iterations =  1.0

     negative rho (up, down):  4.984E-05 0.000E+00

     total cpu time spent up to now is        2.0 secs

     total energy              =     -33.63934679 Ry
     Harris-Foulkes estimate   =     -31.87678786 Ry
     estimated scf accuracy    <       4.27060104 Ry

     iteration # 12     ecut=    30.00 Ry     beta=0.70
     Davidson diagonalization with overlap
     ethr =  1.00E-02,  avg # of iterations =  3.0

     total cpu time spent up to now is        2.1 secs

     total energy              =     -32.60939874 Ry
     Harris-Foulkes estimate   =     -33.72770466 Ry
     estimated scf accuracy    <      12.80327616 Ry

     iteration # 13     ecut=    30.00 Ry     beta=0.70
     Davidson diagonalization with overlap
     ethr =  1.00E-02,  avg # of iterations =  1.0

     negative rho (up, down):  1.651E-04 0.000E+00

     total cpu time spent up to now is        2.1 secs

     total energy              =     -35.93682962 Ry
     Harris-Foulkes estimate   =     -32.87527599 Ry
     estimated scf accuracy    <       5.87092073 Ry

     iteration # 14     ecut=    30.00 Ry     beta=0.70
     Davidson diagonalization with overlap
     ethr =  1.00E-02,  avg # of iterations =  5.0

     negative rho (up, down):  1.257E-04 0.000E+00

     total cpu time spent up to now is        2.2 secs

     total energy              =     -37.21429130 Ry
     Harris-Foulkes estimate   =     -37.23059518 Ry
     estimated scf accuracy    <      20.61076200 Ry

     iteration # 15     ecut=    30.00 Ry     beta=0.70
     Davidson diagonalization with overlap
     ethr =  1.00E-02,  avg # of iterations =  1.0

     negative rho (up, down):  3.913E-05 0.000E+00

     total cpu time spent up to now is        2.3 secs

     total energy              =     -33.80129793 Ry
     Harris-Foulkes estimate   =     -37.21692782 Ry
     estimated scf accuracy    <      20.63705476 Ry

     iteration # 16     ecut=    30.00 Ry     beta=0.70
     Davidson diagonalization with overlap
     ethr =  1.00E-02,  avg # of iterations =  1.0

     negative rho (up, down):  3.629E-05 0.000E+00

     total cpu time spent up to now is        2.3 secs

     total energy              =     -33.42848810 Ry
     Harris-Foulkes estimate   =     -33.85272793 Ry
     estimated scf accuracy    <      15.61593751 Ry

     iteration # 17     ecut=    30.00 Ry     beta=0.70
     Davidson diagonalization with overlap
     ethr =  1.00E-02,  avg # of iterations =  1.0

     negative rho (up, down):  3.416E-03 0.000E+00

     total cpu time spent up to now is        2.4 secs

     total energy              =     -31.47096542 Ry
     Harris-Foulkes estimate   =     -33.43304901 Ry
     estimated scf accuracy    <      14.98529353 Ry

     iteration # 18     ecut=    30.00 Ry     beta=0.70
     Davidson diagonalization with overlap
     ethr =  1.00E-02,  avg # of iterations =  1.0

     negative rho (up, down):  2.060E-03 0.000E+00

     total cpu time spent up to now is        2.5 secs

     total energy              =     -30.96034565 Ry
     Harris-Foulkes estimate   =     -31.50330461 Ry
     estimated scf accuracy    <      12.18349889 Ry

     iteration # 19     ecut=    30.00 Ry     beta=0.70
     Davidson diagonalization with overlap
     ethr =  1.00E-02,  avg # of iterations =  1.0

     negative rho (up, down):  9.221E-01 0.000E+00

     total cpu time spent up to now is        2.5 secs

     total energy              =     -22.22393861 Ry
     Harris-Foulkes estimate   =     -30.96988748 Ry
     estimated scf accuracy    <      11.33556366 Ry

     iteration # 20     ecut=    30.00 Ry     beta=0.70
     Davidson diagonalization with overlap
     ethr =  1.00E-02,  avg # of iterations =  7.0

     negative rho (up, down):  1.162E-01 0.000E+00

     total cpu time spent up to now is        2.6 secs

     total energy              =     -35.24344900 Ry
     Harris-Foulkes estimate   =     -42.83016950 Ry
     estimated scf accuracy    <      18.35814129 Ry

     iteration # 21     ecut=    30.00 Ry     beta=0.70
     Davidson diagonalization with overlap
     ethr =  1.00E-02,  avg # of iterations =  2.0

     negative rho (up, down):  3.769E-02 0.000E+00

     total cpu time spent up to now is        2.7 secs

     total energy              =     -34.02343251 Ry
     Harris-Foulkes estimate   =     -35.64165856 Ry
     estimated scf accuracy    <       9.18797019 Ry

     iteration # 22     ecut=    30.00 Ry     beta=0.70
     Davidson diagonalization with overlap
     ethr =  1.00E-02,  avg # of iterations =  1.0

     negative rho (up, down):  1.339E-02 0.000E+00

     total cpu time spent up to now is        2.7 secs

     total energy              =     -32.89981609 Ry
     Harris-Foulkes estimate   =     -34.03676978 Ry
     estimated scf accuracy    <       6.82636718 Ry

     iteration # 23     ecut=    30.00 Ry     beta=0.70
     Davidson diagonalization with overlap
     ethr =  1.00E-02,  avg # of iterations =  1.0

     negative rho (up, down):  4.132E-03 0.000E+00

     total cpu time spent up to now is        2.8 secs

     total energy              =     -32.25074643 Ry
     Harris-Foulkes estimate   =     -32.92846293 Ry
     estimated scf accuracy    <       5.13367584 Ry

     iteration # 24     ecut=    30.00 Ry     beta=0.70
     Davidson diagonalization with overlap
     ethr =  1.00E-02,  avg # of iterations =  4.0

     negative rho (up, down):  1.337E-04 0.000E+00

     total cpu time spent up to now is        2.8 secs

     total energy              =     -31.72257889 Ry
     Harris-Foulkes estimate   =     -32.24660066 Ry
     estimated scf accuracy    <       4.09093777 Ry

     iteration # 25     ecut=    30.00 Ry     beta=0.70
     Davidson diagonalization with overlap
     ethr =  1.00E-02,  avg # of iterations =  3.0

     negative rho (up, down):  3.255E-04 0.000E+00

     total cpu time spent up to now is        2.9 secs

     total energy              =     -31.52834250 Ry
     Harris-Foulkes estimate   =     -31.73026860 Ry
     estimated scf accuracy    <       3.23887066 Ry

     iteration # 26     ecut=    30.00 Ry     beta=0.70
     Davidson diagonalization with overlap
     ethr =  1.00E-02,  avg # of iterations =  1.0

     negative rho (up, down):  4.826E-04 0.000E+00

     total cpu time spent up to now is        2.9 secs

     total energy              =     -31.80566815 Ry
     Harris-Foulkes estimate   =     -31.53390491 Ry
     estimated scf accuracy    <       1.78327975 Ry

     iteration # 27     ecut=    30.00 Ry     beta=0.70
     Davidson diagonalization with overlap
     ethr =  1.00E-02,  avg # of iterations =  1.0

     total cpu time spent up to now is        3.0 secs

     total energy              =     -30.76966780 Ry
     Harris-Foulkes estimate   =     -31.87840180 Ry
     estimated scf accuracy    <       3.47207082 Ry

     iteration # 28     ecut=    30.00 Ry     beta=0.70
     Davidson diagonalization with overlap
     ethr =  1.00E-02,  avg # of iterations =  1.0

     negative rho (up, down):  2.864E-02 0.000E+00

     total cpu time spent up to now is        3.0 secs

     total energy              =     -36.75963061 Ry
     Harris-Foulkes estimate   =     -32.38065214 Ry
     estimated scf accuracy    <       5.08751334 Ry

     iteration # 29     ecut=    30.00 Ry     beta=0.70
     Davidson diagonalization with overlap
     ethr =  1.00E-02,  avg # of iterations =  8.0

     negative rho (up, down):  6.653E-04 0.000E+00

     total cpu time spent up to now is        3.1 secs

     total energy              =     -36.32627591 Ry
     Harris-Foulkes estimate   =     -38.69777644 Ry
     estimated scf accuracy    <      22.34923624 Ry

     iteration # 30     ecut=    30.00 Ry     beta=0.70
     Davidson diagonalization with overlap
     ethr =  1.00E-02,  avg # of iterations =  1.0

     negative rho (up, down):  8.671E-04 0.000E+00

     total cpu time spent up to now is        3.2 secs

     total energy              =     -36.56687059 Ry
     Harris-Foulkes estimate   =     -36.34079410 Ry
     estimated scf accuracy    <      19.08498064 Ry

     iteration # 31     ecut=    30.00 Ry     beta=0.70
     Davidson diagonalization with overlap
     ethr =  1.00E-02,  avg # of iterations =  1.0

     negative rho (up, down):  1.209E-06 0.000E+00

     total cpu time spent up to now is        3.2 secs

     total energy              =     -34.62044621 Ry
     Harris-Foulkes estimate   =     -36.56824175 Ry
     estimated scf accuracy    <      19.38880676 Ry

     iteration # 32     ecut=    30.00 Ry     beta=0.70
     Davidson diagonalization with overlap
     ethr =  1.00E-02,  avg # of iterations =  1.0

     total cpu time spent up to now is        3.3 secs

     total energy              =     -33.46104848 Ry
     Harris-Foulkes estimate   =     -34.63323228 Ry
     estimated scf accuracy    <      16.72708316 Ry

     iteration # 33     ecut=    30.00 Ry     beta=0.70
     Davidson diagonalization with overlap
     ethr =  1.00E-02,  avg # of iterations =  1.0

     negative rho (up, down):  2.178E-03 0.000E+00

     total cpu time spent up to now is        3.3 secs

     total energy              =     -31.48949995 Ry
     Harris-Foulkes estimate   =     -33.46767116 Ry
     estimated scf accuracy    <      15.16590650 Ry

     iteration # 34     ecut=    30.00 Ry     beta=0.70
     Davidson diagonalization with overlap
     ethr =  1.00E-02,  avg # of iterations =  1.0

     negative rho (up, down):  2.670E-02 0.000E+00

     total cpu time spent up to now is        3.4 secs

     total energy              =     -31.00425952 Ry
     Harris-Foulkes estimate   =     -31.52078942 Ry
     estimated scf accuracy    <      12.47739824 Ry

     iteration # 35     ecut=    30.00 Ry     beta=0.70
     Davidson diagonalization with overlap
     ethr =  1.00E-02,  avg # of iterations =  1.0

     negative rho (up, down):  2.927E-02 0.000E+00

     total cpu time spent up to now is        3.4 secs

     total energy              =     -30.20629107 Ry
     Harris-Foulkes estimate   =     -31.01993882 Ry
     estimated scf accuracy    <      11.64094296 Ry

     iteration # 36     ecut=    30.00 Ry     beta=0.70
     Davidson diagonalization with overlap
     ethr =  1.00E-02,  avg # of iterations =  7.0

     negative rho (up, down):  6.764E-02 0.000E+00

     total cpu time spent up to now is        3.5 secs

     total energy              =     -31.99956369 Ry
     Harris-Foulkes estimate   =     -31.48175801 Ry
     estimated scf accuracy    <       0.33072420 Ry

     iteration # 37     ecut=    30.00 Ry     beta=0.70
     Davidson diagonalization with overlap
     ethr =  4.13E-03,  avg # of iterations =  6.0

     negative rho (up, down):  2.171E-02 0.000E+00

     total cpu time spent up to now is        3.6 secs

     total energy              =     -32.95432000 Ry
     Harris-Foulkes estimate   =     -33.96660752 Ry
     estimated scf accuracy    <       6.79893920 Ry

     iteration # 38     ecut=    30.00 Ry     beta=0.70
     Davidson diagonalization with overlap
     ethr =  4.13E-03,  avg # of iterations =  1.0

     negative rho (up, down):  2.888E-02 0.000E+00

     total cpu time spent up to now is        3.6 secs

     total energy              =     -32.53503490 Ry
     Harris-Foulkes estimate   =     -32.97013378 Ry
     estimated scf accuracy    <       5.20526549 Ry

     iteration # 39     ecut=    30.00 Ry     beta=0.70
     Davidson diagonalization with overlap
     ethr =  4.13E-03,  avg # of iterations =  1.0

     negative rho (up, down):  2.992E-02 0.000E+00

     total cpu time spent up to now is        3.7 secs

     total energy              =     -33.01718222 Ry
     Harris-Foulkes estimate   =     -32.53909765 Ry
     estimated scf accuracy    <       4.51457354 Ry

     iteration # 40     ecut=    30.00 Ry     beta=0.70
     Davidson diagonalization with overlap
     ethr =  4.13E-03,  avg # of iterations =  1.0

     negative rho (up, down):  3.733E-03 0.000E+00

     total cpu time spent up to now is        3.7 secs

     total energy              =     -32.34679518 Ry
     Harris-Foulkes estimate   =     -33.02129429 Ry
     estimated scf accuracy    <       5.24671760 Ry

     iteration # 41     ecut=    30.00 Ry     beta=0.70
     Davidson diagonalization with overlap
     ethr =  4.13E-03,  avg # of iterations =  1.0

     negative rho (up, down):  3.231E-03 0.000E+00

     total cpu time spent up to now is        3.8 secs

     total energy              =     -31.60831020 Ry
     Harris-Foulkes estimate   =     -32.34364633 Ry
     estimated scf accuracy    <       4.24438638 Ry

     iteration # 42     ecut=    30.00 Ry     beta=0.70
     Davidson diagonalization with overlap
     ethr =  4.13E-03,  avg # of iterations =  1.0

     total cpu time spent up to now is        3.8 secs

     total energy              =     -31.26645075 Ry
     Harris-Foulkes estimate   =     -31.62326306 Ry
     estimated scf accuracy    <       3.05126836 Ry

     iteration # 43     ecut=    30.00 Ry     beta=0.70
     Davidson diagonalization with overlap
     ethr =  4.13E-03,  avg # of iterations =  1.0

     total cpu time spent up to now is        3.9 secs

     total energy              =     -31.76800483 Ry
     Harris-Foulkes estimate   =     -31.72131107 Ry
     estimated scf accuracy    <       4.06551374 Ry

     iteration # 44     ecut=    30.00 Ry     beta=0.70
     Davidson diagonalization with overlap
     ethr =  4.13E-03,  avg # of iterations =  1.0

     negative rho (up, down):  7.651E-03 0.000E+00

     total cpu time spent up to now is        3.9 secs

     total energy              =     -32.50558922 Ry
     Harris-Foulkes estimate   =     -31.76881940 Ry
     estimated scf accuracy    <       4.18859165 Ry

     iteration # 45     ecut=    30.00 Ry     beta=0.70
     Davidson diagonalization with overlap
     ethr =  4.13E-03,  avg # of iterations =  1.0

     negative rho (up, down):  7.280E-03 0.000E+00

     total cpu time spent up to now is        4.0 secs

     total energy              =     -33.46022550 Ry
     Harris-Foulkes estimate   =     -32.51708304 Ry
     estimated scf accuracy    <       5.16200657 Ry

     iteration # 46     ecut=    30.00 Ry     beta=0.70
     Davidson diagonalization with overlap
     ethr =  4.13E-03,  avg # of iterations =  6.0

     negative rho (up, down):  8.384E-06 0.000E+00

     total cpu time spent up to now is        4.0 secs

     total energy              =     -32.96431153 Ry
     Harris-Foulkes estimate   =     -33.56358852 Ry
     estimated scf accuracy    <      14.57258175 Ry

     iteration # 47     ecut=    30.00 Ry     beta=0.70
     Davidson diagonalization with overlap
     ethr =  4.13E-03,  avg # of iterations =  2.0

     negative rho (up, down):  1.667E-06 0.000E+00

     total cpu time spent up to now is        4.1 secs

     total energy              =     -32.97239702 Ry
     Harris-Foulkes estimate   =     -33.07370317 Ry
     estimated scf accuracy    <       6.35105141 Ry

     iteration # 48     ecut=    30.00 Ry     beta=0.70
     Davidson diagonalization with overlap
     ethr =  4.13E-03,  avg # of iterations =  1.0

     negative rho (up, down):  6.059E-06 0.000E+00

     total cpu time spent up to now is        4.1 secs

     total energy              =     -33.08917689 Ry
     Harris-Foulkes estimate   =     -32.97463859 Ry
     estimated scf accuracy    <       6.15177869 Ry

     iteration # 49     ecut=    30.00 Ry     beta=0.70
     Davidson diagonalization with overlap
     ethr =  4.13E-03,  avg # of iterations =  1.0

     negative rho (up, down):  2.466E-04 0.000E+00

     total cpu time spent up to now is        4.2 secs

     total energy              =     -33.32233995 Ry
     Harris-Foulkes estimate   =     -33.08972162 Ry
     estimated scf accuracy    <       6.31594022 Ry

     iteration # 50     ecut=    30.00 Ry     beta=0.70
     Davidson diagonalization with overlap
     ethr =  4.13E-03,  avg # of iterations =  1.0

     negative rho (up, down):  7.877E-03 0.000E+00

     total cpu time spent up to now is        4.2 secs

     total energy              =     -33.34657539 Ry
     Harris-Foulkes estimate   =     -33.35742569 Ry
     estimated scf accuracy    <      12.22047260 Ry

     iteration # 51     ecut=    30.00 Ry     beta=0.70
     Davidson diagonalization with overlap
     ethr =  4.13E-03,  avg # of iterations =  1.0

     negative rho (up, down):  7.683E-01 0.000E+00

     total cpu time spent up to now is        4.3 secs

     total energy              =     -24.24056318 Ry
     Harris-Foulkes estimate   =     -33.34839284 Ry
     estimated scf accuracy    <      12.55140643 Ry

     iteration # 52     ecut=    30.00 Ry     beta=0.70
     Davidson diagonalization with overlap
     ethr =  4.13E-03,  avg # of iterations =  8.0

     negative rho (up, down):  5.633E-02 0.000E+00

     total cpu time spent up to now is        4.4 secs

     total energy              =     -33.12872751 Ry
     Harris-Foulkes estimate   =     -39.45984951 Ry
     estimated scf accuracy    <      13.51295188 Ry

     iteration # 53     ecut=    30.00 Ry     beta=0.70
     Davidson diagonalization with overlap
     ethr =  4.13E-03,  avg # of iterations =  3.0

     negative rho (up, down):  5.677E-03 0.000E+00

     total cpu time spent up to now is        4.4 secs

     total energy              =     -32.30728359 Ry
     Harris-Foulkes estimate   =     -33.39229533 Ry
     estimated scf accuracy    <       5.64655733 Ry

     iteration # 54     ecut=    30.00 Ry     beta=0.70
     Davidson diagonalization with overlap
     ethr =  4.13E-03,  avg # of iterations =  6.0

     negative rho (up, down):  1.139E-07 0.000E+00

     total cpu time spent up to now is        4.5 secs

     total energy              =     -31.41867072 Ry
     Harris-Foulkes estimate   =     -32.31241557 Ry
     estimated scf accuracy    <       4.05159294 Ry

     iteration # 55     ecut=    30.00 Ry     beta=0.70
     Davidson diagonalization with overlap
     ethr =  4.13E-03,  avg # of iterations =  1.0

     total cpu time spent up to now is        4.6 secs

     total energy              =     -31.68073926 Ry
     Harris-Foulkes estimate   =     -31.49875511 Ry
     estimated scf accuracy    <       0.64320027 Ry

     iteration # 56     ecut=    30.00 Ry     beta=0.70
     Davidson diagonalization with overlap
     ethr =  4.13E-03,  avg # of iterations =  1.0

     negative rho (up, down):  4.705E-03 0.000E+00

     total cpu time spent up to now is        4.6 secs

     total energy              =     -31.51055512 Ry
     Harris-Foulkes estimate   =     -31.95670681 Ry
     estimated scf accuracy    <       4.39927554 Ry

     iteration # 57     ecut=    30.00 Ry     beta=0.70
     Davidson diagonalization with overlap
     ethr =  4.13E-03,  avg # of iterations =  1.0

     negative rho (up, down):  3.593E-04 0.000E+00

     total cpu time spent up to now is        4.7 secs

     total energy              =     -31.41518866 Ry
     Harris-Foulkes estimate   =     -31.51314855 Ry
     estimated scf accuracy    <       1.75297187 Ry

     iteration # 58     ecut=    30.00 Ry     beta=0.70
     Davidson diagonalization with overlap
     ethr =  4.13E-03,  avg # of iterations =  1.0

     total cpu time spent up to now is        4.7 secs

     total energy              =     -31.17395186 Ry
     Harris-Foulkes estimate   =     -31.55252020 Ry
     estimated scf accuracy    <       2.65781257 Ry

     iteration # 59     ecut=    30.00 Ry     beta=0.70
     Davidson diagonalization with overlap
     ethr =  4.13E-03,  avg # of iterations =  1.0

     total cpu time spent up to now is        4.8 secs

     total energy              =     -31.54717159 Ry
     Harris-Foulkes estimate   =     -31.83552638 Ry
     estimated scf accuracy    <       4.21693575 Ry

     iteration # 60     ecut=    30.00 Ry     beta=0.70
     Davidson diagonalization with overlap
     ethr =  4.13E-03,  avg # of iterations =  1.0

     negative rho (up, down):  5.995E-03 0.000E+00

     total cpu time spent up to now is        4.8 secs

     total energy              =     -33.76179130 Ry
     Harris-Foulkes estimate   =     -31.54148374 Ry
     estimated scf accuracy    <       4.19100342 Ry

     iteration # 61     ecut=    30.00 Ry     beta=0.70
     Davidson diagonalization with overlap
     ethr =  4.13E-03,  avg # of iterations = 18.0

     total cpu time spent up to now is        4.9 secs

     total energy              =     -31.45854627 Ry
     Harris-Foulkes estimate   =     -33.98718353 Ry
     estimated scf accuracy    <      15.68374032 Ry

     iteration # 62     ecut=    30.00 Ry     beta=0.70
     Davidson diagonalization with overlap
     ethr =  4.13E-03,  avg # of iterations =  6.0

     total cpu time spent up to now is        5.0 secs

     total energy              =     -32.20365330 Ry
     Harris-Foulkes estimate   =     -32.12794315 Ry
     estimated scf accuracy    <       4.75158384 Ry

     iteration # 63     ecut=    30.00 Ry     beta=0.70
     Davidson diagonalization with overlap
     ethr =  4.13E-03,  avg # of iterations =  1.0

     total cpu time spent up to now is        5.0 secs

     total energy              =     -31.72544720 Ry
     Harris-Foulkes estimate   =     -32.20426355 Ry
     estimated scf accuracy    <       4.85091185 Ry

     iteration # 64     ecut=    30.00 Ry     beta=0.70
     Davidson diagonalization with overlap
     ethr =  4.13E-03,  avg # of iterations =  1.0

     total cpu time spent up to now is        5.1 secs

     total energy              =     -31.79400625 Ry
     Harris-Foulkes estimate   =     -31.72982169 Ry
     estimated scf accuracy    <       4.12500405 Ry

     iteration # 65     ecut=    30.00 Ry     beta=0.70
     Davidson diagonalization with overlap
     ethr =  4.13E-03,  avg # of iterations =  1.0

     total cpu time spent up to now is        5.1 secs

     total energy              =     -31.87905069 Ry
     Harris-Foulkes estimate   =     -31.79420960 Ry
     estimated scf accuracy    <       4.21399639 Ry

     iteration # 66     ecut=    30.00 Ry     beta=0.70
     Davidson diagonalization with overlap
     ethr =  4.13E-03,  avg # of iterations =  1.0

     total cpu time spent up to now is        5.2 secs

     total energy              =     -31.84407603 Ry
     Harris-Foulkes estimate   =     -31.87923002 Ry
     estimated scf accuracy    <       4.34710988 Ry

     iteration # 67     ecut=    30.00 Ry     beta=0.70
     Davidson diagonalization with overlap
     ethr =  4.13E-03,  avg # of iterations =  1.0

     negative rho (up, down):  2.166E-01 0.000E+00

     total cpu time spent up to now is        5.2 secs

     total energy              =     -28.37197691 Ry
     Harris-Foulkes estimate   =     -31.84409993 Ry
     estimated scf accuracy    <       4.29959635 Ry

     iteration # 68     ecut=    30.00 Ry     beta=0.70
     Davidson diagonalization with overlap
     ethr =  4.13E-03,  avg # of iterations =  6.0

     negative rho (up, down):  4.747E-02 0.000E+00

     total cpu time spent up to now is        5.3 secs

     total energy              =     -34.29804843 Ry
     Harris-Foulkes estimate   =     -37.74965232 Ry
     estimated scf accuracy    <      12.00518822 Ry

     iteration # 69     ecut=    30.00 Ry     beta=0.70
     Davidson diagonalization with overlap
     ethr =  4.13E-03,  avg # of iterations =  4.0

     negative rho (up, down):  6.257E-03 0.000E+00

     total cpu time spent up to now is        5.4 secs

     total energy              =     -32.97679108 Ry
     Harris-Foulkes estimate   =     -34.39900985 Ry
     estimated scf accuracy    <       7.09153695 Ry

     iteration # 70     ecut=    30.00 Ry     beta=0.70
     Davidson diagonalization with overlap
     ethr =  4.13E-03,  avg # of iterations =  1.0

     negative rho (up, down):  8.071E-02 0.000E+00

     total cpu time spent up to now is        5.4 secs

     total energy              =     -35.38277833 Ry
     Harris-Foulkes estimate   =     -33.00679927 Ry
     estimated scf accuracy    <       5.05303075 Ry

     iteration # 71     ecut=    30.00 Ry     beta=0.70
     Davidson diagonalization with overlap
     ethr =  4.13E-03,  avg # of iterations =  2.0

     negative rho (up, down):  2.326E-02 0.000E+00

     total cpu time spent up to now is        5.5 secs

     total energy              =     -33.69217449 Ry
     Harris-Foulkes estimate   =     -35.42108279 Ry
     estimated scf accuracy    <       8.46441046 Ry

     iteration # 72     ecut=    30.00 Ry     beta=0.70
     Davidson diagonalization with overlap
     ethr =  4.13E-03,  avg # of iterations =  1.0

     negative rho (up, down):  3.490E-04 0.000E+00

     total cpu time spent up to now is        5.5 secs

     total energy              =     -31.44593656 Ry
     Harris-Foulkes estimate   =     -33.72774076 Ry
     estimated scf accuracy    <       6.03598626 Ry

     iteration # 73     ecut=    30.00 Ry     beta=0.70
     Davidson diagonalization with overlap
     ethr =  4.13E-03,  avg # of iterations =  4.0

     negative rho (up, down):  3.116E-04 0.000E+00

     total cpu time spent up to now is        5.6 secs

     total energy              =     -31.50062366 Ry
     Harris-Foulkes estimate   =     -31.53046271 Ry
     estimated scf accuracy    <       1.13074182 Ry

     iteration # 74     ecut=    30.00 Ry     beta=0.70
     Davidson diagonalization with overlap
     ethr =  4.13E-03,  avg # of iterations =  1.0

     negative rho (up, down):  6.877E-04 0.000E+00

     total cpu time spent up to now is        5.6 secs

     total energy              =     -31.51281089 Ry
     Harris-Foulkes estimate   =     -31.51574390 Ry
     estimated scf accuracy    <       0.22551194 Ry

     iteration # 75     ecut=    30.00 Ry     beta=0.70
     Davidson diagonalization with overlap
     ethr =  2.82E-03,  avg # of iterations =  1.0

     negative rho (up, down):  2.376E-06 0.000E+00

     total cpu time spent up to now is        5.7 secs

     total energy              =     -31.60728338 Ry
     Harris-Foulkes estimate   =     -31.74451872 Ry
     estimated scf accuracy    <       3.04857957 Ry

     iteration # 76     ecut=    30.00 Ry     beta=0.70
     Davidson diagonalization with overlap
     ethr =  2.82E-03,  avg # of iterations =  1.0

     negative rho (up, down):  2.138E-03 0.000E+00

     total cpu time spent up to now is        5.7 secs

     total energy              =     -29.60656426 Ry
     Harris-Foulkes estimate   =     -31.60748215 Ry
     estimated scf accuracy    <       2.86744118 Ry

     iteration # 77     ecut=    30.00 Ry     beta=0.70
     Davidson diagonalization with overlap
     ethr =  2.82E-03,  avg # of iterations = 10.0

     total cpu time spent up to now is        5.8 secs

     total energy              =     -31.78185105 Ry
     Harris-Foulkes estimate   =     -36.77503850 Ry
     estimated scf accuracy    <      19.81549919 Ry

     iteration # 78     ecut=    30.00 Ry     beta=0.70
     Davidson diagonalization with overlap
     ethr =  2.82E-03,  avg # of iterations =  3.0

     total cpu time spent up to now is        5.9 secs

     total energy              =     -30.20606255 Ry
     Harris-Foulkes estimate   =     -31.87593058 Ry
     estimated scf accuracy    <      12.81969981 Ry

     iteration # 79     ecut=    30.00 Ry     beta=0.70
     Davidson diagonalization with overlap
     ethr =  2.82E-03,  avg # of iterations =  6.0

     total cpu time spent up to now is        5.9 secs

     total energy              =     -31.42463196 Ry
     Harris-Foulkes estimate   =     -31.35437535 Ry
     estimated scf accuracy    <       3.81893046 Ry

     iteration # 80     ecut=    30.00 Ry     beta=0.70
     Davidson diagonalization with overlap
     ethr =  2.82E-03,  avg # of iterations =  6.0

     total cpu time spent up to now is        6.0 secs

     total energy              =     -31.43944971 Ry
     Harris-Foulkes estimate   =     -31.48757571 Ry
     estimated scf accuracy    <       1.68270497 Ry

     iteration # 81     ecut=    30.00 Ry     beta=0.70
     Davidson diagonalization with overlap
     ethr =  2.82E-03,  avg # of iterations =  1.0

     total cpu time spent up to now is        6.1 secs

     total energy              =     -31.45585578 Ry
     Harris-Foulkes estimate   =     -31.44430450 Ry
     estimated scf accuracy    <       0.81735883 Ry

     iteration # 82     ecut=    30.00 Ry     beta=0.70
     Davidson diagonalization with overlap
     ethr =  2.82E-03,  avg # of iterations =  1.0

     negative rho (up, down):  2.782E-08 0.000E+00

     total cpu time spent up to now is        6.1 secs

     total energy              =     -31.68613813 Ry
     Harris-Foulkes estimate   =     -31.45643449 Ry
     estimated scf accuracy    <       0.87240965 Ry

     iteration # 83     ecut=    30.00 Ry     beta=0.70
     Davidson diagonalization with overlap
     ethr =  2.82E-03,  avg # of iterations =  1.0

     total cpu time spent up to now is        6.2 secs

     total energy              =     -31.74970640 Ry
     Harris-Foulkes estimate   =     -31.97078001 Ry
     estimated scf accuracy    <       4.54618449 Ry

     iteration # 84     ecut=    30.00 Ry     beta=0.70
     Davidson diagonalization with overlap
     ethr =  2.82E-03,  avg # of iterations =  1.0

     negative rho (up, down):  1.294E-03 0.000E+00

     total cpu time spent up to now is        6.2 secs

     total energy              =     -31.59784993 Ry
     Harris-Foulkes estimate   =     -31.75276997 Ry
     estimated scf accuracy    <       4.12994772 Ry

     iteration # 85     ecut=    30.00 Ry     beta=0.70
     Davidson diagonalization with overlap
     ethr =  2.82E-03,  avg # of iterations =  1.0

     negative rho (up, down):  2.020E-01 0.000E+00

     total cpu time spent up to now is        6.3 secs

     total energy              =     -30.99732724 Ry
     Harris-Foulkes estimate   =     -31.59731101 Ry
     estimated scf accuracy    <       4.42810142 Ry

     iteration # 86     ecut=    30.00 Ry     beta=0.70
     Davidson diagonalization with overlap
     ethr =  2.82E-03,  avg # of iterations =  2.0

     negative rho (up, down):  1.051E-07 0.000E+00

     total cpu time spent up to now is        6.3 secs

     total energy              =     -31.43010755 Ry
     Harris-Foulkes estimate   =     -31.41885036 Ry
     estimated scf accuracy    <       0.41807481 Ry

     iteration # 87     ecut=    30.00 Ry     beta=0.70
     Davidson diagonalization with overlap
     ethr =  2.82E-03,  avg # of iterations =  2.0

     negative rho (up, down):  1.013E-07 0.000E+00

     total cpu time spent up to now is        6.4 secs

     total energy              =     -31.34960492 Ry
     Harris-Foulkes estimate   =     -31.45757759 Ry
     estimated scf accuracy    <       1.47777040 Ry

     iteration # 88     ecut=    30.00 Ry     beta=0.70
     Davidson diagonalization with overlap
     ethr =  2.82E-03,  avg # of iterations =  5.0

     total cpu time spent up to now is        6.4 secs

     total energy              =     -31.56595905 Ry
     Harris-Foulkes estimate   =     -31.67147783 Ry
     estimated scf accuracy    <       3.01549892 Ry

     iteration # 89     ecut=    30.00 Ry     beta=0.70
     Davidson diagonalization with overlap
     ethr =  2.82E-03,  avg # of iterations =  1.0

     total cpu time spent up to now is        6.5 secs

     total energy              =     -31.47621476 Ry
     Harris-Foulkes estimate   =     -31.56972704 Ry
     estimated scf accuracy    <       1.91077667 Ry

     iteration # 90     ecut=    30.00 Ry     beta=0.70
     Davidson diagonalization with overlap
     ethr =  2.82E-03,  avg # of iterations =  1.0

     total cpu time spent up to now is        6.5 secs

     total energy              =     -31.50494169 Ry
     Harris-Foulkes estimate   =     -31.50557754 Ry
     estimated scf accuracy    <       0.38930055 Ry

     iteration # 91     ecut=    30.00 Ry     beta=0.70
     Davidson diagonalization with overlap
     ethr =  2.82E-03,  avg # of iterations =  1.0

     total cpu time spent up to now is        6.6 secs

     total energy              =     -31.51079488 Ry
     Harris-Foulkes estimate   =     -31.50651518 Ry
     estimated scf accuracy    <       0.68132601 Ry

     iteration # 92     ecut=    30.00 Ry     beta=0.70
     Davidson diagonalization with overlap
     ethr =  2.82E-03,  avg # of iterations =  1.0

     total cpu time spent up to now is        6.6 secs

     total energy              =     -31.48789481 Ry
     Harris-Foulkes estimate   =     -31.51510923 Ry
     estimated scf accuracy    <       1.38620956 Ry

     iteration # 93     ecut=    30.00 Ry     beta=0.70
     Davidson diagonalization with overlap
     ethr =  2.82E-03,  avg # of iterations =  1.0

     negative rho (up, down):  1.707E-03 0.000E+00

     total cpu time spent up to now is        6.7 secs

     total energy              =     -31.50882721 Ry
     Harris-Foulkes estimate   =     -31.51771295 Ry
     estimated scf accuracy    <       0.30238524 Ry

     iteration # 94     ecut=    30.00 Ry     beta=0.70
     Davidson diagonalization with overlap
     ethr =  2.82E-03,  avg # of iterations =  1.0

     negative rho (up, down):  3.740E-05 0.000E+00

     total cpu time spent up to now is        6.7 secs

     total energy              =     -31.55769858 Ry
     Harris-Foulkes estimate   =     -31.51047450 Ry
     estimated scf accuracy    <       0.38712631 Ry

     iteration # 95     ecut=    30.00 Ry     beta=0.70
     Davidson diagonalization with overlap
     ethr =  2.82E-03,  avg # of iterations =  1.0

     negative rho (up, down):  2.520E-04 0.000E+00

     total cpu time spent up to now is        6.8 secs

     total energy              =     -31.58860887 Ry
     Harris-Foulkes estimate   =     -31.60566852 Ry
     estimated scf accuracy    <       2.21919403 Ry

     iteration # 96     ecut=    30.00 Ry     beta=0.70
     Davidson diagonalization with overlap
     ethr =  2.82E-03,  avg # of iterations =  1.0

     negative rho (up, down):  2.011E-04 0.000E+00

     total cpu time spent up to now is        6.8 secs

     total energy              =     -31.58974999 Ry
     Harris-Foulkes estimate   =     -31.58931799 Ry
     estimated scf accuracy    <       1.78881337 Ry

     iteration # 97     ecut=    30.00 Ry     beta=0.70
     Davidson diagonalization with overlap
     ethr =  2.82E-03,  avg # of iterations =  1.0

     negative rho (up, down):  7.021E-04 0.000E+00

     total cpu time spent up to now is        6.9 secs

     total energy              =     -31.58096180 Ry
     Harris-Foulkes estimate   =     -31.58975954 Ry
     estimated scf accuracy    <       1.82736880 Ry

     iteration # 98     ecut=    30.00 Ry     beta=0.70
     Davidson diagonalization with overlap
     ethr =  2.82E-03,  avg # of iterations =  1.0

     negative rho (up, down):  2.026E-03 0.000E+00

     total cpu time spent up to now is        6.9 secs

     total energy              =     -31.67771450 Ry
     Harris-Foulkes estimate   =     -31.58116501 Ry
     estimated scf accuracy    <       1.60585333 Ry

     iteration # 99     ecut=    30.00 Ry     beta=0.70
     Davidson diagonalization with overlap
     ethr =  2.82E-03,  avg # of iterations =  1.0

     negative rho (up, down):  5.067E-05 0.000E+00

     total cpu time spent up to now is        7.0 secs

     total energy              =     -31.60175534 Ry
     Harris-Foulkes estimate   =     -31.69534774 Ry
     estimated scf accuracy    <       3.14902133 Ry

     iteration #100     ecut=    30.00 Ry     beta=0.70
     Davidson diagonalization with overlap
     ethr =  2.82E-03,  avg # of iterations =  1.0

     total cpu time spent up to now is        7.0 secs

     total energy              =     -31.35650078 Ry
     Harris-Foulkes estimate   =     -31.60515915 Ry
     estimated scf accuracy    <       2.25216387 Ry

     End of self-consistent calculation

     convergence NOT achieved after 100 iterations: stopping

     Writing output data file pwscf.save
 
     init_run     :      0.17s CPU      0.19s WALL (       1 calls)
     electrons    :      5.36s CPU      6.42s WALL (       2 calls)
     update_pot   :      0.12s CPU      0.16s WALL (       1 calls)
     forces       :      0.04s CPU      0.04s WALL (       1 calls)

     Called by init_run:
     wfcinit      :      0.01s CPU      0.02s WALL (       1 calls)
     potinit      :      0.05s CPU      0.05s WALL (       1 calls)

     Called by electrons:
     c_bands      :      2.37s CPU      2.48s WALL (     109 calls)
     sum_band     :      0.55s CPU      0.59s WALL (     109 calls)
     v_of_rho     :      1.33s CPU      1.42s WALL (     111 calls)
     mix_rho      :      0.94s CPU      1.62s WALL (     109 calls)

     Called by c_bands:
     init_us_2    :      0.02s CPU      0.02s WALL (     219 calls)
     cegterg      :      2.34s CPU      2.41s WALL (     109 calls)

     Called by sum_band:

     Called by *egterg:
     h_psi        :      2.03s CPU      2.08s WALL (     398 calls)
     g_psi        :      0.02s CPU      0.02s WALL (     288 calls)
     cdiaghg      :      0.12s CPU      0.13s WALL (     396 calls)

     Called by h_psi:
     h_psi:pot    :      2.02s CPU      2.07s WALL (     398 calls)
     h_psi:calbec :      0.03s CPU      0.03s WALL (     398 calls)
     vloc_psi     :      1.98s CPU      2.04s WALL (     398 calls)
     add_vuspsi   :      0.01s CPU      0.01s WALL (     398 calls)

     General routines
     calbec       :      0.02s CPU      0.02s WALL (     402 calls)
     fft          :      0.97s CPU      1.03s WALL (    1223 calls)
     fftw         :      2.15s CPU      2.23s WALL (    5458 calls)
     davcio       :      0.13s CPU      0.58s WALL (    2016 calls)
 
     Parallel routines
     fft_scatter  :      1.14s CPU      1.24s WALL (    6681 calls)
 
     PWSCF        :     5.90s CPU         7.15s WALL

 
   This run was terminated on:  13:23: 2  13Feb2018            

=------------------------------------------------------------------------------=
   JOB DONE.
=------------------------------------------------------------------------------=
