
     Program PWSCF v.6.0 (svn rev. 13079) starts on 13Feb2018 at 17:13:23 

     This program is part of the open-source Quantum ESPRESSO suite
     for quantum simulation of materials; please cite
         "P. Giannozzi et al., J. Phys.:Condens. Matter 21 395502 (2009);
          URL http://www.quantum-espresso.org", 
     in publications or presentations arising from this work. More details at
     http://www.quantum-espresso.org/quote

     Parallel version (MPI), running on    28 processors
     R & G space division:  proc/nbgrp/npool/nimage =      28
     Reading input from inputs/MD-H2O-round1/783.in

     Current dimensions of program PWSCF are:
     Max number of different atomic species (ntypx) = 10
     Max number of k-points (npk) =  40000
     Max angular momentum in pseudopotentials (lmaxx) =  3

     Subspace diagonalization in iterative solution of the eigenvalue problem:
     a serial algorithm will be used

 
     Parallelization info
     --------------------
     sticks:   dense  smooth     PW     G-vecs:    dense   smooth      PW
     Min         136     136     33                 6338     6338     787
     Max         137     137     34                 6341     6341     792
     Sum        3809    3809    949               177509   177509   22119
 


     bravais-lattice index     =            1
     lattice parameter (alat)  =      20.0000  a.u.
     unit-cell volume          =    8000.0000 (a.u.)^3
     number of atoms/cell      =            3
     number of atomic types    =            2
     number of electrons       =         8.00
     number of Kohn-Sham states=            8
     kinetic-energy cutoff     =      30.0000  Ry
     charge density cutoff     =     120.0000  Ry
     convergence threshold     =      1.0E-08
     mixing beta               =       0.7000
     number of iterations used =            8  plain     mixing
     Exchange-correlation      = BLYP ( 1  3  1  3 0 0)
     nstep                     =         5000


     celldm(1)=  20.000000  celldm(2)=   0.000000  celldm(3)=   0.000000
     celldm(4)=   0.000000  celldm(5)=   0.000000  celldm(6)=   0.000000

     crystal axes: (cart. coord. in units of alat)
               a(1) = (   1.000000   0.000000   0.000000 )  
               a(2) = (   0.000000   1.000000   0.000000 )  
               a(3) = (   0.000000   0.000000   1.000000 )  

     reciprocal axes: (cart. coord. in units 2 pi/alat)
               b(1) = (  1.000000  0.000000  0.000000 )  
               b(2) = (  0.000000  1.000000  0.000000 )  
               b(3) = (  0.000000  0.000000  1.000000 )  


     PseudoPot. # 1 for  H read from file:
     ./H.blyp-hgh.UPF
     MD5 check sum: c576e69559cde411e611be972c763230
     Pseudo is Norm-conserving, Zval =  1.0
     Generated in analytical, separable form
     Using radial grid of  929 points,  0 beta functions with: 

     PseudoPot. # 2 for  O read from file:
     ./O.blyp-hgh.UPF
     MD5 check sum: d0b7156309aa9befef28faac7bc56342
     Pseudo is Norm-conserving, Zval =  6.0
     Generated in analytical, separable form
     Using radial grid of 1095 points,  1 beta functions with: 
                l(1) =   0

     atomic species   valence    mass     pseudopotential
        H              1.00     1.01000      H( 1.00)
        O              6.00    16.00000      O( 1.00)

     No symmetry found



   Cartesian axes

     site n.     atom                  positions (alat units)
         1           O   tau(   1) = (   0.8304242   0.2115439   0.4453327  )
         2           H   tau(   2) = (   0.8239532   0.7436470  -0.1035082  )
         3           H   tau(   3) = (   0.8397344   0.1911405   0.3683176  )

     number of k points=     1  Marzari-Vanderbilt smearing, width (Ry)=  0.0250
                       cart. coord. in units 2pi/alat
        k(    1) = (   0.0000000   0.0000000   0.0000000), wk =   2.0000000

     Dense  grid:   177509 G-vectors     FFT dimensions: (  72,  72,  72)

     Estimated max dynamical RAM per process >       6.09Mb

     Estimated total allocated dynamical RAM >     170.64Mb

     Initial potential from superposition of free atoms
     Check: negative starting charge=   -0.351256

     starting charge    7.99998, renormalised to    8.00000

     negative rho (up, down):  3.513E-01 0.000E+00
     Starting wfc are    6 randomized atomic wfcs +    2 random wfc

     total cpu time spent up to now is        0.4 secs

     per-process dynamical memory:    18.8 Mb

     Self-consistent Calculation

     iteration #  1     ecut=    30.00 Ry     beta=0.70
     Davidson diagonalization with overlap
     ethr =  1.00E-02,  avg # of iterations =  8.0

     negative rho (up, down):  9.473E-02 0.000E+00

     total cpu time spent up to now is        0.5 secs

     total energy              =     -31.55717378 Ry
     Harris-Foulkes estimate   =     -32.07761495 Ry
     estimated scf accuracy    <       0.54604156 Ry

     iteration #  2     ecut=    30.00 Ry     beta=0.70
     Davidson diagonalization with overlap
     ethr =  6.83E-03,  avg # of iterations =  3.0

     negative rho (up, down):  7.335E-02 0.000E+00

     total cpu time spent up to now is        0.5 secs

     total energy              =     -31.71741356 Ry
     Harris-Foulkes estimate   =     -32.40336925 Ry
     estimated scf accuracy    <       2.30896134 Ry

     iteration #  3     ecut=    30.00 Ry     beta=0.70
     Davidson diagonalization with overlap
     ethr =  6.83E-03,  avg # of iterations =  2.0

     negative rho (up, down):  2.695E-02 0.000E+00

     total cpu time spent up to now is        0.6 secs

     total energy              =     -31.73863335 Ry
     Harris-Foulkes estimate   =     -31.79372454 Ry
     estimated scf accuracy    <       0.36030211 Ry

     iteration #  4     ecut=    30.00 Ry     beta=0.70
     Davidson diagonalization with overlap
     ethr =  4.50E-03,  avg # of iterations =  1.0

     negative rho (up, down):  9.658E-03 0.000E+00

     total cpu time spent up to now is        0.6 secs

     total energy              =     -31.62987043 Ry
     Harris-Foulkes estimate   =     -31.95242350 Ry
     estimated scf accuracy    <       1.41478543 Ry

     iteration #  5     ecut=    30.00 Ry     beta=0.70
     Davidson diagonalization with overlap
     ethr =  4.50E-03,  avg # of iterations =  1.0

     negative rho (up, down):  5.537E-04 0.000E+00

     total cpu time spent up to now is        0.7 secs

     total energy              =     -31.89444004 Ry
     Harris-Foulkes estimate   =     -31.99650630 Ry
     estimated scf accuracy    <       1.09152422 Ry

     iteration #  6     ecut=    30.00 Ry     beta=0.70
     Davidson diagonalization with overlap
     ethr =  4.50E-03,  avg # of iterations =  1.0

     negative rho (up, down):  6.071E-04 0.000E+00

     total cpu time spent up to now is        0.7 secs

     total energy              =     -31.83090748 Ry
     Harris-Foulkes estimate   =     -31.89517812 Ry
     estimated scf accuracy    <       0.94606140 Ry

     iteration #  7     ecut=    30.00 Ry     beta=0.70
     Davidson diagonalization with overlap
     ethr =  4.50E-03,  avg # of iterations =  1.0

     negative rho (up, down):  5.245E-04 0.000E+00

     total cpu time spent up to now is        0.8 secs

     total energy              =     -31.83397896 Ry
     Harris-Foulkes estimate   =     -31.84177835 Ry
     estimated scf accuracy    <       0.03546458 Ry

     iteration #  8     ecut=    30.00 Ry     beta=0.70
     Davidson diagonalization with overlap
     ethr =  4.43E-04,  avg # of iterations =  1.0

     negative rho (up, down):  1.403E-04 0.000E+00

     total cpu time spent up to now is        0.8 secs

     total energy              =     -31.81623368 Ry
     Harris-Foulkes estimate   =     -31.86998342 Ry
     estimated scf accuracy    <       1.60793074 Ry

     iteration #  9     ecut=    30.00 Ry     beta=0.70
     Davidson diagonalization with overlap
     ethr =  4.43E-04,  avg # of iterations =  1.0

     negative rho (up, down):  2.955E-05 0.000E+00

     total cpu time spent up to now is        0.8 secs

     total energy              =     -31.84112900 Ry
     Harris-Foulkes estimate   =     -31.84153676 Ry
     estimated scf accuracy    <       0.01873895 Ry

     iteration # 10     ecut=    30.00 Ry     beta=0.70
     Davidson diagonalization with overlap
     ethr =  2.34E-04,  avg # of iterations =  6.0

     negative rho (up, down):  2.115E-06 0.000E+00

     total cpu time spent up to now is        0.9 secs

     total energy              =     -31.84204495 Ry
     Harris-Foulkes estimate   =     -31.84130043 Ry
     estimated scf accuracy    <       0.00081416 Ry

     iteration # 11     ecut=    30.00 Ry     beta=0.70
     Davidson diagonalization with overlap
     ethr =  1.02E-05,  avg # of iterations =  9.0

     negative rho (up, down):  2.290E-08 0.000E+00

     total cpu time spent up to now is        1.0 secs

     total energy              =     -31.84637363 Ry
     Harris-Foulkes estimate   =     -31.84968654 Ry
     estimated scf accuracy    <       0.47119054 Ry

     iteration # 12     ecut=    30.00 Ry     beta=0.70
     Davidson diagonalization with overlap
     ethr =  1.02E-05,  avg # of iterations =  1.0

     total cpu time spent up to now is        1.0 secs

     total energy              =     -31.84309374 Ry
     Harris-Foulkes estimate   =     -31.84663076 Ry
     estimated scf accuracy    <       0.32943244 Ry

     iteration # 13     ecut=    30.00 Ry     beta=0.70
     Davidson diagonalization with overlap
     ethr =  1.02E-05,  avg # of iterations =  1.0

     total cpu time spent up to now is        1.1 secs

     total energy              =     -31.83743601 Ry
     Harris-Foulkes estimate   =     -31.84360853 Ry
     estimated scf accuracy    <       0.15821973 Ry

     iteration # 14     ecut=    30.00 Ry     beta=0.70
     Davidson diagonalization with overlap
     ethr =  1.02E-05,  avg # of iterations =  1.0

     total cpu time spent up to now is        1.1 secs

     total energy              =     -31.84074439 Ry
     Harris-Foulkes estimate   =     -31.84169548 Ry
     estimated scf accuracy    <       0.03206164 Ry

     iteration # 15     ecut=    30.00 Ry     beta=0.70
     Davidson diagonalization with overlap
     ethr =  1.02E-05,  avg # of iterations =  1.0

     total cpu time spent up to now is        1.2 secs

     total energy              =     -31.84129569 Ry
     Harris-Foulkes estimate   =     -31.84131003 Ry
     estimated scf accuracy    <       0.00110484 Ry

     iteration # 16     ecut=    30.00 Ry     beta=0.70
     Davidson diagonalization with overlap
     ethr =  1.02E-05,  avg # of iterations =  1.0

     total cpu time spent up to now is        1.2 secs

     total energy              =     -31.84129830 Ry
     Harris-Foulkes estimate   =     -31.84129899 Ry
     estimated scf accuracy    <       0.00030722 Ry

     iteration # 17     ecut=    30.00 Ry     beta=0.70
     Davidson diagonalization with overlap
     ethr =  3.84E-06,  avg # of iterations =  1.0

     total cpu time spent up to now is        1.3 secs

     total energy              =     -31.84129343 Ry
     Harris-Foulkes estimate   =     -31.84129852 Ry
     estimated scf accuracy    <       0.00022356 Ry

     iteration # 18     ecut=    30.00 Ry     beta=0.70
     Davidson diagonalization with overlap
     ethr =  2.79E-06,  avg # of iterations =  1.0

     total cpu time spent up to now is        1.3 secs

     total energy              =     -31.84129524 Ry
     Harris-Foulkes estimate   =     -31.84129557 Ry
     estimated scf accuracy    <       0.00000403 Ry

     iteration # 19     ecut=    30.00 Ry     beta=0.70
     Davidson diagonalization with overlap
     ethr =  5.04E-08,  avg # of iterations =  1.0

     total cpu time spent up to now is        1.3 secs

     total energy              =     -31.84129530 Ry
     Harris-Foulkes estimate   =     -31.84129548 Ry
     estimated scf accuracy    <       0.00000516 Ry

     iteration # 20     ecut=    30.00 Ry     beta=0.70
     Davidson diagonalization with overlap
     ethr =  5.04E-08,  avg # of iterations =  1.0

     total cpu time spent up to now is        1.4 secs

     total energy              =     -31.84129533 Ry
     Harris-Foulkes estimate   =     -31.84129551 Ry
     estimated scf accuracy    <       0.00000349 Ry

     iteration # 21     ecut=    30.00 Ry     beta=0.70
     Davidson diagonalization with overlap
     ethr =  4.36E-08,  avg # of iterations =  1.0

     total cpu time spent up to now is        1.4 secs

     total energy              =     -31.84129535 Ry
     Harris-Foulkes estimate   =     -31.84129536 Ry
     estimated scf accuracy    <       0.00000004 Ry

     iteration # 22     ecut=    30.00 Ry     beta=0.70
     Davidson diagonalization with overlap
     ethr =  4.72E-10,  avg # of iterations =  1.0

     total cpu time spent up to now is        1.5 secs

     End of self-consistent calculation

          k = 0.0000 0.0000 0.0000 ( 22119 PWs)   bands (ev):

   -26.1607 -11.0705  -7.1565  -7.1559  -7.0119  -0.4538   0.5780   0.8096

     the Fermi energy is    -6.9842 ev

!    total energy              =     -31.84129535 Ry
     Harris-Foulkes estimate   =     -31.84129535 Ry
     estimated scf accuracy    <          1.6E-09 Ry

     convergence has been achieved in  22 iterations

     Forces acting on atoms (Ry/au):

     atom    1 type  2   force =    -0.07302144    0.15801577    0.58977183
     atom    2 type  1   force =     0.00070440   -0.00075587    0.00001406
     atom    3 type  1   force =     0.07231703   -0.15725991   -0.58978588

     Total force =     0.869449     Total SCF correction =     0.000010

     Molecular Dynamics Calculation

     Starting temperature  =  1000.00 K

     temperature is controlled by Andersen thermostat
     Collision frequency = 1.0000/timestep
     mass H                =     1.01
     mass O                =    16.00
     Time step             =   100.00 a.u.,  4.8378 femto-seconds

     Entering Dynamics:    iteration =     1
                           time      =   0.0048 pico-seconds


     Andersen thermostat:    3 collisions

ATOMIC_POSITIONS (bohr)
O       16.565934746   4.266826731   9.135249367
H       16.603623322  14.807151164  -2.261973500
H       17.344177261   3.319112993   3.936848762


     kinetic energy (Ekin) =     0.01265054 Ry
     temperature           =   665.78642842 K 
     Ekin + Etot (const)   =   -31.82864482 Ry

     Linear momentum :   -0.0000000000   -0.0000000000    0.0000000000

     Writing output data file pwscf.save
     Check: negative starting charge=   -0.351256
     NEW-OLD atomic charge density approx. for the potential
     Check: negative starting charge=   -0.344055

     negative rho (up, down):  4.621E-01 0.000E+00

     total cpu time spent up to now is        1.9 secs

     per-process dynamical memory:    20.4 Mb

     Self-consistent Calculation

     iteration #  1     ecut=    30.00 Ry     beta=0.70
     Davidson diagonalization with overlap
     ethr =  1.00E-06,  avg # of iterations = 14.0

     negative rho (up, down):  1.118E-01 0.000E+00

     total cpu time spent up to now is        2.1 secs

     total energy              =      -4.95911273 Ry
     Harris-Foulkes estimate   =     -41.22127572 Ry
     estimated scf accuracy    <      12.13256755 Ry

     iteration #  2     ecut=    30.00 Ry     beta=0.70
     Davidson diagonalization with overlap
     ethr =  1.00E-02,  avg # of iterations =  4.0

     negative rho (up, down):  7.530E-02 0.000E+00

     total cpu time spent up to now is        2.1 secs

     total energy              =     -32.44500210 Ry
     Harris-Foulkes estimate   =     -40.49147893 Ry
     estimated scf accuracy    <      17.24166967 Ry

     iteration #  3     ecut=    30.00 Ry     beta=0.70
     Davidson diagonalization with overlap
     ethr =  1.00E-02,  avg # of iterations =  3.0

     negative rho (up, down):  5.458E-02 0.000E+00

     total cpu time spent up to now is        2.2 secs

     total energy              =     -32.26591162 Ry
     Harris-Foulkes estimate   =     -33.12913583 Ry
     estimated scf accuracy    <       3.58951328 Ry

     iteration #  4     ecut=    30.00 Ry     beta=0.70
     Davidson diagonalization with overlap
     ethr =  1.00E-02,  avg # of iterations =  2.0

     negative rho (up, down):  4.155E-02 0.000E+00

     total cpu time spent up to now is        2.2 secs

     total energy              =     -31.60952813 Ry
     Harris-Foulkes estimate   =     -32.63174028 Ry
     estimated scf accuracy    <       4.65328104 Ry

     iteration #  5     ecut=    30.00 Ry     beta=0.70
     Davidson diagonalization with overlap
     ethr =  1.00E-02,  avg # of iterations =  1.0

     negative rho (up, down):  3.961E-02 0.000E+00

     total cpu time spent up to now is        2.3 secs

     total energy              =     -31.65381659 Ry
     Harris-Foulkes estimate   =     -32.27178041 Ry
     estimated scf accuracy    <       4.12641650 Ry

     iteration #  6     ecut=    30.00 Ry     beta=0.70
     Davidson diagonalization with overlap
     ethr =  1.00E-02,  avg # of iterations =  1.0

     negative rho (up, down):  1.677E-02 0.000E+00

     total cpu time spent up to now is        2.3 secs

     total energy              =     -31.43400982 Ry
     Harris-Foulkes estimate   =     -32.09929201 Ry
     estimated scf accuracy    <       3.58773236 Ry

     iteration #  7     ecut=    30.00 Ry     beta=0.70
     Davidson diagonalization with overlap
     ethr =  1.00E-02,  avg # of iterations =  1.0

     negative rho (up, down):  1.694E-02 0.000E+00

     total cpu time spent up to now is        2.4 secs

     total energy              =     -31.62938206 Ry
     Harris-Foulkes estimate   =     -31.65230492 Ry
     estimated scf accuracy    <       1.42043141 Ry

     iteration #  8     ecut=    30.00 Ry     beta=0.70
     Davidson diagonalization with overlap
     ethr =  1.00E-02,  avg # of iterations =  1.0

     negative rho (up, down):  1.527E-02 0.000E+00

     total cpu time spent up to now is        2.4 secs

     total energy              =     -31.56877287 Ry
     Harris-Foulkes estimate   =     -31.63080825 Ry
     estimated scf accuracy    <       1.31547181 Ry

     iteration #  9     ecut=    30.00 Ry     beta=0.70
     Davidson diagonalization with overlap
     ethr =  1.00E-02,  avg # of iterations =  1.0

     negative rho (up, down):  1.611E-02 0.000E+00

     total cpu time spent up to now is        2.5 secs

     total energy              =     -31.56502372 Ry
     Harris-Foulkes estimate   =     -31.57737990 Ry
     estimated scf accuracy    <       0.51298812 Ry

     iteration # 10     ecut=    30.00 Ry     beta=0.70
     Davidson diagonalization with overlap
     ethr =  6.41E-03,  avg # of iterations =  1.0

     negative rho (up, down):  9.982E-04 0.000E+00

     total cpu time spent up to now is        2.5 secs

     total energy              =     -31.47666071 Ry
     Harris-Foulkes estimate   =     -31.58993984 Ry
     estimated scf accuracy    <       1.28074529 Ry

     iteration # 11     ecut=    30.00 Ry     beta=0.70
     Davidson diagonalization with overlap
     ethr =  6.41E-03,  avg # of iterations =  1.0

     negative rho (up, down):  2.955E-04 0.000E+00

     total cpu time spent up to now is        2.6 secs

     total energy              =     -31.56110614 Ry
     Harris-Foulkes estimate   =     -31.56062378 Ry
     estimated scf accuracy    <       0.94330793 Ry

     iteration # 12     ecut=    30.00 Ry     beta=0.70
     Davidson diagonalization with overlap
     ethr =  6.41E-03,  avg # of iterations =  1.0

     negative rho (up, down):  5.973E-07 0.000E+00

     total cpu time spent up to now is        2.6 secs

     total energy              =     -31.53644688 Ry
     Harris-Foulkes estimate   =     -31.56236864 Ry
     estimated scf accuracy    <       1.15800529 Ry

     iteration # 13     ecut=    30.00 Ry     beta=0.70
     Davidson diagonalization with overlap
     ethr =  6.41E-03,  avg # of iterations =  1.0

     negative rho (up, down):  7.246E-07 0.000E+00

     total cpu time spent up to now is        2.7 secs

     total energy              =     -31.52201609 Ry
     Harris-Foulkes estimate   =     -31.54654718 Ry
     estimated scf accuracy    <       0.18414042 Ry

     iteration # 14     ecut=    30.00 Ry     beta=0.70
     Davidson diagonalization with overlap
     ethr =  2.30E-03,  avg # of iterations =  1.0

     negative rho (up, down):  8.559E-07 0.000E+00

     total cpu time spent up to now is        2.7 secs

     total energy              =     -31.53364449 Ry
     Harris-Foulkes estimate   =     -31.54464737 Ry
     estimated scf accuracy    <       0.28965518 Ry

     iteration # 15     ecut=    30.00 Ry     beta=0.70
     Davidson diagonalization with overlap
     ethr =  2.30E-03,  avg # of iterations =  1.0

     negative rho (up, down):  8.672E-07 0.000E+00

     total cpu time spent up to now is        2.8 secs

     total energy              =     -31.53629131 Ry
     Harris-Foulkes estimate   =     -31.53863147 Ry
     estimated scf accuracy    <       0.07398298 Ry

     iteration # 16     ecut=    30.00 Ry     beta=0.70
     Davidson diagonalization with overlap
     ethr =  9.25E-04,  avg # of iterations =  1.0

     negative rho (up, down):  3.292E-07 0.000E+00

     total cpu time spent up to now is        2.8 secs

     total energy              =     -31.53788561 Ry
     Harris-Foulkes estimate   =     -31.53727244 Ry
     estimated scf accuracy    <       0.02549598 Ry

     iteration # 17     ecut=    30.00 Ry     beta=0.70
     Davidson diagonalization with overlap
     ethr =  3.19E-04,  avg # of iterations =  1.0

     negative rho (up, down):  3.684E-08 0.000E+00

     total cpu time spent up to now is        2.8 secs

     total energy              =     -31.53390425 Ry
     Harris-Foulkes estimate   =     -31.53858644 Ry
     estimated scf accuracy    <       0.06163171 Ry

     iteration # 18     ecut=    30.00 Ry     beta=0.70
     Davidson diagonalization with overlap
     ethr =  3.19E-04,  avg # of iterations =  1.0

     negative rho (up, down):  4.375E-08 0.000E+00

     total cpu time spent up to now is        2.9 secs

     total energy              =     -31.53578180 Ry
     Harris-Foulkes estimate   =     -31.53598380 Ry
     estimated scf accuracy    <       0.00413385 Ry

     iteration # 19     ecut=    30.00 Ry     beta=0.70
     Davidson diagonalization with overlap
     ethr =  5.17E-05,  avg # of iterations =  3.0

     total cpu time spent up to now is        2.9 secs

     total energy              =     -31.53587150 Ry
     Harris-Foulkes estimate   =     -31.53593224 Ry
     estimated scf accuracy    <       0.00201413 Ry

     iteration # 20     ecut=    30.00 Ry     beta=0.70
     Davidson diagonalization with overlap
     ethr =  2.52E-05,  avg # of iterations =  4.0

     total cpu time spent up to now is        3.0 secs

     total energy              =     -31.53588260 Ry
     Harris-Foulkes estimate   =     -31.53589756 Ry
     estimated scf accuracy    <       0.00037738 Ry

     iteration # 21     ecut=    30.00 Ry     beta=0.70
     Davidson diagonalization with overlap
     ethr =  4.72E-06,  avg # of iterations =  9.0

     total cpu time spent up to now is        3.1 secs

     total energy              =     -31.53588017 Ry
     Harris-Foulkes estimate   =     -31.53589061 Ry
     estimated scf accuracy    <       0.00019701 Ry

     iteration # 22     ecut=    30.00 Ry     beta=0.70
     Davidson diagonalization with overlap
     ethr =  2.46E-06,  avg # of iterations =  1.0

     total cpu time spent up to now is        3.1 secs

     total energy              =     -31.53588275 Ry
     Harris-Foulkes estimate   =     -31.53588405 Ry
     estimated scf accuracy    <       0.00000834 Ry

     iteration # 23     ecut=    30.00 Ry     beta=0.70
     Davidson diagonalization with overlap
     ethr =  1.04E-07,  avg # of iterations =  1.0

     total cpu time spent up to now is        3.1 secs

     total energy              =     -31.53588264 Ry
     Harris-Foulkes estimate   =     -31.53588298 Ry
     estimated scf accuracy    <       0.00000285 Ry

     iteration # 24     ecut=    30.00 Ry     beta=0.70
     Davidson diagonalization with overlap
     ethr =  3.57E-08,  avg # of iterations =  1.0

     total cpu time spent up to now is        3.2 secs

     total energy              =     -31.53588272 Ry
     Harris-Foulkes estimate   =     -31.53588275 Ry
     estimated scf accuracy    <       0.00000056 Ry

     iteration # 25     ecut=    30.00 Ry     beta=0.70
     Davidson diagonalization with overlap
     ethr =  7.04E-09,  avg # of iterations =  1.0

     total cpu time spent up to now is        3.2 secs

     total energy              =     -31.53588276 Ry
     Harris-Foulkes estimate   =     -31.53588273 Ry
     estimated scf accuracy    <       0.00000009 Ry

     iteration # 26     ecut=    30.00 Ry     beta=0.70
     Davidson diagonalization with overlap
     ethr =  1.11E-09,  avg # of iterations =  1.0

     total cpu time spent up to now is        3.3 secs

     End of self-consistent calculation

          k = 0.0000 0.0000 0.0000 ( 22119 PWs)   bands (ev):

   -23.6458  -7.4760  -7.0166  -7.0161  -6.9012  -6.5532  -0.1695   0.6446

     the Fermi energy is    -6.8697 ev

!    total energy              =     -31.53588276 Ry
     Harris-Foulkes estimate   =     -31.53588276 Ry
     estimated scf accuracy    <          1.8E-09 Ry

     convergence has been achieved in  26 iterations

     Forces acting on atoms (Ry/au):

     atom    1 type  2   force =     0.00609038   -0.00759720   -0.04428966
     atom    2 type  1   force =     0.00030049   -0.00033922    0.00004104
     atom    3 type  1   force =    -0.00639087    0.00793643    0.04424861

     Total force =     0.064174     Total SCF correction =     0.000040

     Entering Dynamics:    iteration =     2
                           time      =   0.0097 pico-seconds


     Andersen thermostat:    3 collisions

ATOMIC_POSITIONS (bohr)
O       16.572772709   4.259640203   9.095330487
H       16.509724396  14.932427960  -2.276244069
H       17.329752029   3.307682182   4.583497624


     kinetic energy (Ekin) =     0.01073149 Ry
     temperature           =   564.78859967 K 
     Ekin + Etot (const)   =   -31.52515127 Ry
     Message from routine dynamics:
     Total linear momentum <> 0

     Linear momentum :    0.2755830086   -0.1521829783    0.0987400027

     Writing output data file pwscf.save

     first order wave-functions extrapolation
     Message from extrapolate_wfcs: 
     the matrix <psi(t-dt)|psi(t)> has  1 small (< 0.1) eigenvalues
     Check: negative starting charge=   -0.344055
     first order charge density extrapolation
     Check: negative starting charge=   -0.344401

     negative rho (up, down):  5.018E-01 0.000E+00

     total cpu time spent up to now is        3.7 secs

     per-process dynamical memory:    20.4 Mb

     Self-consistent Calculation

     iteration #  1     ecut=    30.00 Ry     beta=0.70
     Davidson diagonalization with overlap
     ethr =  1.00E-06,  avg # of iterations = 11.0

     negative rho (up, down):  1.241E-01 0.000E+00

     total cpu time spent up to now is        3.9 secs

     total energy              =      27.02773508 Ry
     Harris-Foulkes estimate   =    -136.86686125 Ry
     estimated scf accuracy    <      17.18731128 Ry

     iteration #  2     ecut=    30.00 Ry     beta=0.70
     Davidson diagonalization with overlap
     ethr =  1.00E-02,  avg # of iterations =  7.0

     negative rho (up, down):  7.789E-02 0.000E+00

     total cpu time spent up to now is        4.0 secs

     total energy              =     -33.84587367 Ry
     Harris-Foulkes estimate   =     -41.74041777 Ry
     estimated scf accuracy    <      16.19022843 Ry

     iteration #  3     ecut=    30.00 Ry     beta=0.70
     Davidson diagonalization with overlap
     ethr =  1.00E-02,  avg # of iterations =  2.0

     negative rho (up, down):  7.062E-02 0.000E+00

     total cpu time spent up to now is        4.0 secs

     total energy              =     -33.23978940 Ry
     Harris-Foulkes estimate   =     -34.48897369 Ry
     estimated scf accuracy    <       7.88519913 Ry

     iteration #  4     ecut=    30.00 Ry     beta=0.70
     Davidson diagonalization with overlap
     ethr =  1.00E-02,  avg # of iterations =  1.0

     negative rho (up, down):  4.262E-02 0.000E+00

     total cpu time spent up to now is        4.1 secs

     total energy              =     -31.95491856 Ry
     Harris-Foulkes estimate   =     -33.80858657 Ry
     estimated scf accuracy    <       4.70924107 Ry

     iteration #  5     ecut=    30.00 Ry     beta=0.70
     Davidson diagonalization with overlap
     ethr =  1.00E-02,  avg # of iterations =  1.0

     negative rho (up, down):  1.596E-02 0.000E+00

     total cpu time spent up to now is        4.1 secs

     total energy              =     -31.07323002 Ry
     Harris-Foulkes estimate   =     -32.00640687 Ry
     estimated scf accuracy    <       2.05324908 Ry

     iteration #  6     ecut=    30.00 Ry     beta=0.70
     Davidson diagonalization with overlap
     ethr =  1.00E-02,  avg # of iterations =  4.0

     negative rho (up, down):  2.013E-02 0.000E+00

     total cpu time spent up to now is        4.2 secs

     total energy              =     -31.66204588 Ry
     Harris-Foulkes estimate   =     -31.94549219 Ry
     estimated scf accuracy    <       2.00041624 Ry

     iteration #  7     ecut=    30.00 Ry     beta=0.70
     Davidson diagonalization with overlap
     ethr =  1.00E-02,  avg # of iterations =  1.0

     negative rho (up, down):  2.136E-02 0.000E+00

     total cpu time spent up to now is        4.2 secs

     total energy              =     -31.73066488 Ry
     Harris-Foulkes estimate   =     -31.71850200 Ry
     estimated scf accuracy    <       1.25649781 Ry

     iteration #  8     ecut=    30.00 Ry     beta=0.70
     Davidson diagonalization with overlap
     ethr =  1.00E-02,  avg # of iterations =  1.0

     negative rho (up, down):  1.961E-02 0.000E+00

     total cpu time spent up to now is        4.3 secs

     total energy              =     -31.70750933 Ry
     Harris-Foulkes estimate   =     -31.73147748 Ry
     estimated scf accuracy    <       1.26351211 Ry

     iteration #  9     ecut=    30.00 Ry     beta=0.70
     Davidson diagonalization with overlap
     ethr =  1.00E-02,  avg # of iterations =  1.0

     negative rho (up, down):  1.426E-02 0.000E+00

     total cpu time spent up to now is        4.3 secs

     total energy              =     -31.49337132 Ry
     Harris-Foulkes estimate   =     -31.70854002 Ry
     estimated scf accuracy    <       1.21320075 Ry

     iteration # 10     ecut=    30.00 Ry     beta=0.70
     Davidson diagonalization with overlap
     ethr =  1.00E-02,  avg # of iterations =  1.0

     negative rho (up, down):  4.050E-02 0.000E+00

     total cpu time spent up to now is        4.4 secs

     total energy              =     -33.58678362 Ry
     Harris-Foulkes estimate   =     -31.55170712 Ry
     estimated scf accuracy    <       1.46238807 Ry

     iteration # 11     ecut=    30.00 Ry     beta=0.70
     Davidson diagonalization with overlap
     ethr =  1.00E-02,  avg # of iterations =  3.0

     negative rho (up, down):  4.875E-02 0.000E+00

     total cpu time spent up to now is        4.4 secs

     total energy              =     160.62787542 Ry
     Harris-Foulkes estimate   =     -36.25923557 Ry
     estimated scf accuracy    <       6.40246255 Ry

     iteration # 12     ecut=    30.00 Ry     beta=0.70
     Davidson diagonalization with overlap
     ethr =  1.00E-02,  avg # of iterations =  3.0

     negative rho (up, down):  5.746E-02 0.000E+00

     total cpu time spent up to now is        4.5 secs

     total energy              =     -35.09824337 Ry
     Harris-Foulkes estimate   =     -32.84883752 Ry
     estimated scf accuracy    <       3.77259636 Ry

     iteration # 13     ecut=    30.00 Ry     beta=0.70
     Davidson diagonalization with overlap
     ethr =  1.00E-02,  avg # of iterations =  4.0

     negative rho (up, down):  2.162E-01 0.000E+00

     total cpu time spent up to now is        4.6 secs

     total energy              =    -114.58902099 Ry
     Harris-Foulkes estimate   =     -44.81916511 Ry
     estimated scf accuracy    <       6.63344675 Ry

     iteration # 14     ecut=    30.00 Ry     beta=0.70
     Davidson diagonalization with overlap
     ethr =  1.00E-02,  avg # of iterations =  5.0

     negative rho (up, down):  2.222E-01 0.000E+00

     total cpu time spent up to now is        4.6 secs

     total energy              =    -129.21419418 Ry
     Harris-Foulkes estimate   =    -450.80356646 Ry
     estimated scf accuracy    <      29.16346326 Ry

     iteration # 15     ecut=    30.00 Ry     beta=0.70
     Davidson diagonalization with overlap
     ethr =  1.00E-02,  avg # of iterations =  7.0

     negative rho (up, down):  5.207E-02 0.000E+00

     total cpu time spent up to now is        4.7 secs

     total energy              =      -4.79479873 Ry
     Harris-Foulkes estimate   =    -222.41277935 Ry
     estimated scf accuracy    <      25.70122435 Ry

     iteration # 16     ecut=    30.00 Ry     beta=0.70
     Davidson diagonalization with overlap
     ethr =  1.00E-02,  avg # of iterations =  6.0

     negative rho (up, down):  6.243E-02 0.000E+00

     total cpu time spent up to now is        4.8 secs

     total energy              =      -5.40758826 Ry
     Harris-Foulkes estimate   =    -115.49414651 Ry
     estimated scf accuracy    <      18.64920502 Ry

     iteration # 17     ecut=    30.00 Ry     beta=0.70
     Davidson diagonalization with overlap
     ethr =  1.00E-02,  avg # of iterations =  4.0

     negative rho (up, down):  2.938E-02 0.000E+00

     total cpu time spent up to now is        4.8 secs

     total energy              =    -253.15535219 Ry
     Harris-Foulkes estimate   =    -485.38247138 Ry
     estimated scf accuracy    <      20.31839252 Ry

     iteration # 18     ecut=    30.00 Ry     beta=0.70
     Davidson diagonalization with overlap
     ethr =  1.00E-02,  avg # of iterations =  3.0

     negative rho (up, down):  2.708E-02 0.000E+00

     total cpu time spent up to now is        4.9 secs

     total energy              =     -44.37532158 Ry
     Harris-Foulkes estimate   =    -388.91460712 Ry
     estimated scf accuracy    <      15.04634477 Ry

     iteration # 19     ecut=    30.00 Ry     beta=0.70
     Davidson diagonalization with overlap
     ethr =  1.00E-02,  avg # of iterations =  3.0

     negative rho (up, down):  2.746E-01 0.000E+00

     total cpu time spent up to now is        5.0 secs

     total energy              =       3.43832345 Ry
     Harris-Foulkes estimate   =    -338.92830339 Ry
     estimated scf accuracy    <      14.92113134 Ry

     iteration # 20     ecut=    30.00 Ry     beta=0.70
     Davidson diagonalization with overlap
     ethr =  1.00E-02,  avg # of iterations =  5.0

     negative rho (up, down):  2.893E-01 0.000E+00

     total cpu time spent up to now is        5.0 secs

     total energy              =    -132.38653593 Ry
     Harris-Foulkes estimate   =    -185.06572241 Ry
     estimated scf accuracy    <      21.18439332 Ry

     iteration # 21     ecut=    30.00 Ry     beta=0.70
     Davidson diagonalization with overlap
     ethr =  1.00E-02,  avg # of iterations =  8.0

     negative rho (up, down):  5.743E-01 0.000E+00

     total cpu time spent up to now is        5.1 secs

     total energy              =    -424.34770268 Ry
     Harris-Foulkes estimate   =   -1275.98569701 Ry
     estimated scf accuracy    <      19.91534228 Ry

     iteration # 22     ecut=    30.00 Ry     beta=0.70
     Davidson diagonalization with overlap
     ethr =  1.00E-02,  avg # of iterations =  8.0

     negative rho (up, down):  5.307E-01 0.000E+00

     total cpu time spent up to now is        5.2 secs

     total energy              =     -93.72984298 Ry
     Harris-Foulkes estimate   =   -3118.94987712 Ry
     estimated scf accuracy    <      29.62440147 Ry

     iteration # 23     ecut=    30.00 Ry     beta=0.70
     Davidson diagonalization with overlap
     ethr =  1.00E-02,  avg # of iterations =  7.0

     negative rho (up, down):  8.219E-01 0.000E+00

     total cpu time spent up to now is        5.3 secs

     total energy              =    -100.44335543 Ry
     Harris-Foulkes estimate   =   -5584.17065210 Ry
     estimated scf accuracy    <      31.67468634 Ry

     iteration # 24     ecut=    30.00 Ry     beta=0.70
     Davidson diagonalization with overlap
     ethr =  1.00E-02,  avg # of iterations =  9.0

     negative rho (up, down):  8.476E-01 0.000E+00

     total cpu time spent up to now is        5.4 secs

     total energy              =      85.58045307 Ry
     Harris-Foulkes estimate   =   -6632.64259351 Ry
     estimated scf accuracy    <      19.24167366 Ry

     iteration # 25     ecut=    30.00 Ry     beta=0.70
     Davidson diagonalization with overlap
     ethr =  1.00E-02,  avg # of iterations =  7.0

     negative rho (up, down):  3.685E-01 0.000E+00

     total cpu time spent up to now is        5.5 secs

     total energy              =      34.01085668 Ry
     Harris-Foulkes estimate   =   -1374.93199103 Ry
     estimated scf accuracy    <      17.11812979 Ry

     iteration # 26     ecut=    30.00 Ry     beta=0.70
     Davidson diagonalization with overlap
     ethr =  1.00E-02,  avg # of iterations =  4.0

     negative rho (up, down):  2.346E-01 0.000E+00

     total cpu time spent up to now is        5.5 secs

     total energy              =      21.40442261 Ry
     Harris-Foulkes estimate   =    -433.83139544 Ry
     estimated scf accuracy    <      13.41360546 Ry

     iteration # 27     ecut=    30.00 Ry     beta=0.70
     Davidson diagonalization with overlap
     ethr =  1.00E-02,  avg # of iterations =  7.0

     negative rho (up, down):  2.569E-01 0.000E+00

     total cpu time spent up to now is        5.6 secs

     total energy              =      32.84056309 Ry
     Harris-Foulkes estimate   =   -1980.58918431 Ry
     estimated scf accuracy    <      18.17688842 Ry

     iteration # 28     ecut=    30.00 Ry     beta=0.70
     Davidson diagonalization with overlap
     ethr =  1.00E-02,  avg # of iterations =  5.0

     negative rho (up, down):  2.106E-01 0.000E+00

     total cpu time spent up to now is        5.7 secs

     total energy              =      14.72386504 Ry
     Harris-Foulkes estimate   =   -1683.62000576 Ry
     estimated scf accuracy    <      26.09812059 Ry

     iteration # 29     ecut=    30.00 Ry     beta=0.70
     Davidson diagonalization with overlap
     ethr =  1.00E-02,  avg # of iterations =  6.0

     negative rho (up, down):  1.671E-01 0.000E+00

     total cpu time spent up to now is        5.8 secs

     total energy              =     281.26438088 Ry
     Harris-Foulkes estimate   =    -202.15158189 Ry
     estimated scf accuracy    <      16.89163722 Ry

     iteration # 30     ecut=    30.00 Ry     beta=0.70
     Davidson diagonalization with overlap
     ethr =  1.00E-02,  avg # of iterations =  5.0

     negative rho (up, down):  1.088E-01 0.000E+00

     total cpu time spent up to now is        5.8 secs

     total energy              =      42.86760365 Ry
     Harris-Foulkes estimate   =   -1430.42204258 Ry
     estimated scf accuracy    <      19.41570887 Ry

     iteration # 31     ecut=    30.00 Ry     beta=0.70
     Davidson diagonalization with overlap
     ethr =  1.00E-02,  avg # of iterations =  4.0

     negative rho (up, down):  2.053E-02 0.000E+00

     total cpu time spent up to now is        5.9 secs

     total energy              =      79.07459812 Ry
     Harris-Foulkes estimate   =   -2700.60815935 Ry
     estimated scf accuracy    <      11.44150093 Ry

     iteration # 32     ecut=    30.00 Ry     beta=0.70
     Davidson diagonalization with overlap
     ethr =  1.00E-02,  avg # of iterations =  5.0

     negative rho (up, down):  1.554E-02 0.000E+00

     total cpu time spent up to now is        6.0 secs

     total energy              =     -37.25272068 Ry
     Harris-Foulkes estimate   =     -46.85586672 Ry
     estimated scf accuracy    <      18.39862835 Ry

     iteration # 33     ecut=    30.00 Ry     beta=0.70
     Davidson diagonalization with overlap
     ethr =  1.00E-02,  avg # of iterations =  4.0

     negative rho (up, down):  5.915E-02 0.000E+00

     total cpu time spent up to now is        6.0 secs

     total energy              =     -43.29549448 Ry
     Harris-Foulkes estimate   =     -46.57080408 Ry
     estimated scf accuracy    <      15.77192751 Ry

     iteration # 34     ecut=    30.00 Ry     beta=0.70
     Davidson diagonalization with overlap
     ethr =  1.00E-02,  avg # of iterations =  5.0

     negative rho (up, down):  2.579E-01 0.000E+00

     total cpu time spent up to now is        6.1 secs

     total energy              =      -2.14909531 Ry
     Harris-Foulkes estimate   =    -364.11971391 Ry
     estimated scf accuracy    <      13.82436981 Ry

     iteration # 35     ecut=    30.00 Ry     beta=0.70
     Davidson diagonalization with overlap
     ethr =  1.00E-02,  avg # of iterations =  4.0

     negative rho (up, down):  3.302E-01 0.000E+00

     total cpu time spent up to now is        6.2 secs

     total energy              =     -16.45525709 Ry
     Harris-Foulkes estimate   =     -50.96619782 Ry
     estimated scf accuracy    <      14.48358406 Ry

     iteration # 36     ecut=    30.00 Ry     beta=0.70
     Davidson diagonalization with overlap
     ethr =  1.00E-02,  avg # of iterations =  4.0

     negative rho (up, down):  4.657E-01 0.000E+00

     total cpu time spent up to now is        6.2 secs

     total energy              =     -45.05681353 Ry
     Harris-Foulkes estimate   =     -42.14165582 Ry
     estimated scf accuracy    <      15.18157626 Ry

     iteration # 37     ecut=    30.00 Ry     beta=0.70
     Davidson diagonalization with overlap
     ethr =  1.00E-02,  avg # of iterations =  6.0

     negative rho (up, down):  3.446E-01 0.000E+00

     total cpu time spent up to now is        6.3 secs

     total energy              =     -38.82926547 Ry
     Harris-Foulkes estimate   =    -542.08464902 Ry
     estimated scf accuracy    <      26.46112497 Ry

     iteration # 38     ecut=    30.00 Ry     beta=0.70
     Davidson diagonalization with overlap
     ethr =  1.00E-02,  avg # of iterations =  8.0

     negative rho (up, down):  2.981E-01 0.000E+00

     total cpu time spent up to now is        6.4 secs

     total energy              =      16.36805791 Ry
     Harris-Foulkes estimate   =    -382.10552130 Ry
     estimated scf accuracy    <      12.48935861 Ry

     iteration # 39     ecut=    30.00 Ry     beta=0.70
     Davidson diagonalization with overlap
     ethr =  1.00E-02,  avg # of iterations =  5.0

     negative rho (up, down):  2.274E-01 0.000E+00

     total cpu time spent up to now is        6.5 secs

     total energy              =      30.08669076 Ry
     Harris-Foulkes estimate   =    -865.58881131 Ry
     estimated scf accuracy    <      16.41448158 Ry

     iteration # 40     ecut=    30.00 Ry     beta=0.70
     Davidson diagonalization with overlap
     ethr =  1.00E-02,  avg # of iterations =  4.0

     negative rho (up, down):  2.314E-01 0.000E+00

     total cpu time spent up to now is        6.5 secs

     total energy              =     -48.89249228 Ry
     Harris-Foulkes estimate   =    -132.38201874 Ry
     estimated scf accuracy    <      18.20013871 Ry

     iteration # 41     ecut=    30.00 Ry     beta=0.70
     Davidson diagonalization with overlap
     ethr =  1.00E-02,  avg # of iterations =  4.0

     negative rho (up, down):  2.293E-01 0.000E+00

     total cpu time spent up to now is        6.6 secs

     total energy              =      11.18048861 Ry
     Harris-Foulkes estimate   =   -8064.91492385 Ry
     estimated scf accuracy    <      10.99061609 Ry

     iteration # 42     ecut=    30.00 Ry     beta=0.70
     Davidson diagonalization with overlap
     ethr =  1.00E-02,  avg # of iterations =  7.0

     total cpu time spent up to now is        6.7 secs

     total energy              =      62.60188395 Ry
     Harris-Foulkes estimate   =    -157.60901290 Ry
     estimated scf accuracy    <      35.49015116 Ry

     iteration # 43     ecut=    30.00 Ry     beta=0.70
     Davidson diagonalization with overlap
     ethr =  1.00E-02,  avg # of iterations =  6.0

     negative rho (up, down):  1.065E-04 0.000E+00

     total cpu time spent up to now is        6.8 secs

     total energy              =     -37.17233968 Ry
     Harris-Foulkes estimate   =     -38.61862976 Ry
     estimated scf accuracy    <      13.43841344 Ry

     iteration # 44     ecut=    30.00 Ry     beta=0.70
     Davidson diagonalization with overlap
     ethr =  1.00E-02,  avg # of iterations =  2.0

     negative rho (up, down):  5.596E-02 0.000E+00

     total cpu time spent up to now is        6.8 secs

     total energy              =      60.15639833 Ry
     Harris-Foulkes estimate   =     -37.91059014 Ry
     estimated scf accuracy    <      12.90967657 Ry

     iteration # 45     ecut=    30.00 Ry     beta=0.70
     Davidson diagonalization with overlap
     ethr =  1.00E-02,  avg # of iterations =  8.0

     total cpu time spent up to now is        6.9 secs

     total energy              =      41.01739097 Ry
     Harris-Foulkes estimate   =    -307.77967377 Ry
     estimated scf accuracy    <      19.27041404 Ry

     iteration # 46     ecut=    30.00 Ry     beta=0.70
     Davidson diagonalization with overlap
     ethr =  1.00E-02,  avg # of iterations =  5.0

     negative rho (up, down):  1.717E-03 0.000E+00

     total cpu time spent up to now is        7.0 secs

     total energy              =     -35.70201393 Ry
     Harris-Foulkes estimate   =     -36.94343843 Ry
     estimated scf accuracy    <      10.68651026 Ry

     iteration # 47     ecut=    30.00 Ry     beta=0.70
     Davidson diagonalization with overlap
     ethr =  1.00E-02,  avg # of iterations =  3.0

     total cpu time spent up to now is        7.0 secs

     total energy              =     -25.08010649 Ry
     Harris-Foulkes estimate   =     -37.86030561 Ry
     estimated scf accuracy    <      11.58019604 Ry

     iteration # 48     ecut=    30.00 Ry     beta=0.70
     Davidson diagonalization with overlap
     ethr =  1.00E-02,  avg # of iterations =  3.0

     negative rho (up, down):  4.439E-02 0.000E+00

     total cpu time spent up to now is        7.1 secs

     total energy              =     -43.66559799 Ry
     Harris-Foulkes estimate   =     -35.17251374 Ry
     estimated scf accuracy    <       8.53793312 Ry

     iteration # 49     ecut=    30.00 Ry     beta=0.70
     Davidson diagonalization with overlap
     ethr =  1.00E-02,  avg # of iterations =  7.0

     negative rho (up, down):  2.105E-02 0.000E+00

     total cpu time spent up to now is        7.2 secs

     total energy              =      49.99909376 Ry
     Harris-Foulkes estimate   =    -509.93454178 Ry
     estimated scf accuracy    <      19.99030177 Ry

     iteration # 50     ecut=    30.00 Ry     beta=0.70
     Davidson diagonalization with overlap
     ethr =  1.00E-02,  avg # of iterations =  6.0

     negative rho (up, down):  1.182E-04 0.000E+00

     total cpu time spent up to now is        7.3 secs

     total energy              =      50.72388249 Ry
     Harris-Foulkes estimate   =    -136.91035343 Ry
     estimated scf accuracy    <      16.58179862 Ry

     iteration # 51     ecut=    30.00 Ry     beta=0.70
     Davidson diagonalization with overlap
     ethr =  1.00E-02,  avg # of iterations =  6.0

     negative rho (up, down):  2.299E-02 0.000E+00

     total cpu time spent up to now is        7.3 secs

     total energy              =     -33.22860703 Ry
     Harris-Foulkes estimate   =     -34.07017802 Ry
     estimated scf accuracy    <       6.21123284 Ry

     iteration # 52     ecut=    30.00 Ry     beta=0.70
     Davidson diagonalization with overlap
     ethr =  1.00E-02,  avg # of iterations =  4.0

     total cpu time spent up to now is        7.4 secs

     total energy              =      -4.46142953 Ry
     Harris-Foulkes estimate   =     -41.30071560 Ry
     estimated scf accuracy    <      12.70447154 Ry

     iteration # 53     ecut=    30.00 Ry     beta=0.70
     Davidson diagonalization with overlap
     ethr =  1.00E-02,  avg # of iterations =  4.0

     negative rho (up, down):  4.268E-04 0.000E+00

     total cpu time spent up to now is        7.5 secs

     total energy              =     -33.35338060 Ry
     Harris-Foulkes estimate   =     -33.63072049 Ry
     estimated scf accuracy    <       4.10826096 Ry

     iteration # 54     ecut=    30.00 Ry     beta=0.70
     Davidson diagonalization with overlap
     ethr =  1.00E-02,  avg # of iterations =  2.0

     negative rho (up, down):  5.902E-03 0.000E+00

     total cpu time spent up to now is        7.5 secs

     total energy              =     -31.26299452 Ry
     Harris-Foulkes estimate   =     -33.70651767 Ry
     estimated scf accuracy    <       4.36926217 Ry

     iteration # 55     ecut=    30.00 Ry     beta=0.70
     Davidson diagonalization with overlap
     ethr =  1.00E-02,  avg # of iterations =  4.0

     total cpu time spent up to now is        7.6 secs

     total energy              =     -30.62729677 Ry
     Harris-Foulkes estimate   =     -32.74468657 Ry
     estimated scf accuracy    <       2.94545811 Ry

     iteration # 56     ecut=    30.00 Ry     beta=0.70
     Davidson diagonalization with overlap
     ethr =  1.00E-02,  avg # of iterations =  4.0

     total cpu time spent up to now is        7.6 secs

     total energy              =     -32.09555599 Ry
     Harris-Foulkes estimate   =     -32.46346279 Ry
     estimated scf accuracy    <       4.78695836 Ry

     iteration # 57     ecut=    30.00 Ry     beta=0.70
     Davidson diagonalization with overlap
     ethr =  1.00E-02,  avg # of iterations =  1.0

     negative rho (up, down):  1.574E-03 0.000E+00

     total cpu time spent up to now is        7.7 secs

     total energy              =     -31.91325846 Ry
     Harris-Foulkes estimate   =     -32.30341149 Ry
     estimated scf accuracy    <       2.77151450 Ry

     iteration # 58     ecut=    30.00 Ry     beta=0.70
     Davidson diagonalization with overlap
     ethr =  1.00E-02,  avg # of iterations =  2.0

     negative rho (up, down):  1.169E-05 0.000E+00

     total cpu time spent up to now is        7.7 secs

     total energy              =     -31.78804206 Ry
     Harris-Foulkes estimate   =     -32.11796465 Ry
     estimated scf accuracy    <       2.33339414 Ry

     iteration # 59     ecut=    30.00 Ry     beta=0.70
     Davidson diagonalization with overlap
     ethr =  1.00E-02,  avg # of iterations =  1.0

     negative rho (up, down):  2.311E-03 0.000E+00

     total cpu time spent up to now is        7.8 secs

     total energy              =     -31.80598236 Ry
     Harris-Foulkes estimate   =     -31.87407569 Ry
     estimated scf accuracy    <       1.22800729 Ry

     iteration # 60     ecut=    30.00 Ry     beta=0.70
     Davidson diagonalization with overlap
     ethr =  1.00E-02,  avg # of iterations =  2.0

     negative rho (up, down):  1.436E-03 0.000E+00

     total cpu time spent up to now is        7.8 secs

     total energy              =     -31.14215529 Ry
     Harris-Foulkes estimate   =     -32.08993729 Ry
     estimated scf accuracy    <       2.47625023 Ry

     iteration # 61     ecut=    30.00 Ry     beta=0.70
     Davidson diagonalization with overlap
     ethr =  1.00E-02,  avg # of iterations =  2.0

     negative rho (up, down):  8.211E-03 0.000E+00

     total cpu time spent up to now is        7.9 secs

     total energy              =     -31.49589403 Ry
     Harris-Foulkes estimate   =     -31.81694732 Ry
     estimated scf accuracy    <       3.15631947 Ry

     iteration # 62     ecut=    30.00 Ry     beta=0.70
     Davidson diagonalization with overlap
     ethr =  1.00E-02,  avg # of iterations =  3.0

     negative rho (up, down):  1.386E-07 0.000E+00

     total cpu time spent up to now is        7.9 secs

     total energy              =     -30.72984782 Ry
     Harris-Foulkes estimate   =     -32.05241690 Ry
     estimated scf accuracy    <       0.87269957 Ry

     iteration # 63     ecut=    30.00 Ry     beta=0.70
     Davidson diagonalization with overlap
     ethr =  1.00E-02,  avg # of iterations =  2.0

     negative rho (up, down):  3.176E-07 0.000E+00

     total cpu time spent up to now is        8.0 secs

     total energy              =     -31.57153189 Ry
     Harris-Foulkes estimate   =     -31.61196495 Ry
     estimated scf accuracy    <       0.92642065 Ry

     iteration # 64     ecut=    30.00 Ry     beta=0.70
     Davidson diagonalization with overlap
     ethr =  1.00E-02,  avg # of iterations =  1.0

     negative rho (up, down):  3.120E-06 0.000E+00

     total cpu time spent up to now is        8.0 secs

     total energy              =     -31.57588729 Ry
     Harris-Foulkes estimate   =     -31.58229392 Ry
     estimated scf accuracy    <       0.13700200 Ry

     iteration # 65     ecut=    30.00 Ry     beta=0.70
     Davidson diagonalization with overlap
     ethr =  1.71E-03,  avg # of iterations =  1.0

     negative rho (up, down):  3.757E-05 0.000E+00

     total cpu time spent up to now is        8.1 secs

     total energy              =     -31.56175193 Ry
     Harris-Foulkes estimate   =     -31.57878007 Ry
     estimated scf accuracy    <       0.32529808 Ry

     iteration # 66     ecut=    30.00 Ry     beta=0.70
     Davidson diagonalization with overlap
     ethr =  1.71E-03,  avg # of iterations =  1.0

     negative rho (up, down):  1.306E-06 0.000E+00

     total cpu time spent up to now is        8.1 secs

     total energy              =     -31.57096890 Ry
     Harris-Foulkes estimate   =     -31.57211811 Ry
     estimated scf accuracy    <       0.10429741 Ry

     iteration # 67     ecut=    30.00 Ry     beta=0.70
     Davidson diagonalization with overlap
     ethr =  1.30E-03,  avg # of iterations =  1.0

     negative rho (up, down):  2.981E-07 0.000E+00

     total cpu time spent up to now is        8.2 secs

     total energy              =     -31.57361792 Ry
     Harris-Foulkes estimate   =     -31.57412311 Ry
     estimated scf accuracy    <       0.01547953 Ry

     iteration # 68     ecut=    30.00 Ry     beta=0.70
     Davidson diagonalization with overlap
     ethr =  1.93E-04,  avg # of iterations =  5.0

     negative rho (up, down):  2.973E-08 0.000E+00

     total cpu time spent up to now is        8.2 secs

     total energy              =     -31.57432984 Ry
     Harris-Foulkes estimate   =     -31.57407083 Ry
     estimated scf accuracy    <       0.00253044 Ry

     iteration # 69     ecut=    30.00 Ry     beta=0.70
     Davidson diagonalization with overlap
     ethr =  3.16E-05,  avg # of iterations =  3.0

     total cpu time spent up to now is        8.3 secs

     total energy              =     -31.57452275 Ry
     Harris-Foulkes estimate   =     -31.57449086 Ry
     estimated scf accuracy    <       0.00443231 Ry

     iteration # 70     ecut=    30.00 Ry     beta=0.70
     Davidson diagonalization with overlap
     ethr =  3.16E-05,  avg # of iterations =  1.0

     total cpu time spent up to now is        8.3 secs

     total energy              =     -31.57466964 Ry
     Harris-Foulkes estimate   =     -31.57460971 Ry
     estimated scf accuracy    <       0.00048734 Ry

     iteration # 71     ecut=    30.00 Ry     beta=0.70
     Davidson diagonalization with overlap
     ethr =  6.09E-06,  avg # of iterations =  1.0

     total cpu time spent up to now is        8.4 secs

     total energy              =     -31.57468903 Ry
     Harris-Foulkes estimate   =     -31.57468932 Ry
     estimated scf accuracy    <       0.00002305 Ry

     iteration # 72     ecut=    30.00 Ry     beta=0.70
     Davidson diagonalization with overlap
     ethr =  2.88E-07,  avg # of iterations = 12.0

     total cpu time spent up to now is        8.4 secs

     total energy              =     -31.57469106 Ry
     Harris-Foulkes estimate   =     -31.57469120 Ry
     estimated scf accuracy    <       0.00000644 Ry

     iteration # 73     ecut=    30.00 Ry     beta=0.70
     Davidson diagonalization with overlap
     ethr =  8.05E-08,  avg # of iterations =  1.0

     total cpu time spent up to now is        8.5 secs

     total energy              =     -31.57469130 Ry
     Harris-Foulkes estimate   =     -31.57469129 Ry
     estimated scf accuracy    <       0.00000006 Ry

     iteration # 74     ecut=    30.00 Ry     beta=0.70
     Davidson diagonalization with overlap
     ethr =  7.24E-10,  avg # of iterations =  2.0

     total cpu time spent up to now is        8.5 secs

     End of self-consistent calculation

          k = 0.0000 0.0000 0.0000 ( 22119 PWs)   bands (ev):

   -23.6192  -7.8226  -6.9414  -6.9410  -6.8081  -6.3014  -0.1548   0.6743

     the Fermi energy is    -6.7742 ev

!    total energy              =     -31.57469144 Ry
     Harris-Foulkes estimate   =     -31.57469131 Ry
     estimated scf accuracy    <          7.8E-09 Ry

     convergence has been achieved in  74 iterations

     Forces acting on atoms (Ry/au):

     atom    1 type  2   force =     0.01185535   -0.01542645   -0.07629403
     atom    2 type  1   force =     0.00036864   -0.00040229    0.00000605
     atom    3 type  1   force =    -0.01222399    0.01582874    0.07628798

     Total force =     0.111443     Total SCF correction =     0.000017

     Entering Dynamics:    iteration =     3
                           time      =   0.0145 pico-seconds


     Andersen thermostat:    3 collisions

ATOMIC_POSITIONS (bohr)
O       16.561871570   4.233788428   9.045787575
H       16.514080896  15.040021331  -2.104425079
H       17.498086842   3.609621885   5.196516842


     kinetic energy (Ekin) =     0.01260792 Ry
     temperature           =   663.54332193 K 
     Ekin + Etot (const)   =   -31.56208353 Ry
     Message from routine dynamics:
     Total linear momentum <> 0

     Linear momentum :   -0.0181970308    0.5177701345    0.0680232121

     Writing output data file pwscf.save

     second order wave-functions extrapolation
     Check: negative starting charge=   -0.344401
     second order charge density extrapolation
     Check: negative starting charge=   -0.345121

     negative rho (up, down):  7.571E-02 0.000E+00

     total cpu time spent up to now is        9.0 secs

     per-process dynamical memory:    20.4 Mb

     Self-consistent Calculation

     iteration #  1     ecut=    30.00 Ry     beta=0.70
     Davidson diagonalization with overlap
     ethr =  1.00E-06,  avg # of iterations = 11.0

     negative rho (up, down):  1.103E-02 0.000E+00

     total cpu time spent up to now is        9.1 secs

     total energy              =       0.98011686 Ry
     Harris-Foulkes estimate   =    -184.98414334 Ry
     estimated scf accuracy    <       5.67235449 Ry

     iteration #  2     ecut=    30.00 Ry     beta=0.70
     Davidson diagonalization with overlap
     ethr =  1.00E-02,  avg # of iterations =  4.0

     negative rho (up, down):  6.872E-03 0.000E+00

     total cpu time spent up to now is        9.2 secs

     total energy              =     -32.07118023 Ry
     Harris-Foulkes estimate   =     -34.76952317 Ry
     estimated scf accuracy    <       5.87311647 Ry

     iteration #  3     ecut=    30.00 Ry     beta=0.70
     Davidson diagonalization with overlap
     ethr =  1.00E-02,  avg # of iterations =  2.0

     negative rho (up, down):  6.189E-03 0.000E+00

     total cpu time spent up to now is        9.2 secs

     total energy              =     -32.16509282 Ry
     Harris-Foulkes estimate   =     -33.08503042 Ry
     estimated scf accuracy    <       4.52982940 Ry

     iteration #  4     ecut=    30.00 Ry     beta=0.70
     Davidson diagonalization with overlap
     ethr =  1.00E-02,  avg # of iterations =  2.0

     negative rho (up, down):  4.710E-03 0.000E+00

     total cpu time spent up to now is        9.3 secs

     total energy              =     -31.95434461 Ry
     Harris-Foulkes estimate   =     -32.25008383 Ry
     estimated scf accuracy    <       1.30501522 Ry

     iteration #  5     ecut=    30.00 Ry     beta=0.70
     Davidson diagonalization with overlap
     ethr =  1.00E-02,  avg # of iterations =  1.0

     negative rho (up, down):  3.506E-03 0.000E+00

     total cpu time spent up to now is        9.3 secs

     total energy              =     -31.63967968 Ry
     Harris-Foulkes estimate   =     -32.00479714 Ry
     estimated scf accuracy    <       2.16945447 Ry

     iteration #  6     ecut=    30.00 Ry     beta=0.70
     Davidson diagonalization with overlap
     ethr =  1.00E-02,  avg # of iterations =  1.0

     negative rho (up, down):  2.286E-03 0.000E+00

     total cpu time spent up to now is        9.4 secs

     total energy              =     -31.79968478 Ry
     Harris-Foulkes estimate   =     -31.96416660 Ry
     estimated scf accuracy    <       1.55300533 Ry

     iteration #  7     ecut=    30.00 Ry     beta=0.70
     Davidson diagonalization with overlap
     ethr =  1.00E-02,  avg # of iterations =  1.0

     negative rho (up, down):  2.393E-03 0.000E+00

     total cpu time spent up to now is        9.4 secs

     total energy              =     -31.71548260 Ry
     Harris-Foulkes estimate   =     -31.81382036 Ry
     estimated scf accuracy    <       1.43881934 Ry

     iteration #  8     ecut=    30.00 Ry     beta=0.70
     Davidson diagonalization with overlap
     ethr =  1.00E-02,  avg # of iterations =  1.0

     negative rho (up, down):  1.516E-03 0.000E+00

     total cpu time spent up to now is        9.5 secs

     total energy              =     -31.63071020 Ry
     Harris-Foulkes estimate   =     -31.73182146 Ry
     estimated scf accuracy    <       0.84303752 Ry

     iteration #  9     ecut=    30.00 Ry     beta=0.70
     Davidson diagonalization with overlap
     ethr =  1.00E-02,  avg # of iterations =  1.0

     negative rho (up, down):  1.093E-03 0.000E+00

     total cpu time spent up to now is        9.5 secs

     total energy              =     -31.63431335 Ry
     Harris-Foulkes estimate   =     -31.64973106 Ry
     estimated scf accuracy    <       0.10810805 Ry

     iteration # 10     ecut=    30.00 Ry     beta=0.70
     Davidson diagonalization with overlap
     ethr =  1.35E-03,  avg # of iterations =  1.0

     negative rho (up, down):  2.781E-05 0.000E+00

     total cpu time spent up to now is        9.6 secs

     total energy              =     -31.63321581 Ry
     Harris-Foulkes estimate   =     -31.63598644 Ry
     estimated scf accuracy    <       0.05684983 Ry

     iteration # 11     ecut=    30.00 Ry     beta=0.70
     Davidson diagonalization with overlap
     ethr =  7.11E-04,  avg # of iterations =  2.0

     negative rho (up, down):  7.682E-05 0.000E+00

     total cpu time spent up to now is        9.6 secs

     total energy              =     -31.66329048 Ry
     Harris-Foulkes estimate   =     -31.66836034 Ry
     estimated scf accuracy    <       0.69406006 Ry

     iteration # 12     ecut=    30.00 Ry     beta=0.70
     Davidson diagonalization with overlap
     ethr =  7.11E-04,  avg # of iterations =  1.0

     negative rho (up, down):  1.248E-05 0.000E+00

     total cpu time spent up to now is        9.6 secs

     total energy              =     -31.67330548 Ry
     Harris-Foulkes estimate   =     -31.66632237 Ry
     estimated scf accuracy    <       0.81941576 Ry

     iteration # 13     ecut=    30.00 Ry     beta=0.70
     Davidson diagonalization with overlap
     ethr =  7.11E-04,  avg # of iterations =  1.0

     negative rho (up, down):  1.810E-07 0.000E+00

     total cpu time spent up to now is        9.7 secs

     total energy              =     -31.65583313 Ry
     Harris-Foulkes estimate   =     -31.67493479 Ry
     estimated scf accuracy    <       0.93783176 Ry

     iteration # 14     ecut=    30.00 Ry     beta=0.70
     Davidson diagonalization with overlap
     ethr =  7.11E-04,  avg # of iterations =  1.0

     negative rho (up, down):  9.142E-06 0.000E+00

     total cpu time spent up to now is        9.7 secs

     total energy              =     -31.56711377 Ry
     Harris-Foulkes estimate   =     -31.65713058 Ry
     estimated scf accuracy    <       0.72214785 Ry

     iteration # 15     ecut=    30.00 Ry     beta=0.70
     Davidson diagonalization with overlap
     ethr =  7.11E-04,  avg # of iterations =  1.0

     negative rho (up, down):  8.913E-06 0.000E+00

     total cpu time spent up to now is        9.8 secs

     total energy              =     -31.67127988 Ry
     Harris-Foulkes estimate   =     -31.72416575 Ry
     estimated scf accuracy    <       1.68214200 Ry

     iteration # 16     ecut=    30.00 Ry     beta=0.70
     Davidson diagonalization with overlap
     ethr =  7.11E-04,  avg # of iterations =  1.0

     negative rho (up, down):  7.241E-06 0.000E+00

     total cpu time spent up to now is        9.8 secs

     total energy              =     -31.64607744 Ry
     Harris-Foulkes estimate   =     -31.66787030 Ry
     estimated scf accuracy    <       1.69969153 Ry

     iteration # 17     ecut=    30.00 Ry     beta=0.70
     Davidson diagonalization with overlap
     ethr =  7.11E-04,  avg # of iterations =  1.0

     negative rho (up, down):  2.212E-08 0.000E+00

     total cpu time spent up to now is        9.9 secs

     total energy              =     -31.59865024 Ry
     Harris-Foulkes estimate   =     -31.65040125 Ry
     estimated scf accuracy    <       0.57394321 Ry

     iteration # 18     ecut=    30.00 Ry     beta=0.70
     Davidson diagonalization with overlap
     ethr =  7.11E-04,  avg # of iterations =  1.0

     total cpu time spent up to now is        9.9 secs

     total energy              =     -31.67582310 Ry
     Harris-Foulkes estimate   =     -31.66860614 Ry
     estimated scf accuracy    <       0.92234126 Ry

     iteration # 19     ecut=    30.00 Ry     beta=0.70
     Davidson diagonalization with overlap
     ethr =  7.11E-04,  avg # of iterations =  1.0

     total cpu time spent up to now is       10.0 secs

     total energy              =     -31.69002826 Ry
     Harris-Foulkes estimate   =     -31.67608464 Ry
     estimated scf accuracy    <       0.98231320 Ry

     iteration # 20     ecut=    30.00 Ry     beta=0.70
     Davidson diagonalization with overlap
     ethr =  7.11E-04,  avg # of iterations =  1.0

     total cpu time spent up to now is       10.0 secs

     total energy              =     -31.69502813 Ry
     Harris-Foulkes estimate   =     -31.69007371 Ry
     estimated scf accuracy    <       1.01256340 Ry

     iteration # 21     ecut=    30.00 Ry     beta=0.70
     Davidson diagonalization with overlap
     ethr =  7.11E-04,  avg # of iterations =  1.0

     total cpu time spent up to now is       10.1 secs

     total energy              =     -31.70906348 Ry
     Harris-Foulkes estimate   =     -31.69503157 Ry
     estimated scf accuracy    <       1.02115833 Ry

     iteration # 22     ecut=    30.00 Ry     beta=0.70
     Davidson diagonalization with overlap
     ethr =  7.11E-04,  avg # of iterations =  1.0

     total cpu time spent up to now is       10.1 secs

     total energy              =     -31.70117785 Ry
     Harris-Foulkes estimate   =     -31.70907143 Ry
     estimated scf accuracy    <       1.04357688 Ry

     iteration # 23     ecut=    30.00 Ry     beta=0.70
     Davidson diagonalization with overlap
     ethr =  7.11E-04,  avg # of iterations =  1.0

     total cpu time spent up to now is       10.2 secs

     total energy              =     -31.69119737 Ry
     Harris-Foulkes estimate   =     -31.70117909 Ry
     estimated scf accuracy    <       1.03234345 Ry

     iteration # 24     ecut=    30.00 Ry     beta=0.70
     Davidson diagonalization with overlap
     ethr =  7.11E-04,  avg # of iterations =  1.0

     negative rho (up, down):  9.282E-06 0.000E+00

     total cpu time spent up to now is       10.2 secs

     total energy              =     -31.96890838 Ry
     Harris-Foulkes estimate   =     -31.69120418 Ry
     estimated scf accuracy    <       1.01435254 Ry

     iteration # 25     ecut=    30.00 Ry     beta=0.70
     Davidson diagonalization with overlap
     ethr =  7.11E-04,  avg # of iterations =  3.0

     negative rho (up, down):  3.594E-07 0.000E+00

     total cpu time spent up to now is       10.3 secs

     total energy              =     -31.15561355 Ry
     Harris-Foulkes estimate   =     -31.97097050 Ry
     estimated scf accuracy    <       1.45249349 Ry

     iteration # 26     ecut=    30.00 Ry     beta=0.70
     Davidson diagonalization with overlap
     ethr =  7.11E-04,  avg # of iterations =  5.0

     negative rho (up, down):  1.013E-05 0.000E+00

     total cpu time spent up to now is       10.3 secs

     total energy              =     -32.38696253 Ry
     Harris-Foulkes estimate   =     -32.48890011 Ry
     estimated scf accuracy    <       2.82367657 Ry

     iteration # 27     ecut=    30.00 Ry     beta=0.70
     Davidson diagonalization with overlap
     ethr =  7.11E-04,  avg # of iterations =  1.0

     total cpu time spent up to now is       10.4 secs

     total energy              =     -31.49282920 Ry
     Harris-Foulkes estimate   =     -32.38737640 Ry
     estimated scf accuracy    <       2.61639801 Ry

     iteration # 28     ecut=    30.00 Ry     beta=0.70
     Davidson diagonalization with overlap
     ethr =  7.11E-04,  avg # of iterations =  5.0

     total cpu time spent up to now is       10.4 secs

     total energy              =     -31.53093635 Ry
     Harris-Foulkes estimate   =     -31.70081730 Ry
     estimated scf accuracy    <       1.01230842 Ry

     iteration # 29     ecut=    30.00 Ry     beta=0.70
     Davidson diagonalization with overlap
     ethr =  7.11E-04,  avg # of iterations =  2.0

     total cpu time spent up to now is       10.5 secs

     total energy              =     -31.73267949 Ry
     Harris-Foulkes estimate   =     -31.73493468 Ry
     estimated scf accuracy    <       1.34420844 Ry

     iteration # 30     ecut=    30.00 Ry     beta=0.70
     Davidson diagonalization with overlap
     ethr =  7.11E-04,  avg # of iterations =  1.0

     total cpu time spent up to now is       10.5 secs

     total energy              =     -31.72120228 Ry
     Harris-Foulkes estimate   =     -31.73270899 Ry
     estimated scf accuracy    <       1.33779141 Ry

     iteration # 31     ecut=    30.00 Ry     beta=0.70
     Davidson diagonalization with overlap
     ethr =  7.11E-04,  avg # of iterations =  1.0

     total cpu time spent up to now is       10.6 secs

     total energy              =     -31.72614170 Ry
     Harris-Foulkes estimate   =     -31.72121108 Ry
     estimated scf accuracy    <       1.31835105 Ry

     iteration # 32     ecut=    30.00 Ry     beta=0.70
     Davidson diagonalization with overlap
     ethr =  7.11E-04,  avg # of iterations =  1.0

     total cpu time spent up to now is       10.6 secs

     total energy              =     -31.61506000 Ry
     Harris-Foulkes estimate   =     -31.72614731 Ry
     estimated scf accuracy    <       1.32275401 Ry

     iteration # 33     ecut=    30.00 Ry     beta=0.70
     Davidson diagonalization with overlap
     ethr =  7.11E-04,  avg # of iterations =  1.0

     total cpu time spent up to now is       10.7 secs

     total energy              =     -31.64018767 Ry
     Harris-Foulkes estimate   =     -31.63790271 Ry
     estimated scf accuracy    <       0.11031285 Ry

     iteration # 34     ecut=    30.00 Ry     beta=0.70
     Davidson diagonalization with overlap
     ethr =  7.11E-04,  avg # of iterations =  1.0

     total cpu time spent up to now is       10.7 secs

     total energy              =     -31.63852055 Ry
     Harris-Foulkes estimate   =     -31.64098249 Ry
     estimated scf accuracy    <       0.30172487 Ry

     iteration # 35     ecut=    30.00 Ry     beta=0.70
     Davidson diagonalization with overlap
     ethr =  7.11E-04,  avg # of iterations =  1.0

     total cpu time spent up to now is       10.8 secs

     total energy              =     -31.63557501 Ry
     Harris-Foulkes estimate   =     -31.63880525 Ry
     estimated scf accuracy    <       0.17389399 Ry

     iteration # 36     ecut=    30.00 Ry     beta=0.70
     Davidson diagonalization with overlap
     ethr =  7.11E-04,  avg # of iterations =  1.0

     total cpu time spent up to now is       10.8 secs

     total energy              =     -31.63601270 Ry
     Harris-Foulkes estimate   =     -31.63658837 Ry
     estimated scf accuracy    <       0.02084563 Ry

     iteration # 37     ecut=    30.00 Ry     beta=0.70
     Davidson diagonalization with overlap
     ethr =  2.61E-04,  avg # of iterations =  1.0

     total cpu time spent up to now is       10.9 secs

     total energy              =     -31.63636841 Ry
     Harris-Foulkes estimate   =     -31.63631917 Ry
     estimated scf accuracy    <       0.00016207 Ry

     iteration # 38     ecut=    30.00 Ry     beta=0.70
     Davidson diagonalization with overlap
     ethr =  2.03E-06,  avg # of iterations = 15.0

     total cpu time spent up to now is       10.9 secs

     total energy              =     -31.63680612 Ry
     Harris-Foulkes estimate   =     -31.63672379 Ry
     estimated scf accuracy    <       0.03359727 Ry

     iteration # 39     ecut=    30.00 Ry     beta=0.70
     Davidson diagonalization with overlap
     ethr =  2.03E-06,  avg # of iterations =  1.0

     total cpu time spent up to now is       11.0 secs

     total energy              =     -31.63614271 Ry
     Harris-Foulkes estimate   =     -31.63681030 Ry
     estimated scf accuracy    <       0.04063750 Ry

     iteration # 40     ecut=    30.00 Ry     beta=0.70
     Davidson diagonalization with overlap
     ethr =  2.03E-06,  avg # of iterations =  1.0

     total cpu time spent up to now is       11.0 secs

     total energy              =     -31.63631755 Ry
     Harris-Foulkes estimate   =     -31.63636494 Ry
     estimated scf accuracy    <       0.00437658 Ry

     iteration # 41     ecut=    30.00 Ry     beta=0.70
     Davidson diagonalization with overlap
     ethr =  2.03E-06,  avg # of iterations =  1.0

     total cpu time spent up to now is       11.1 secs

     total energy              =     -31.63626399 Ry
     Harris-Foulkes estimate   =     -31.63632743 Ry
     estimated scf accuracy    <       0.00143039 Ry

     iteration # 42     ecut=    30.00 Ry     beta=0.70
     Davidson diagonalization with overlap
     ethr =  2.03E-06,  avg # of iterations =  1.0

     total cpu time spent up to now is       11.1 secs

     total energy              =     -31.63631745 Ry
     Harris-Foulkes estimate   =     -31.63631911 Ry
     estimated scf accuracy    <       0.00082660 Ry

     iteration # 43     ecut=    30.00 Ry     beta=0.70
     Davidson diagonalization with overlap
     ethr =  2.03E-06,  avg # of iterations =  1.0

     total cpu time spent up to now is       11.2 secs

     total energy              =     -31.63631318 Ry
     Harris-Foulkes estimate   =     -31.63631752 Ry
     estimated scf accuracy    <       0.00070730 Ry

     iteration # 44     ecut=    30.00 Ry     beta=0.70
     Davidson diagonalization with overlap
     ethr =  2.03E-06,  avg # of iterations =  1.0

     total cpu time spent up to now is       11.2 secs

     total energy              =     -31.63630114 Ry
     Harris-Foulkes estimate   =     -31.63631397 Ry
     estimated scf accuracy    <       0.00035130 Ry

     iteration # 45     ecut=    30.00 Ry     beta=0.70
     Davidson diagonalization with overlap
     ethr =  2.03E-06,  avg # of iterations =  1.0

     total cpu time spent up to now is       11.3 secs

     total energy              =     -31.63630676 Ry
     Harris-Foulkes estimate   =     -31.63630712 Ry
     estimated scf accuracy    <       0.00000979 Ry

     iteration # 46     ecut=    30.00 Ry     beta=0.70
     Davidson diagonalization with overlap
     ethr =  1.22E-07,  avg # of iterations =  1.0

     total cpu time spent up to now is       11.3 secs

     End of self-consistent calculation

          k = 0.0000 0.0000 0.0000 ( 22119 PWs)   bands (ev):

   -23.5992  -8.1844  -6.9207  -6.9205  -6.7863  -5.6250  -0.1362   0.7116

     the Fermi energy is    -6.7520 ev

!    total energy              =     -31.63630666 Ry
     Harris-Foulkes estimate   =     -31.63630692 Ry
     estimated scf accuracy    <          4.9E-09 Ry

     convergence has been achieved in  46 iterations

     Forces acting on atoms (Ry/au):

     atom    1 type  2   force =     0.02418581   -0.01586475   -0.10271776
     atom    2 type  1   force =     0.00033458   -0.00043011   -0.00008730
     atom    3 type  1   force =    -0.02452039    0.01629486    0.10280506

     Total force =     0.151075     Total SCF correction =     0.000046

     Entering Dynamics:    iteration =     4
                           time      =   0.0194 pico-seconds


     Andersen thermostat:    3 collisions

ATOMIC_POSITIONS (bohr)
O       16.561944338   4.230611826   8.971187738
H       16.812923920  15.440304074  -2.158053923
H       17.198091054   3.259661536   6.431925282


     kinetic energy (Ekin) =     0.04516545 Ry
     temperature           =  2377.01736634 K 
     Ekin + Etot (const)   =   -31.59114121 Ry
     Message from routine dynamics:
     Total linear momentum <> 0

     Linear momentum :   -0.2045413904    0.1046829438   -0.1942342660

     Writing output data file pwscf.save

     second order wave-functions extrapolation
     Check: negative starting charge=   -0.345121
     second order charge density extrapolation
     Check: negative starting charge=   -0.347649

     negative rho (up, down):  2.989E-01 0.000E+00

     total cpu time spent up to now is       11.8 secs

     per-process dynamical memory:    20.4 Mb

     Self-consistent Calculation

     iteration #  1     ecut=    30.00 Ry     beta=0.70
     Davidson diagonalization with overlap
     ethr =  1.00E-06,  avg # of iterations = 17.0

     negative rho (up, down):  4.147E-02 0.000E+00

     total cpu time spent up to now is       11.9 secs

     total energy              =      28.27456638 Ry
     Harris-Foulkes estimate   =     -58.11261860 Ry
     estimated scf accuracy    <      24.85835224 Ry

     iteration #  2     ecut=    30.00 Ry     beta=0.70
     Davidson diagonalization with overlap
     ethr =  1.00E-02,  avg # of iterations =  4.0

     negative rho (up, down):  2.681E-02 0.000E+00

     total cpu time spent up to now is       12.0 secs

     total energy              =     -35.57689712 Ry
     Harris-Foulkes estimate   =     -49.26209303 Ry
     estimated scf accuracy    <      27.18322184 Ry

     iteration #  3     ecut=    30.00 Ry     beta=0.70
     Davidson diagonalization with overlap
     ethr =  1.00E-02,  avg # of iterations =  3.0

     negative rho (up, down):  1.702E-02 0.000E+00

     total cpu time spent up to now is       12.0 secs

     total energy              =     -32.65838183 Ry
[...]
     Harris-Foulkes estimate   =   -3965.91708580 Ry
     estimated scf accuracy    <      25.15263532 Ry

     iteration # 59     ecut=    30.00 Ry     beta=0.70
     Davidson diagonalization with overlap
     ethr =  1.00E-02,  avg # of iterations = 12.0

     negative rho (up, down):  2.242E-01 0.000E+00

     total cpu time spent up to now is       19.5 secs

     total energy              =    -509.67570919 Ry
     Harris-Foulkes estimate   =   -6546.70704161 Ry
     estimated scf accuracy    <      27.68815627 Ry

     iteration # 60     ecut=    30.00 Ry     beta=0.70
     Davidson diagonalization with overlap
     ethr =  1.00E-02,  avg # of iterations =  6.0

     negative rho (up, down):  2.742E-01 0.000E+00

     total cpu time spent up to now is       19.5 secs

     total energy              =      94.51729317 Ry
     Harris-Foulkes estimate   =  -20499.31559190 Ry
     estimated scf accuracy    <      23.10585325 Ry

     iteration # 61     ecut=    30.00 Ry     beta=0.70
     Davidson diagonalization with overlap
     ethr =  1.00E-02,  avg # of iterations =  9.0

     negative rho (up, down):  2.669E-01 0.000E+00

     total cpu time spent up to now is       19.6 secs

     total energy              =      71.29452041 Ry
     Harris-Foulkes estimate   =    -377.31875238 Ry
     estimated scf accuracy    <      20.67045952 Ry

     iteration # 62     ecut=    30.00 Ry     beta=0.70
     Davidson diagonalization with overlap
     ethr =  1.00E-02,  avg # of iterations =  8.0

     negative rho (up, down):  7.609E-03 0.000E+00

     total cpu time spent up to now is       19.7 secs

     total energy              =      17.62961968 Ry
     Harris-Foulkes estimate   =    -128.86219935 Ry
     estimated scf accuracy    <      18.13183157 Ry

     iteration # 63     ecut=    30.00 Ry     beta=0.70
     Davidson diagonalization with overlap
     ethr =  1.00E-02,  avg # of iterations =  7.0

     negative rho (up, down):  3.659E-02 0.000E+00

     total cpu time spent up to now is       19.8 secs

     total energy              =      -7.70628986 Ry
     Harris-Foulkes estimate   =    -146.39427129 Ry
     estimated scf accuracy    <      10.62196874 Ry

     iteration # 64     ecut=    30.00 Ry     beta=0.70
     Davidson diagonalization with overlap
     ethr =  1.00E-02,  avg # of iterations =  5.0

     negative rho (up, down):  2.656E-02 0.000E+00

     total cpu time spent up to now is       19.9 secs

     total energy              =     -91.53437373 Ry
     Harris-Foulkes estimate   =     -42.58169338 Ry
     estimated scf accuracy    <       9.08772885 Ry

     iteration # 65     ecut=    30.00 Ry     beta=0.70
     Davidson diagonalization with overlap
     ethr =  1.00E-02,  avg # of iterations =  6.0

     negative rho (up, down):  8.265E-03 0.000E+00

     total cpu time spent up to now is       20.0 secs

     total energy              =    -135.46458739 Ry
     Harris-Foulkes estimate   =    -362.21749273 Ry
     estimated scf accuracy    <      15.91474486 Ry

     iteration # 66     ecut=    30.00 Ry     beta=0.70
     Davidson diagonalization with overlap
     ethr =  1.00E-02,  avg # of iterations =  5.0

     negative rho (up, down):  1.179E-02 0.000E+00

     total cpu time spent up to now is       20.0 secs

     total energy              =      52.14097198 Ry
     Harris-Foulkes estimate   =   -1962.19886233 Ry
     estimated scf accuracy    <      15.08852888 Ry

     iteration # 67     ecut=    30.00 Ry     beta=0.70
     Davidson diagonalization with overlap
     ethr =  1.00E-02,  avg # of iterations =  5.0

     negative rho (up, down):  2.335E-03 0.000E+00

     total cpu time spent up to now is       20.1 secs

     total energy              =     -12.16452776 Ry
     Harris-Foulkes estimate   =     -55.10535184 Ry
     estimated scf accuracy    <       8.65028815 Ry

     iteration # 68     ecut=    30.00 Ry     beta=0.70
     Davidson diagonalization with overlap
     ethr =  1.00E-02,  avg # of iterations =  4.0

     negative rho (up, down):  7.137E-04 0.000E+00

     total cpu time spent up to now is       20.2 secs

     total energy              =     -29.50393897 Ry
     Harris-Foulkes estimate   =     -30.04145460 Ry
     estimated scf accuracy    <       5.14816009 Ry

     iteration # 69     ecut=    30.00 Ry     beta=0.70
     Davidson diagonalization with overlap
     ethr =  1.00E-02,  avg # of iterations =  1.0

     negative rho (up, down):  2.860E-02 0.000E+00

     total cpu time spent up to now is       20.2 secs

     total energy              =     -30.89699676 Ry
     Harris-Foulkes estimate   =     -29.60231258 Ry
     estimated scf accuracy    <       4.34184138 Ry

     iteration # 70     ecut=    30.00 Ry     beta=0.70
     Davidson diagonalization with overlap
     ethr =  1.00E-02,  avg # of iterations =  3.0

     negative rho (up, down):  7.815E-02 0.000E+00

     total cpu time spent up to now is       20.3 secs

     total energy              =    -184.44537675 Ry
     Harris-Foulkes estimate   =     -49.08063298 Ry
     estimated scf accuracy    <       7.56176270 Ry

     iteration # 71     ecut=    30.00 Ry     beta=0.70
     Davidson diagonalization with overlap
     ethr =  1.00E-02,  avg # of iterations =  4.0

     negative rho (up, down):  7.892E-02 0.000E+00

     total cpu time spent up to now is       20.3 secs

     total energy              =       6.53669389 Ry
     Harris-Foulkes estimate   =    -356.14643267 Ry
     estimated scf accuracy    <      13.49886068 Ry

     iteration # 72     ecut=    30.00 Ry     beta=0.70
     Davidson diagonalization with overlap
     ethr =  1.00E-02,  avg # of iterations =  4.0

     negative rho (up, down):  1.053E-01 0.000E+00

     total cpu time spent up to now is       20.4 secs

     total energy              =     -34.89456770 Ry
     Harris-Foulkes estimate   =     -64.43804475 Ry
     estimated scf accuracy    <       4.49455571 Ry

     iteration # 73     ecut=    30.00 Ry     beta=0.70
     Davidson diagonalization with overlap
     ethr =  1.00E-02,  avg # of iterations =  5.0

     negative rho (up, down):  7.514E-02 0.000E+00

     total cpu time spent up to now is       20.5 secs

     total energy              =     -64.32178373 Ry
     Harris-Foulkes estimate   =     -79.48489077 Ry
     estimated scf accuracy    <       9.36688244 Ry

     iteration # 74     ecut=    30.00 Ry     beta=0.70
     Davidson diagonalization with overlap
     ethr =  1.00E-02,  avg # of iterations =  4.0

     negative rho (up, down):  6.815E-02 0.000E+00

     total cpu time spent up to now is       20.5 secs

     total energy              =      -0.30334219 Ry
     Harris-Foulkes estimate   =    -126.23836574 Ry
     estimated scf accuracy    <       6.99198883 Ry

     iteration # 75     ecut=    30.00 Ry     beta=0.70
     Davidson diagonalization with overlap
     ethr =  1.00E-02,  avg # of iterations =  3.0

     negative rho (up, down):  4.310E-02 0.000E+00

     total cpu time spent up to now is       20.6 secs

     total energy              =     -36.88746409 Ry
     Harris-Foulkes estimate   =     -29.43995830 Ry
     estimated scf accuracy    <       2.50155785 Ry

     iteration # 76     ecut=    30.00 Ry     beta=0.70
     Davidson diagonalization with overlap
     ethr =  1.00E-02,  avg # of iterations =  4.0

     negative rho (up, down):  7.106E-02 0.000E+00

     total cpu time spent up to now is       20.6 secs

     total energy              =      16.87808931 Ry
     Harris-Foulkes estimate   =    -115.85873031 Ry
     estimated scf accuracy    <      11.15256615 Ry

     iteration # 77     ecut=    30.00 Ry     beta=0.70
     Davidson diagonalization with overlap
     ethr =  1.00E-02,  avg # of iterations =  4.0

     negative rho (up, down):  3.025E-02 0.000E+00

     total cpu time spent up to now is       20.7 secs

     total energy              =     -28.05213169 Ry
     Harris-Foulkes estimate   =     -31.02980951 Ry
     estimated scf accuracy    <       3.62405097 Ry

     iteration # 78     ecut=    30.00 Ry     beta=0.70
     Davidson diagonalization with overlap
     ethr =  1.00E-02,  avg # of iterations =  3.0

     negative rho (up, down):  5.005E-02 0.000E+00

     total cpu time spent up to now is       20.8 secs

     total energy              =     -24.88809818 Ry
     Harris-Foulkes estimate   =     -31.64478195 Ry
     estimated scf accuracy    <       1.91286954 Ry

     iteration # 79     ecut=    30.00 Ry     beta=0.70
     Davidson diagonalization with overlap
     ethr =  1.00E-02,  avg # of iterations =  3.0

     negative rho (up, down):  4.356E-02 0.000E+00

     total cpu time spent up to now is       20.8 secs

     total energy              =    7797.46688249 Ry
     Harris-Foulkes estimate   =     -29.21877188 Ry
     estimated scf accuracy    <       0.91833372 Ry

     iteration # 80     ecut=    30.00 Ry     beta=0.70
     Davidson diagonalization with overlap
     ethr =  1.00E-02,  avg # of iterations =  3.0

     negative rho (up, down):  4.867E-02 0.000E+00

     total cpu time spent up to now is       20.9 secs

     total energy              =       3.82046282 Ry
     Harris-Foulkes estimate   =   -1885.26386128 Ry
     estimated scf accuracy    <       4.29377686 Ry

     iteration # 81     ecut=    30.00 Ry     beta=0.70
     Davidson diagonalization with overlap
     ethr =  1.00E-02,  avg # of iterations =  4.0

     negative rho (up, down):  3.004E-02 0.000E+00

     total cpu time spent up to now is       20.9 secs

     total energy              =    -221.96787585 Ry
     Harris-Foulkes estimate   =     -30.46375182 Ry
     estimated scf accuracy    <       2.52700825 Ry

     iteration # 82     ecut=    30.00 Ry     beta=0.70
     Davidson diagonalization with overlap
     ethr =  1.00E-02,  avg # of iterations =  3.0

     negative rho (up, down):  3.158E-02 0.000E+00

     total cpu time spent up to now is       21.0 secs

     total energy              =   45806.28662791 Ry
     Harris-Foulkes estimate   =   -1070.16235460 Ry
     estimated scf accuracy    <       4.44456720 Ry

     iteration # 83     ecut=    30.00 Ry     beta=0.70
     Davidson diagonalization with overlap
     ethr =  1.00E-02,  avg # of iterations =  4.0

     negative rho (up, down):  1.620E-02 0.000E+00

     total cpu time spent up to now is       21.1 secs

     total energy              =     -28.43024813 Ry
     Harris-Foulkes estimate   =     -30.39049656 Ry
     estimated scf accuracy    <       1.66847618 Ry

     iteration # 84     ecut=    30.00 Ry     beta=0.70
     Davidson diagonalization with overlap
     ethr =  1.00E-02,  avg # of iterations =  3.0

     negative rho (up, down):  2.642E-02 0.000E+00

     total cpu time spent up to now is       21.1 secs

     total energy              =   -2276.47894732 Ry
     Harris-Foulkes estimate   =    -251.59504089 Ry
     estimated scf accuracy    <       5.90468645 Ry

     iteration # 85     ecut=    30.00 Ry     beta=0.70
     Davidson diagonalization with overlap
     ethr =  1.00E-02,  avg # of iterations =  3.0

     negative rho (up, down):  2.266E-02 0.000E+00

     total cpu time spent up to now is       21.2 secs

     total energy              =       0.75035943 Ry
     Harris-Foulkes estimate   =   -7755.84730912 Ry
     estimated scf accuracy    <       3.65785644 Ry

     iteration # 86     ecut=    30.00 Ry     beta=0.70
     Davidson diagonalization with overlap
     ethr =  1.00E-02,  avg # of iterations =  3.0

     negative rho (up, down):  2.412E-02 0.000E+00

     total cpu time spent up to now is       21.2 secs

     total energy              =     -92.48512257 Ry
     Harris-Foulkes estimate   =     -30.79660801 Ry
     estimated scf accuracy    <       1.90643052 Ry

     iteration # 87     ecut=    30.00 Ry     beta=0.70
     Davidson diagonalization with overlap
     ethr =  1.00E-02,  avg # of iterations =  3.0

     negative rho (up, down):  2.089E-02 0.000E+00

     total cpu time spent up to now is       21.3 secs

     total energy              =     -19.43269033 Ry
     Harris-Foulkes estimate   =    -219.15791744 Ry
     estimated scf accuracy    <       4.36458006 Ry

     iteration # 88     ecut=    30.00 Ry     beta=0.70
     Davidson diagonalization with overlap
     ethr =  1.00E-02,  avg # of iterations =  3.0

     negative rho (up, down):  2.670E-02 0.000E+00

     total cpu time spent up to now is       21.4 secs

     total energy              =     -37.43355844 Ry
     Harris-Foulkes estimate   =     -55.19175835 Ry
     estimated scf accuracy    <       4.48411523 Ry

     iteration # 89     ecut=    30.00 Ry     beta=0.70
     Davidson diagonalization with overlap
     ethr =  1.00E-02,  avg # of iterations =  3.0

     negative rho (up, down):  2.866E-02 0.000E+00

     total cpu time spent up to now is       21.4 secs

     total energy              =    -105.79980948 Ry
     Harris-Foulkes estimate   =     -57.89722994 Ry
     estimated scf accuracy    <       4.47496936 Ry

     iteration # 90     ecut=    30.00 Ry     beta=0.70
     Davidson diagonalization with overlap
     ethr =  1.00E-02,  avg # of iterations =  3.0

     negative rho (up, down):  3.407E-02 0.000E+00

     total cpu time spent up to now is       21.5 secs

     total energy              =      10.17660953 Ry
     Harris-Foulkes estimate   =    -188.96529614 Ry
     estimated scf accuracy    <      10.55527634 Ry

     iteration # 91     ecut=    30.00 Ry     beta=0.70
     Davidson diagonalization with overlap
     ethr =  1.00E-02,  avg # of iterations =  5.0

     negative rho (up, down):  1.222E-02 0.000E+00

     total cpu time spent up to now is       21.5 secs

     total energy              =     -28.24210000 Ry
     Harris-Foulkes estimate   =     -28.46709330 Ry
     estimated scf accuracy    <       1.05099719 Ry

     iteration # 92     ecut=    30.00 Ry     beta=0.70
     Davidson diagonalization with overlap
     ethr =  1.00E-02,  avg # of iterations =  1.0

     negative rho (up, down):  5.656E-03 0.000E+00

     total cpu time spent up to now is       21.6 secs

     total energy              =     -36.36065470 Ry
     Harris-Foulkes estimate   =     -28.29372525 Ry
     estimated scf accuracy    <       0.16137618 Ry

     iteration # 93     ecut=    30.00 Ry     beta=0.70
     Davidson diagonalization with overlap
     ethr =  2.02E-03,  avg # of iterations =  4.0

     negative rho (up, down):  6.438E-03 0.000E+00

     total cpu time spent up to now is       21.6 secs

     total energy              =       9.28371777 Ry
     Harris-Foulkes estimate   =    -219.39269752 Ry
     estimated scf accuracy    <      12.06490627 Ry

     iteration # 94     ecut=    30.00 Ry     beta=0.70
     Davidson diagonalization with overlap
     ethr =  2.02E-03,  avg # of iterations =  7.0

     negative rho (up, down):  4.701E-03 0.000E+00

     total cpu time spent up to now is       21.7 secs

     total energy              =     -10.06725959 Ry
     Harris-Foulkes estimate   =     -28.80955503 Ry
     estimated scf accuracy    <       0.13059164 Ry

     iteration # 95     ecut=    30.00 Ry     beta=0.70
     Davidson diagonalization with overlap
     ethr =  1.63E-03,  avg # of iterations =  4.0

     negative rho (up, down):  5.950E-04 0.000E+00

     total cpu time spent up to now is       21.8 secs

     total energy              =      -4.17240100 Ry
     Harris-Foulkes estimate   =     -57.18438447 Ry
     estimated scf accuracy    <       3.44798031 Ry

     iteration # 96     ecut=    30.00 Ry     beta=0.70
     Davidson diagonalization with overlap
     ethr =  1.63E-03,  avg # of iterations =  4.0

     negative rho (up, down):  1.302E-03 0.000E+00

     total cpu time spent up to now is       21.8 secs

     total energy              =     -12.74367289 Ry
     Harris-Foulkes estimate   =     -33.26491605 Ry
     estimated scf accuracy    <       4.55251034 Ry

     iteration # 97     ecut=    30.00 Ry     beta=0.70
     Davidson diagonalization with overlap
     ethr =  1.63E-03,  avg # of iterations =  7.0

     negative rho (up, down):  2.530E-04 0.000E+00

     total cpu time spent up to now is       21.9 secs

     total energy              =     -28.21108670 Ry
     Harris-Foulkes estimate   =     -28.21577265 Ry
     estimated scf accuracy    <       0.14429999 Ry

     iteration # 98     ecut=    30.00 Ry     beta=0.70
     Davidson diagonalization with overlap
     ethr =  1.63E-03,  avg # of iterations =  1.0

     negative rho (up, down):  9.242E-05 0.000E+00

     total cpu time spent up to now is       22.0 secs

     total energy              =     -28.20465334 Ry
     Harris-Foulkes estimate   =     -28.21273514 Ry
     estimated scf accuracy    <       0.09365194 Ry

     iteration # 99     ecut=    30.00 Ry     beta=0.70
     Davidson diagonalization with overlap
     ethr =  1.17E-03,  avg # of iterations =  1.0

     negative rho (up, down):  1.339E-03 0.000E+00

     total cpu time spent up to now is       22.0 secs

     total energy              =     -28.20252948 Ry
     Harris-Foulkes estimate   =     -28.21048172 Ry
     estimated scf accuracy    <       0.36411937 Ry

     iteration #100     ecut=    30.00 Ry     beta=0.70
     Davidson diagonalization with overlap
     ethr =  1.17E-03,  avg # of iterations =  1.0

     negative rho (up, down):  4.125E-04 0.000E+00

     total cpu time spent up to now is       22.0 secs

     total energy              =     -28.20961455 Ry
     Harris-Foulkes estimate   =     -28.20727198 Ry
     estimated scf accuracy    <       0.05744775 Ry

     End of self-consistent calculation

     convergence NOT achieved after 100 iterations: stopping

     Writing output data file pwscf.save
 
     init_run     :      0.17s CPU      0.19s WALL (       1 calls)
     electrons    :     16.65s CPU     19.76s WALL (       6 calls)
     update_pot   :      1.02s CPU      1.29s WALL (       5 calls)
     forces       :      0.21s CPU      0.21s WALL (       5 calls)

     Called by init_run:
     wfcinit      :      0.01s CPU      0.02s WALL (       1 calls)
     potinit      :      0.05s CPU      0.05s WALL (       1 calls)

     Called by electrons:
     c_bands      :      8.70s CPU      9.03s WALL (     313 calls)
     sum_band     :      1.57s CPU      1.63s WALL (     313 calls)
     v_of_rho     :      3.67s CPU      3.79s WALL (     319 calls)
     mix_rho      :      2.19s CPU      4.36s WALL (     313 calls)

     Called by c_bands:
     init_us_2    :      0.05s CPU      0.06s WALL (     627 calls)
     cegterg      :      8.61s CPU      8.84s WALL (     313 calls)

     Called by sum_band:

     Called by *egterg:
     h_psi        :      7.28s CPU      7.42s WALL (    1459 calls)
     g_psi        :      0.08s CPU      0.09s WALL (    1145 calls)
     cdiaghg      :      0.50s CPU      0.54s WALL (    1453 calls)

     Called by h_psi:
     h_psi:pot    :      7.24s CPU      7.38s WALL (    1459 calls)
     h_psi:calbec :      0.06s CPU      0.07s WALL (    1459 calls)
     vloc_psi     :      7.15s CPU      7.28s WALL (    1459 calls)
     add_vuspsi   :      0.02s CPU      0.02s WALL (    1459 calls)

     General routines
     calbec       :      0.07s CPU      0.09s WALL (    1483 calls)
     fft          :      2.25s CPU      2.33s WALL (    3519 calls)
     fftw         :      7.49s CPU      7.65s WALL (   19444 calls)
     davcio       :      0.37s CPU      1.95s WALL (    5739 calls)
 
     Parallel routines
     fft_scatter  :      2.96s CPU      3.07s WALL (   22963 calls)
 
     PWSCF        :    18.39s CPU        22.17s WALL

 
   This run was terminated on:  17:13:45  13Feb2018            

=------------------------------------------------------------------------------=
   JOB DONE.
=------------------------------------------------------------------------------=
