
     Program PWSCF v.6.0 (svn rev. 13079) starts on 13Feb2018 at 17:23: 2 

     This program is part of the open-source Quantum ESPRESSO suite
     for quantum simulation of materials; please cite
         "P. Giannozzi et al., J. Phys.:Condens. Matter 21 395502 (2009);
          URL http://www.quantum-espresso.org", 
     in publications or presentations arising from this work. More details at
     http://www.quantum-espresso.org/quote

     Parallel version (MPI), running on    28 processors
     R & G space division:  proc/nbgrp/npool/nimage =      28
     Reading input from inputs/MD-H2O-round1/814.in

     Current dimensions of program PWSCF are:
     Max number of different atomic species (ntypx) = 10
     Max number of k-points (npk) =  40000
     Max angular momentum in pseudopotentials (lmaxx) =  3

     Subspace diagonalization in iterative solution of the eigenvalue problem:
     a serial algorithm will be used

 
     Parallelization info
     --------------------
     sticks:   dense  smooth     PW     G-vecs:    dense   smooth      PW
     Min         136     136     33                 6338     6338     787
     Max         137     137     34                 6341     6341     792
     Sum        3809    3809    949               177509   177509   22119
 


     bravais-lattice index     =            1
     lattice parameter (alat)  =      20.0000  a.u.
     unit-cell volume          =    8000.0000 (a.u.)^3
     number of atoms/cell      =            3
     number of atomic types    =            2
     number of electrons       =         8.00
     number of Kohn-Sham states=            8
     kinetic-energy cutoff     =      30.0000  Ry
     charge density cutoff     =     120.0000  Ry
     convergence threshold     =      1.0E-08
     mixing beta               =       0.7000
     number of iterations used =            8  plain     mixing
     Exchange-correlation      = BLYP ( 1  3  1  3 0 0)
     nstep                     =         5000


     celldm(1)=  20.000000  celldm(2)=   0.000000  celldm(3)=   0.000000
     celldm(4)=   0.000000  celldm(5)=   0.000000  celldm(6)=   0.000000

     crystal axes: (cart. coord. in units of alat)
               a(1) = (   1.000000   0.000000   0.000000 )  
               a(2) = (   0.000000   1.000000   0.000000 )  
               a(3) = (   0.000000   0.000000   1.000000 )  

     reciprocal axes: (cart. coord. in units 2 pi/alat)
               b(1) = (  1.000000  0.000000  0.000000 )  
               b(2) = (  0.000000  1.000000  0.000000 )  
               b(3) = (  0.000000  0.000000  1.000000 )  


     PseudoPot. # 1 for  H read from file:
     ./H.blyp-hgh.UPF
     MD5 check sum: c576e69559cde411e611be972c763230
     Pseudo is Norm-conserving, Zval =  1.0
     Generated in analytical, separable form
     Using radial grid of  929 points,  0 beta functions with: 

     PseudoPot. # 2 for  O read from file:
     ./O.blyp-hgh.UPF
     MD5 check sum: d0b7156309aa9befef28faac7bc56342
     Pseudo is Norm-conserving, Zval =  6.0
     Generated in analytical, separable form
     Using radial grid of 1095 points,  1 beta functions with: 
                l(1) =   0

     atomic species   valence    mass     pseudopotential
        H              1.00     1.01000      H( 1.00)
        O              6.00    16.00000      O( 1.00)

     No symmetry found



   Cartesian axes

     site n.     atom                  positions (alat units)
         1           O   tau(   1) = (   0.2384339   0.8602905   0.7062624  )
         2           H   tau(   2) = (   0.3368638   0.8944907   0.3142947  )
         3           H   tau(   3) = (   0.2935528   0.9047321   0.6684336  )

     number of k points=     1  Marzari-Vanderbilt smearing, width (Ry)=  0.0250
                       cart. coord. in units 2pi/alat
        k(    1) = (   0.0000000   0.0000000   0.0000000), wk =   2.0000000

     Dense  grid:   177509 G-vectors     FFT dimensions: (  72,  72,  72)

     Estimated max dynamical RAM per process >       6.09Mb

     Estimated total allocated dynamical RAM >     170.64Mb

     Initial potential from superposition of free atoms
     Check: negative starting charge=   -0.346955

     starting charge    7.99998, renormalised to    8.00000

     negative rho (up, down):  3.470E-01 0.000E+00
     Starting wfc are    6 randomized atomic wfcs +    2 random wfc

     total cpu time spent up to now is        0.3 secs

     per-process dynamical memory:    18.8 Mb

     Self-consistent Calculation

     iteration #  1     ecut=    30.00 Ry     beta=0.70
     Davidson diagonalization with overlap
     ethr =  1.00E-02,  avg # of iterations =  8.0

     negative rho (up, down):  9.369E-02 0.000E+00

     total cpu time spent up to now is        0.4 secs

     total energy              =     -31.59609269 Ry
     Harris-Foulkes estimate   =     -32.07104171 Ry
     estimated scf accuracy    <       0.49977976 Ry

     iteration #  2     ecut=    30.00 Ry     beta=0.70
     Davidson diagonalization with overlap
     ethr =  6.25E-03,  avg # of iterations =  2.0

     negative rho (up, down):  7.298E-02 0.000E+00

     total cpu time spent up to now is        0.5 secs

     total energy              =     -31.68145028 Ry
     Harris-Foulkes estimate   =     -32.28547282 Ry
     estimated scf accuracy    <       2.08734453 Ry

     iteration #  3     ecut=    30.00 Ry     beta=0.70
     Davidson diagonalization with overlap
     ethr =  6.25E-03,  avg # of iterations =  2.0

     negative rho (up, down):  2.686E-02 0.000E+00

     total cpu time spent up to now is        0.5 secs

     total energy              =     -31.66799537 Ry
     Harris-Foulkes estimate   =     -31.82340188 Ry
     estimated scf accuracy    <       0.96610161 Ry

     iteration #  4     ecut=    30.00 Ry     beta=0.70
     Davidson diagonalization with overlap
     ethr =  6.25E-03,  avg # of iterations =  1.0

     negative rho (up, down):  9.492E-03 0.000E+00

     total cpu time spent up to now is        0.6 secs

     total energy              =     -31.71668555 Ry
     Harris-Foulkes estimate   =     -31.96431821 Ry
     estimated scf accuracy    <       1.37506445 Ry

     iteration #  5     ecut=    30.00 Ry     beta=0.70
     Davidson diagonalization with overlap
     ethr =  6.25E-03,  avg # of iterations =  1.0

     negative rho (up, down):  9.593E-04 0.000E+00

     total cpu time spent up to now is        0.6 secs

     total energy              =     -31.83915322 Ry
     Harris-Foulkes estimate   =     -31.91036468 Ry
     estimated scf accuracy    <       0.90671679 Ry

     iteration #  6     ecut=    30.00 Ry     beta=0.70
     Davidson diagonalization with overlap
     ethr =  6.25E-03,  avg # of iterations =  1.0

     negative rho (up, down):  6.035E-04 0.000E+00

     total cpu time spent up to now is        0.7 secs

     total energy              =     -31.82165301 Ry
     Harris-Foulkes estimate   =     -31.84526224 Ry
     estimated scf accuracy    <       0.20236525 Ry

     iteration #  7     ecut=    30.00 Ry     beta=0.70
     Davidson diagonalization with overlap
     ethr =  2.53E-03,  avg # of iterations =  1.0

     negative rho (up, down):  3.382E-04 0.000E+00

     total cpu time spent up to now is        0.7 secs

     total energy              =     -31.84892920 Ry
     Harris-Foulkes estimate   =     -31.87057424 Ry
     estimated scf accuracy    <       1.49480075 Ry

     iteration #  8     ecut=    30.00 Ry     beta=0.70
     Davidson diagonalization with overlap
     ethr =  2.53E-03,  avg # of iterations =  1.0

     negative rho (up, down):  9.915E-05 0.000E+00

     total cpu time spent up to now is        0.7 secs

     total energy              =     -31.83694458 Ry
     Harris-Foulkes estimate   =     -31.85163286 Ry
     estimated scf accuracy    <       0.70021392 Ry

     iteration #  9     ecut=    30.00 Ry     beta=0.70
     Davidson diagonalization with overlap
     ethr =  2.53E-03,  avg # of iterations =  1.0

     negative rho (up, down):  4.928E-06 0.000E+00

     total cpu time spent up to now is        0.8 secs

     total energy              =     -31.84127030 Ry
     Harris-Foulkes estimate   =     -31.84247937 Ry
     estimated scf accuracy    <       0.03466676 Ry

     iteration # 10     ecut=    30.00 Ry     beta=0.70
     Davidson diagonalization with overlap
     ethr =  4.33E-04,  avg # of iterations =  1.0

     negative rho (up, down):  5.103E-06 0.000E+00

     total cpu time spent up to now is        0.8 secs

     total energy              =     -31.84187076 Ry
     Harris-Foulkes estimate   =     -31.84208007 Ry
     estimated scf accuracy    <       0.00343785 Ry

     iteration # 11     ecut=    30.00 Ry     beta=0.70
     Davidson diagonalization with overlap
     ethr =  4.30E-05,  avg # of iterations = 12.0

     negative rho (up, down):  1.231E-08 0.000E+00

     total cpu time spent up to now is        0.9 secs

     total energy              =     -31.84214404 Ry
     Harris-Foulkes estimate   =     -31.84208375 Ry
     estimated scf accuracy    <       0.00445844 Ry

     iteration # 12     ecut=    30.00 Ry     beta=0.70
     Davidson diagonalization with overlap
     ethr =  4.30E-05,  avg # of iterations =  1.0

     total cpu time spent up to now is        1.0 secs

     total energy              =     -31.84181690 Ry
     Harris-Foulkes estimate   =     -31.84216124 Ry
     estimated scf accuracy    <       0.01020216 Ry

     iteration # 13     ecut=    30.00 Ry     beta=0.70
     Davidson diagonalization with overlap
     ethr =  4.30E-05,  avg # of iterations =  1.0

     total cpu time spent up to now is        1.0 secs

     total energy              =     -31.84202258 Ry
     Harris-Foulkes estimate   =     -31.84203511 Ry
     estimated scf accuracy    <       0.00068743 Ry

     iteration # 14     ecut=    30.00 Ry     beta=0.70
     Davidson diagonalization with overlap
     ethr =  8.59E-06,  avg # of iterations =  1.0

     total cpu time spent up to now is        1.1 secs

     total energy              =     -31.84202628 Ry
     Harris-Foulkes estimate   =     -31.84202681 Ry
     estimated scf accuracy    <       0.00007937 Ry

     iteration # 15     ecut=    30.00 Ry     beta=0.70
     Davidson diagonalization with overlap
     ethr =  9.92E-07,  avg # of iterations =  1.0

     total cpu time spent up to now is        1.1 secs

     total energy              =     -31.84202545 Ry
     Harris-Foulkes estimate   =     -31.84202639 Ry
     estimated scf accuracy    <       0.00004053 Ry

     iteration # 16     ecut=    30.00 Ry     beta=0.70
     Davidson diagonalization with overlap
     ethr =  5.07E-07,  avg # of iterations =  1.0

     total cpu time spent up to now is        1.2 secs

     total energy              =     -31.84202573 Ry
     Harris-Foulkes estimate   =     -31.84202579 Ry
     estimated scf accuracy    <       0.00000191 Ry

     iteration # 17     ecut=    30.00 Ry     beta=0.70
     Davidson diagonalization with overlap
     ethr =  2.39E-08,  avg # of iterations =  1.0

     total cpu time spent up to now is        1.2 secs

     End of self-consistent calculation

          k = 0.0000 0.0000 0.0000 ( 22119 PWs)   bands (ev):

   -26.2166 -11.1295  -7.2290  -7.2145  -7.0577  -0.4304   0.4452   0.7801

     the Fermi energy is    -7.0429 ev

!    total energy              =     -31.84202578 Ry
     Harris-Foulkes estimate   =     -31.84202576 Ry
     estimated scf accuracy    <          4.4E-09 Ry

     convergence has been achieved in  17 iterations

     Forces acting on atoms (Ry/au):

     atom    1 type  2   force =    -0.41886115   -0.33868592    0.28435399
     atom    2 type  1   force =    -0.00119402   -0.00018175    0.00162132
     atom    3 type  1   force =     0.42005517    0.33886766   -0.28597531

     Total force =     0.862597     Total SCF correction =     0.000024

     Molecular Dynamics Calculation

     Starting temperature  =  1000.00 K

     temperature is controlled by Andersen thermostat
     Collision frequency = 1.0000/timestep
     mass H                =     1.01
     mass O                =    16.00
     Time step             =   100.00 a.u.,  4.8378 femto-seconds

     Entering Dynamics:    iteration =     1
                           time      =   0.0048 pico-seconds


     Andersen thermostat:    3 collisions

ATOMIC_POSITIONS (bohr)
O        4.592817389  17.104926959  14.252408245
H        7.306010694  17.893735126   6.348467055
H        8.088248811  19.688868066  11.291680219


     kinetic energy (Ekin) =     0.03254126 Ry
     temperature           =  1712.61767381 K 
     Ekin + Etot (const)   =   -31.80948452 Ry

     Linear momentum :    0.0000000000   -0.0000000000   -0.0000000000

     Writing output data file pwscf.save
     Check: negative starting charge=   -0.346955
     NEW-OLD atomic charge density approx. for the potential
     Check: negative starting charge=   -0.346474

     negative rho (up, down):  4.699E-01 0.000E+00

     total cpu time spent up to now is        1.7 secs

     per-process dynamical memory:    20.4 Mb

     Self-consistent Calculation

     iteration #  1     ecut=    30.00 Ry     beta=0.70
     Davidson diagonalization with overlap
     ethr =  1.00E-06,  avg # of iterations = 14.0

     negative rho (up, down):  1.155E-01 0.000E+00

     total cpu time spent up to now is        1.9 secs

     total energy              =     -12.39799509 Ry
     Harris-Foulkes estimate   =     -36.64560578 Ry
     estimated scf accuracy    <      10.88336131 Ry

     iteration #  2     ecut=    30.00 Ry     beta=0.70
     Davidson diagonalization with overlap
     ethr =  1.00E-02,  avg # of iterations =  6.0

     negative rho (up, down):  8.005E-02 0.000E+00

     total cpu time spent up to now is        1.9 secs

     total energy              =     -33.20557596 Ry
     Harris-Foulkes estimate   =     -41.72561340 Ry
     estimated scf accuracy    <      19.00306995 Ry

     iteration #  3     ecut=    30.00 Ry     beta=0.70
     Davidson diagonalization with overlap
     ethr =  1.00E-02,  avg # of iterations =  3.0

     negative rho (up, down):  5.592E-02 0.000E+00

     total cpu time spent up to now is        2.0 secs

     total energy              =     -31.57009226 Ry
     Harris-Foulkes estimate   =     -33.75244197 Ry
     estimated scf accuracy    <       6.45564948 Ry

     iteration #  4     ecut=    30.00 Ry     beta=0.70
     Davidson diagonalization with overlap
     ethr =  1.00E-02,  avg # of iterations =  5.0

     negative rho (up, down):  4.986E-02 0.000E+00

     total cpu time spent up to now is        2.1 secs

     total energy              =     -31.63976237 Ry
     Harris-Foulkes estimate   =     -31.97760808 Ry
     estimated scf accuracy    <       1.59649901 Ry

     iteration #  5     ecut=    30.00 Ry     beta=0.70
     Davidson diagonalization with overlap
     ethr =  1.00E-02,  avg # of iterations =  1.0

     negative rho (up, down):  1.460E-02 0.000E+00

     total cpu time spent up to now is        2.1 secs

     total energy              =     -30.94296847 Ry
     Harris-Foulkes estimate   =     -32.12615307 Ry
     estimated scf accuracy    <       3.63296752 Ry

     iteration #  6     ecut=    30.00 Ry     beta=0.70
     Davidson diagonalization with overlap
     ethr =  1.00E-02,  avg # of iterations =  2.0

     negative rho (up, down):  2.383E-02 0.000E+00

     total cpu time spent up to now is        2.2 secs

     total energy              =     -31.60047709 Ry
     Harris-Foulkes estimate   =     -32.22482722 Ry
     estimated scf accuracy    <       4.72284931 Ry

     iteration #  7     ecut=    30.00 Ry     beta=0.70
     Davidson diagonalization with overlap
     ethr =  1.00E-02,  avg # of iterations =  1.0

     negative rho (up, down):  2.319E-02 0.000E+00

     total cpu time spent up to now is        2.2 secs

     total energy              =     -31.67307691 Ry
     Harris-Foulkes estimate   =     -31.65255844 Ry
     estimated scf accuracy    <       1.07325994 Ry

     iteration #  8     ecut=    30.00 Ry     beta=0.70
     Davidson diagonalization with overlap
     ethr =  1.00E-02,  avg # of iterations =  1.0

     negative rho (up, down):  2.321E-02 0.000E+00

     total cpu time spent up to now is        2.3 secs

     total energy              =     -31.75214914 Ry
     Harris-Foulkes estimate   =     -31.67729801 Ry
     estimated scf accuracy    <       1.90792164 Ry

     iteration #  9     ecut=    30.00 Ry     beta=0.70
     Davidson diagonalization with overlap
     ethr =  1.00E-02,  avg # of iterations =  1.0

     negative rho (up, down):  2.325E-02 0.000E+00

     total cpu time spent up to now is        2.3 secs

     total energy              =     -31.80656459 Ry
     Harris-Foulkes estimate   =     -31.78937951 Ry
     estimated scf accuracy    <       3.81950802 Ry

     iteration # 10     ecut=    30.00 Ry     beta=0.70
     Davidson diagonalization with overlap
     ethr =  1.00E-02,  avg # of iterations =  1.0

     negative rho (up, down):  1.297E-03 0.000E+00

     total cpu time spent up to now is        2.4 secs

     total energy              =     -32.67316886 Ry
     Harris-Foulkes estimate   =     -31.80655875 Ry
     estimated scf accuracy    <       3.83023803 Ry

     iteration # 11     ecut=    30.00 Ry     beta=0.70
     Davidson diagonalization with overlap
     ethr =  1.00E-02,  avg # of iterations =  2.0

     negative rho (up, down):  2.621E-03 0.000E+00

     total cpu time spent up to now is        2.4 secs

     total energy              =     -32.40659308 Ry
     Harris-Foulkes estimate   =     -32.77191834 Ry
     estimated scf accuracy    <       5.93410749 Ry

     iteration # 12     ecut=    30.00 Ry     beta=0.70
     Davidson diagonalization with overlap
     ethr =  1.00E-02,  avg # of iterations =  1.0

     negative rho (up, down):  4.657E-02 0.000E+00

     total cpu time spent up to now is        2.5 secs

     total energy              =     -31.95416254 Ry
     Harris-Foulkes estimate   =     -32.42851589 Ry
     estimated scf accuracy    <       5.13449493 Ry

     iteration # 13     ecut=    30.00 Ry     beta=0.70
     Davidson diagonalization with overlap
     ethr =  1.00E-02,  avg # of iterations =  2.0

     negative rho (up, down):  9.889E-02 0.000E+00

     total cpu time spent up to now is        2.5 secs

     total energy              =     -32.33149244 Ry
     Harris-Foulkes estimate   =     -32.25033943 Ry
     estimated scf accuracy    <       2.37815617 Ry

     iteration # 14     ecut=    30.00 Ry     beta=0.70
     Davidson diagonalization with overlap
     ethr =  1.00E-02,  avg # of iterations =  2.0

     negative rho (up, down):  1.748E-02 0.000E+00

     total cpu time spent up to now is        2.6 secs

     total energy              =     -32.36428852 Ry
     Harris-Foulkes estimate   =     -32.49474297 Ry
     estimated scf accuracy    <       2.82601541 Ry

     iteration # 15     ecut=    30.00 Ry     beta=0.70
     Davidson diagonalization with overlap
     ethr =  1.00E-02,  avg # of iterations =  4.0

     negative rho (up, down):  4.199E-02 0.000E+00

     total cpu time spent up to now is        2.6 secs

     total energy              =      -9.91256070 Ry
     Harris-Foulkes estimate   =     -53.68098445 Ry
     estimated scf accuracy    <       9.96144441 Ry

     iteration # 16     ecut=    30.00 Ry     beta=0.70
     Davidson diagonalization with overlap
     ethr =  1.00E-02,  avg # of iterations =  4.0

     negative rho (up, down):  4.335E-02 0.000E+00

     total cpu time spent up to now is        2.7 secs

     total energy              =     -28.54990799 Ry
     Harris-Foulkes estimate   =     -35.59592172 Ry
     estimated scf accuracy    <       3.71484562 Ry

     iteration # 17     ecut=    30.00 Ry     beta=0.70
     Davidson diagonalization with overlap
     ethr =  1.00E-02,  avg # of iterations =  4.0

     negative rho (up, down):  7.098E-02 0.000E+00

     total cpu time spent up to now is        2.8 secs

     total energy              =     -22.62525459 Ry
     Harris-Foulkes estimate   =     -39.69100768 Ry
     estimated scf accuracy    <       5.69325060 Ry

     iteration # 18     ecut=    30.00 Ry     beta=0.70
     Davidson diagonalization with overlap
     ethr =  1.00E-02,  avg # of iterations =  4.0

     negative rho (up, down):  2.535E-02 0.000E+00

     total cpu time spent up to now is        2.8 secs

     total energy              =      -2.97782103 Ry
     Harris-Foulkes estimate   =    -442.76247264 Ry
     estimated scf accuracy    <      15.72231720 Ry

     iteration # 19     ecut=    30.00 Ry     beta=0.70
     Davidson diagonalization with overlap
     ethr =  1.00E-02,  avg # of iterations =  5.0

     negative rho (up, down):  1.057E-01 0.000E+00

     total cpu time spent up to now is        2.9 secs

     total energy              =   -2940.14177365 Ry
     Harris-Foulkes estimate   =    -135.55807550 Ry
     estimated scf accuracy    <      15.28747628 Ry

     iteration # 20     ecut=    30.00 Ry     beta=0.70
     Davidson diagonalization with overlap
     ethr =  1.00E-02,  avg # of iterations =  5.0

     negative rho (up, down):  2.153E-01 0.000E+00

     total cpu time spent up to now is        3.0 secs

     total energy              =    -339.65290096 Ry
     Harris-Foulkes estimate   =   -7071.01765245 Ry
     estimated scf accuracy    <      62.46941058 Ry

     iteration # 21     ecut=    30.00 Ry     beta=0.70
     Davidson diagonalization with overlap
     ethr =  1.00E-02,  avg # of iterations =  9.0

     negative rho (up, down):  1.888E-01 0.000E+00

     total cpu time spent up to now is        3.0 secs

     total energy              =    -406.40224957 Ry
     Harris-Foulkes estimate   =    -947.69923512 Ry
     estimated scf accuracy    <      56.77790717 Ry

     iteration # 22     ecut=    30.00 Ry     beta=0.70
     Davidson diagonalization with overlap
     ethr =  1.00E-02,  avg # of iterations =  8.0

     negative rho (up, down):  3.433E-01 0.000E+00

     total cpu time spent up to now is        3.1 secs

     total energy              =    -272.82795496 Ry
     Harris-Foulkes estimate   =   -1579.88494534 Ry
     estimated scf accuracy    <      67.98725450 Ry

     iteration # 23     ecut=    30.00 Ry     beta=0.70
     Davidson diagonalization with overlap
     ethr =  1.00E-02,  avg # of iterations =  6.0

     negative rho (up, down):  3.248E-01 0.000E+00

     total cpu time spent up to now is        3.2 secs

     total energy              =     -30.41099412 Ry
     Harris-Foulkes estimate   =   -1362.80360188 Ry
     estimated scf accuracy    <      67.14990414 Ry

     iteration # 24     ecut=    30.00 Ry     beta=0.70
     Davidson diagonalization with overlap
     ethr =  1.00E-02,  avg # of iterations =  7.0

     negative rho (up, down):  3.814E-01 0.000E+00

     total cpu time spent up to now is        3.3 secs

     total energy              =      50.72715264 Ry
     Harris-Foulkes estimate   =    -786.77457398 Ry
     estimated scf accuracy    <      58.92857729 Ry

     iteration # 25     ecut=    30.00 Ry     beta=0.70
     Davidson diagonalization with overlap
     ethr =  1.00E-02,  avg # of iterations =  6.0

     negative rho (up, down):  4.537E-01 0.000E+00

     total cpu time spent up to now is        3.4 secs

     total energy              =   -6508.49013432 Ry
     Harris-Foulkes estimate   =    -241.01257408 Ry
     estimated scf accuracy    <      52.98271957 Ry

     iteration # 26     ecut=    30.00 Ry     beta=0.70
     Davidson diagonalization with overlap
     ethr =  1.00E-02,  avg # of iterations =  5.0

     negative rho (up, down):  1.212E+00 0.000E+00

     total cpu time spent up to now is        3.5 secs

     total energy              =   -1108.27070162 Ry
     Harris-Foulkes estimate   =  -14720.48853760 Ry
     estimated scf accuracy    <      54.09011201 Ry

     iteration # 27     ecut=    30.00 Ry     beta=0.70
     Davidson diagonalization with overlap
     ethr =  1.00E-02,  avg # of iterations =  8.0

     negative rho (up, down):  1.337E+00 0.000E+00

     total cpu time spent up to now is        3.6 secs

     total energy              =    -362.78771397 Ry
     Harris-Foulkes estimate   =   -3302.84758304 Ry
     estimated scf accuracy    <      42.88101115 Ry

     iteration # 28     ecut=    30.00 Ry     beta=0.70
     Davidson diagonalization with overlap
     ethr =  1.00E-02,  avg # of iterations =  8.0

     negative rho (up, down):  9.886E-01 0.000E+00

     total cpu time spent up to now is        3.6 secs

     total energy              =      83.16036364 Ry
     Harris-Foulkes estimate   =  -12662.35248833 Ry
     estimated scf accuracy    <      43.19780655 Ry

     iteration # 29     ecut=    30.00 Ry     beta=0.70
     Davidson diagonalization with overlap
     ethr =  1.00E-02,  avg # of iterations = 14.0

     negative rho (up, down):  1.363E+00 0.000E+00

     total cpu time spent up to now is        3.8 secs

     total energy              =      68.38771054 Ry
     Harris-Foulkes estimate   =    -516.31658968 Ry
     estimated scf accuracy    <      30.56990364 Ry

     iteration # 30     ecut=    30.00 Ry     beta=0.70
     Davidson diagonalization with overlap
     ethr =  1.00E-02,  avg # of iterations = 10.0

     negative rho (up, down):  1.052E+00 0.000E+00

     total cpu time spent up to now is        3.9 secs

     total energy              =      73.06871724 Ry
     Harris-Foulkes estimate   =  -16023.69023439 Ry
     estimated scf accuracy    <      24.34096365 Ry

     iteration # 31     ecut=    30.00 Ry     beta=0.70
     Davidson diagonalization with overlap
     ethr =  1.00E-02,  avg # of iterations =  9.0

     negative rho (up, down):  5.781E-01 0.000E+00

     total cpu time spent up to now is        3.9 secs

     total energy              =    -148.86776475 Ry
     Harris-Foulkes estimate   =   -7304.43210477 Ry
     estimated scf accuracy    <      27.46281977 Ry

     iteration # 32     ecut=    30.00 Ry     beta=0.70
     Davidson diagonalization with overlap
     ethr =  1.00E-02,  avg # of iterations =  7.0

     negative rho (up, down):  4.573E-02 0.000E+00

     total cpu time spent up to now is        4.0 secs

     total energy              =    -103.35935507 Ry
     Harris-Foulkes estimate   =  -12605.62699822 Ry
     estimated scf accuracy    <      16.46656180 Ry

     iteration # 33     ecut=    30.00 Ry     beta=0.70
     Davidson diagonalization with overlap
     ethr =  1.00E-02,  avg # of iterations =  7.0

     negative rho (up, down):  1.021E-02 0.000E+00

     total cpu time spent up to now is        4.1 secs

     total energy              =      77.36893439 Ry
     Harris-Foulkes estimate   =   -2078.09311917 Ry
     estimated scf accuracy    <      16.97468388 Ry

     iteration # 34     ecut=    30.00 Ry     beta=0.70
     Davidson diagonalization with overlap
     ethr =  1.00E-02,  avg # of iterations =  8.0

     negative rho (up, down):  1.079E-02 0.000E+00

     total cpu time spent up to now is        4.2 secs

     total energy              =      26.73286008 Ry
     Harris-Foulkes estimate   =    -430.51944231 Ry
     estimated scf accuracy    <      33.19138499 Ry

     iteration # 35     ecut=    30.00 Ry     beta=0.70
     Davidson diagonalization with overlap
     ethr =  1.00E-02,  avg # of iterations =  6.0

     negative rho (up, down):  8.352E-03 0.000E+00

     total cpu time spent up to now is        4.3 secs

     total energy              =     -20.58197563 Ry
     Harris-Foulkes estimate   =     -93.19409724 Ry
     estimated scf accuracy    <      32.60185462 Ry

     iteration # 36     ecut=    30.00 Ry     beta=0.70
     Davidson diagonalization with overlap
     ethr =  1.00E-02,  avg # of iterations =  5.0

     negative rho (up, down):  1.097E-03 0.000E+00

     total cpu time spent up to now is        4.4 secs

     total energy              =      42.46276765 Ry
     Harris-Foulkes estimate   =   -1008.01849182 Ry
     estimated scf accuracy    <      14.92018069 Ry

     iteration # 37     ecut=    30.00 Ry     beta=0.70
     Davidson diagonalization with overlap
     ethr =  1.00E-02,  avg # of iterations =  6.0

     negative rho (up, down):  6.525E-03 0.000E+00

     total cpu time spent up to now is        4.4 secs

     total energy              =     -72.87749080 Ry
     Harris-Foulkes estimate   =     -62.48317546 Ry
     estimated scf accuracy    <      43.50998329 Ry

     iteration # 38     ecut=    30.00 Ry     beta=0.70
     Davidson diagonalization with overlap
     ethr =  1.00E-02,  avg # of iterations =  1.0

     negative rho (up, down):  1.728E-03 0.000E+00

     total cpu time spent up to now is        4.5 secs

     total energy              =     -55.70444791 Ry
     Harris-Foulkes estimate   =     -72.94030167 Ry
     estimated scf accuracy    <      56.79528825 Ry

     iteration # 39     ecut=    30.00 Ry     beta=0.70
     Davidson diagonalization with overlap
     ethr =  1.00E-02,  avg # of iterations =  2.0

     negative rho (up, down):  7.172E-02 0.000E+00

     total cpu time spent up to now is        4.5 secs

     total energy              =     -46.60122224 Ry
     Harris-Foulkes estimate   =     -55.88373505 Ry
     estimated scf accuracy    <      35.26913822 Ry

     iteration # 40     ecut=    30.00 Ry     beta=0.70
     Davidson diagonalization with overlap
     ethr =  1.00E-02,  avg # of iterations =  2.0

     negative rho (up, down):  6.610E-02 0.000E+00

     total cpu time spent up to now is        4.6 secs

     total energy              =     -37.27775490 Ry
     Harris-Foulkes estimate   =     -46.71301618 Ry
     estimated scf accuracy    <      23.45275860 Ry

     iteration # 41     ecut=    30.00 Ry     beta=0.70
     Davidson diagonalization with overlap
     ethr =  1.00E-02,  avg # of iterations =  9.0

     negative rho (up, down):  8.242E-02 0.000E+00

     total cpu time spent up to now is        4.7 secs

     total energy              =      31.61824954 Ry
     Harris-Foulkes estimate   =    -230.85532456 Ry
     estimated scf accuracy    <      23.39191988 Ry

     iteration # 42     ecut=    30.00 Ry     beta=0.70
     Davidson diagonalization with overlap
     ethr =  1.00E-02,  avg # of iterations =  7.0

     negative rho (up, down):  2.888E-01 0.000E+00

     total cpu time spent up to now is        4.8 secs

     total energy              =     -25.58475183 Ry
     Harris-Foulkes estimate   =    -294.86827567 Ry
     estimated scf accuracy    <      45.87667221 Ry

     iteration # 43     ecut=    30.00 Ry     beta=0.70
     Davidson diagonalization with overlap
     ethr =  1.00E-02,  avg # of iterations =  8.0

     negative rho (up, down):  1.874E-01 0.000E+00

     total cpu time spent up to now is        4.9 secs

     total energy              =      -3.61203241 Ry
     Harris-Foulkes estimate   =    -511.02729325 Ry
     estimated scf accuracy    <      51.95177029 Ry

     iteration # 44     ecut=    30.00 Ry     beta=0.70
     Davidson diagonalization with overlap
     ethr =  1.00E-02,  avg # of iterations =  8.0

     negative rho (up, down):  1.504E-01 0.000E+00

     total cpu time spent up to now is        5.0 secs

     total energy              =      41.15705309 Ry
     Harris-Foulkes estimate   =    -252.30064199 Ry
     estimated scf accuracy    <      58.07900224 Ry

     iteration # 45     ecut=    30.00 Ry     beta=0.70
     Davidson diagonalization with overlap
     ethr =  1.00E-02,  avg # of iterations =  8.0

     negative rho (up, down):  1.269E-02 0.000E+00

     total cpu time spent up to now is        5.1 secs

     total energy              =      53.66589240 Ry
     Harris-Foulkes estimate   =     -99.34516287 Ry
     estimated scf accuracy    <      48.91180228 Ry

     iteration # 46     ecut=    30.00 Ry     beta=0.70
     Davidson diagonalization with overlap
     ethr =  1.00E-02,  avg # of iterations =  8.0

     negative rho (up, down):  5.974E-02 0.000E+00

     total cpu time spent up to now is        5.2 secs

     total energy              =     -41.34421755 Ry
     Harris-Foulkes estimate   =     -38.86861678 Ry
     estimated scf accuracy    <       6.25954406 Ry

     iteration # 47     ecut=    30.00 Ry     beta=0.70
     Davidson diagonalization with overlap
     ethr =  1.00E-02,  avg # of iterations =  6.0

     negative rho (up, down):  2.085E-01 0.000E+00

     total cpu time spent up to now is        5.3 secs

     total energy              =    -276.03538744 Ry
     Harris-Foulkes estimate   =    -648.28485458 Ry
     estimated scf accuracy    <      42.93684132 Ry

     iteration # 48     ecut=    30.00 Ry     beta=0.70
     Davidson diagonalization with overlap
     ethr =  1.00E-02,  avg # of iterations =  5.0

     negative rho (up, down):  2.629E-01 0.000E+00

     total cpu time spent up to now is        5.3 secs

     total energy              =      -4.88104052 Ry
     Harris-Foulkes estimate   =    -887.19895972 Ry
     estimated scf accuracy    <      45.83812623 Ry

     iteration # 49     ecut=    30.00 Ry     beta=0.70
     Davidson diagonalization with overlap
     ethr =  1.00E-02,  avg # of iterations =  6.0

     negative rho (up, down):  5.308E-01 0.000E+00

     total cpu time spent up to now is        5.4 secs

     total energy              =     -62.38576987 Ry
     Harris-Foulkes estimate   =   -1036.53931973 Ry
     estimated scf accuracy    <      42.60362935 Ry

     iteration # 50     ecut=    30.00 Ry     beta=0.70
     Davidson diagonalization with overlap
     ethr =  1.00E-02,  avg # of iterations =  7.0

     negative rho (up, down):  3.464E-01 0.000E+00

     total cpu time spent up to now is        5.5 secs

     total energy              =      68.66908867 Ry
     Harris-Foulkes estimate   =    -887.67488058 Ry
     estimated scf accuracy    <      44.77965149 Ry

     iteration # 51     ecut=    30.00 Ry     beta=0.70
     Davidson diagonalization with overlap
     ethr =  1.00E-02,  avg # of iterations =  8.0

     negative rho (up, down):  4.728E-01 0.000E+00

     total cpu time spent up to now is        5.6 secs

     total energy              =      75.55509955 Ry
     Harris-Foulkes estimate   =    -585.44366799 Ry
     estimated scf accuracy    <      47.00758945 Ry

     iteration # 52     ecut=    30.00 Ry     beta=0.70
     Davidson diagonalization with overlap
     ethr =  1.00E-02,  avg # of iterations =  7.0

     negative rho (up, down):  5.816E-01 0.000E+00

     total cpu time spent up to now is        5.7 secs

     total energy              =      89.82790035 Ry
     Harris-Foulkes estimate   =    -820.38439265 Ry
     estimated scf accuracy    <      47.95145572 Ry

     iteration # 53     ecut=    30.00 Ry     beta=0.70
     Davidson diagonalization with overlap
     ethr =  1.00E-02,  avg # of iterations = 10.0

     negative rho (up, down):  8.769E-01 0.000E+00

     total cpu time spent up to now is        5.8 secs

     total energy              =      76.07810800 Ry
     Harris-Foulkes estimate   =   -1066.11348705 Ry
     estimated scf accuracy    <      48.98969498 Ry

     iteration # 54     ecut=    30.00 Ry     beta=0.70
     Davidson diagonalization with overlap
     ethr =  1.00E-02,  avg # of iterations =  8.0

     negative rho (up, down):  7.553E-01 0.000E+00

     total cpu time spent up to now is        5.9 secs

     total energy              =      83.70323542 Ry
     Harris-Foulkes estimate   =   -1111.48342276 Ry
     estimated scf accuracy    <      43.73717016 Ry

     iteration # 55     ecut=    30.00 Ry     beta=0.70
     Davidson diagonalization with overlap
     ethr =  1.00E-02,  avg # of iterations =  9.0

     negative rho (up, down):  1.015E-01 0.000E+00

     total cpu time spent up to now is        6.0 secs

     total energy              =      95.14980968 Ry
     Harris-Foulkes estimate   =   -2007.26824693 Ry
     estimated scf accuracy    <      41.37048584 Ry

     iteration # 56     ecut=    30.00 Ry     beta=0.70
     Davidson diagonalization with overlap
     ethr =  1.00E-02,  avg # of iterations =  8.0

     negative rho (up, down):  8.348E-01 0.000E+00

     total cpu time spent up to now is        6.1 secs

     total energy              =      34.70420972 Ry
     Harris-Foulkes estimate   =    -519.01542291 Ry
     estimated scf accuracy    <      18.35058059 Ry

     iteration # 57     ecut=    30.00 Ry     beta=0.70
     Davidson diagonalization with overlap
     ethr =  1.00E-02,  avg # of iterations = 17.0

     negative rho (up, down):  6.343E-01 0.000E+00

     total cpu time spent up to now is        6.2 secs

     total energy              =     106.34309463 Ry
     Harris-Foulkes estimate   =   -1446.90616786 Ry
     estimated scf accuracy    <      19.36857666 Ry

     iteration # 58     ecut=    30.00 Ry     beta=0.70
     Davidson diagonalization with overlap
     ethr =  1.00E-02,  avg # of iterations =  8.0

     negative rho (up, down):  2.826E-01 0.000E+00

     total cpu time spent up to now is        6.3 secs

     total energy              =      60.83916767 Ry
     Harris-Foulkes estimate   =   -1183.48373176 Ry
     estimated scf accuracy    <      22.61676598 Ry

     iteration # 59     ecut=    30.00 Ry     beta=0.70
     Davidson diagonalization with overlap
     ethr =  1.00E-02,  avg # of iterations =  7.0

     negative rho (up, down):  2.805E-01 0.000E+00

     total cpu time spent up to now is        6.4 secs

     total energy              =    -384.20316931 Ry
     Harris-Foulkes estimate   =    -918.14128685 Ry
     estimated scf accuracy    <      20.29313052 Ry

     iteration # 60     ecut=    30.00 Ry     beta=0.70
     Davidson diagonalization with overlap
     ethr =  1.00E-02,  avg # of iterations =  8.0

     negative rho (up, down):  1.920E-01 0.000E+00

     total cpu time spent up to now is        6.5 secs

     total energy              =     128.08601463 Ry
     Harris-Foulkes estimate   =   -5269.19488347 Ry
     estimated scf accuracy    <      18.44239472 Ry

     iteration # 61     ecut=    30.00 Ry     beta=0.70
     Davidson diagonalization with overlap
     ethr =  1.00E-02,  avg # of iterations = 11.0

     negative rho (up, down):  1.576E-02 0.000E+00

     total cpu time spent up to now is        6.6 secs

     total energy              =    -249.67210655 Ry
     Harris-Foulkes estimate   =    -147.84870299 Ry
     estimated scf accuracy    <      41.40756276 Ry

     iteration # 62     ecut=    30.00 Ry     beta=0.70
     Davidson diagonalization with overlap
     ethr =  1.00E-02,  avg # of iterations =  5.0

     negative rho (up, down):  6.665E-03 0.000E+00

     total cpu time spent up to now is        6.7 secs

     total energy              =      41.80724749 Ry
     Harris-Foulkes estimate   =    -955.65751889 Ry
     estimated scf accuracy    <      36.33251835 Ry

     iteration # 63     ecut=    30.00 Ry     beta=0.70
     Davidson diagonalization with overlap
     ethr =  1.00E-02,  avg # of iterations =  8.0

     negative rho (up, down):  5.741E-03 0.000E+00

     total cpu time spent up to now is        6.7 secs

     total energy              =     -62.46139374 Ry
     Harris-Foulkes estimate   =     -74.19818577 Ry
     estimated scf accuracy    <      59.64449456 Ry

     iteration # 64     ecut=    30.00 Ry     beta=0.70
     Davidson diagonalization with overlap
     ethr =  1.00E-02,  avg # of iterations =  4.0

     negative rho (up, down):  2.615E-01 0.000E+00

     total cpu time spent up to now is        6.8 secs

     total energy              =     -48.84727307 Ry
     Harris-Foulkes estimate   =     -62.53467123 Ry
     estimated scf accuracy    <      44.53535216 Ry

     iteration # 65     ecut=    30.00 Ry     beta=0.70
     Davidson diagonalization with overlap
     ethr =  1.00E-02,  avg # of iterations =  6.0

     negative rho (up, down):  5.222E-01 0.000E+00

     total cpu time spent up to now is        6.9 secs

     total energy              =      41.86036022 Ry
     Harris-Foulkes estimate   =    -363.32942489 Ry
     estimated scf accuracy    <      46.12360388 Ry

     iteration # 66     ecut=    30.00 Ry     beta=0.70
     Davidson diagonalization with overlap
     ethr =  1.00E-02,  avg # of iterations =  6.0

     negative rho (up, down):  6.093E-01 0.000E+00

     total cpu time spent up to now is        7.0 secs

     total energy              =    -415.72535646 Ry
     Harris-Foulkes estimate   =    -317.31200810 Ry
     estimated scf accuracy    <      49.28303270 Ry

     iteration # 67     ecut=    30.00 Ry     beta=0.70
     Davidson diagonalization with overlap
     ethr =  1.00E-02,  avg # of iterations =  8.0

     negative rho (up, down):  6.250E-01 0.000E+00

     total cpu time spent up to now is        7.0 secs

     total energy              =      31.65493891 Ry
     Harris-Foulkes estimate   =   -1646.91142412 Ry
     estimated scf accuracy    <      46.15002332 Ry

     iteration # 68     ecut=    30.00 Ry     beta=0.70
     Davidson diagonalization with overlap
     ethr =  1.00E-02,  avg # of iterations =  6.0

     negative rho (up, down):  6.040E-01 0.000E+00

     total cpu time spent up to now is        7.1 secs

     total energy              =      24.88538230 Ry
     Harris-Foulkes estimate   =   -4765.65071697 Ry
     estimated scf accuracy    <      36.08101662 Ry

     iteration # 69     ecut=    30.00 Ry     beta=0.70
     Davidson diagonalization with overlap
     ethr =  1.00E-02,  avg # of iterations =  7.0

     negative rho (up, down):  7.715E-01 0.000E+00

     total cpu time spent up to now is        7.2 secs

     total energy              =    -667.17375459 Ry
     Harris-Foulkes estimate   =   -3130.08948092 Ry
     estimated scf accuracy    <      37.63833210 Ry

     iteration # 70     ecut=    30.00 Ry     beta=0.70
     Davidson diagonalization with overlap
     ethr =  1.00E-02,  avg # of iterations =  7.0

     negative rho (up, down):  8.655E-01 0.000E+00

     total cpu time spent up to now is        7.3 secs

     total energy              =      28.41056399 Ry
     Harris-Foulkes estimate   =   -2778.94649757 Ry
     estimated scf accuracy    <      49.49467680 Ry

     iteration # 71     ecut=    30.00 Ry     beta=0.70
     Davidson diagonalization with overlap
     ethr =  1.00E-02,  avg # of iterations =  7.0

     negative rho (up, down):  9.220E-01 0.000E+00

     total cpu time spent up to now is        7.4 secs

     total energy              =    -937.05128797 Ry
     Harris-Foulkes estimate   =   -2159.50879530 Ry
     estimated scf accuracy    <      48.10329783 Ry

     iteration # 72     ecut=    30.00 Ry     beta=0.70
     Davidson diagonalization with overlap
     ethr =  1.00E-02,  avg # of iterations =  7.0

     negative rho (up, down):  1.081E+00 0.000E+00

     total cpu time spent up to now is        7.5 secs

     total energy              =  218183.06693891 Ry
     Harris-Foulkes estimate   =   -5798.04809524 Ry
     estimated scf accuracy    <      56.53484022 Ry

     iteration # 73     ecut=    30.00 Ry     beta=0.70
     Davidson diagonalization with overlap
     ethr =  1.00E-02,  avg # of iterations =  9.0

     negative rho (up, down):  3.662E-01 0.000E+00

     total cpu time spent up to now is        7.6 secs

     total energy              =  -15564.14231637 Ry
     Harris-Foulkes estimate   =   -3819.90663259 Ry
     estimated scf accuracy    <      49.58358689 Ry

     iteration # 74     ecut=    30.00 Ry     beta=0.70
     Davidson diagonalization with overlap
     ethr =  1.00E-02,  avg # of iterations =  8.0

     negative rho (up, down):  9.448E-01 0.000E+00

     total cpu time spent up to now is        7.7 secs

     total energy              =      26.57645923 Ry
     Harris-Foulkes estimate   =  -69325.41825621 Ry
     estimated scf accuracy    <      17.89991845 Ry

     iteration # 75     ecut=    30.00 Ry     beta=0.70
     Davidson diagonalization with overlap
     ethr =  1.00E-02,  avg # of iterations =  9.0

     negative rho (up, down):  9.900E-01 0.000E+00

     total cpu time spent up to now is        7.8 secs

     total energy              =      99.26234965 Ry
     Harris-Foulkes estimate   =   -2336.12816531 Ry
     estimated scf accuracy    <      20.09155177 Ry

     iteration # 76     ecut=    30.00 Ry     beta=0.70
     Davidson diagonalization with overlap
     ethr =  1.00E-02,  avg # of iterations =  9.0

     negative rho (up, down):  6.831E-01 0.000E+00

     total cpu time spent up to now is        7.9 secs

     total energy              =   -1878.16542633 Ry
     Harris-Foulkes estimate   =   -4387.33983387 Ry
     estimated scf accuracy    <      26.95290665 Ry

     iteration # 77     ecut=    30.00 Ry     beta=0.70
     Davidson diagonalization with overlap
     ethr =  1.00E-02,  avg # of iterations =  6.0

     negative rho (up, down):  5.065E-01 0.000E+00

     total cpu time spent up to now is        8.0 secs

     total energy              =   -9287.88827244 Ry
     Harris-Foulkes estimate   =   -5562.53319643 Ry
     estimated scf accuracy    <      21.53796518 Ry

     iteration # 78     ecut=    30.00 Ry     beta=0.70
     Davidson diagonalization with overlap
     ethr =  1.00E-02,  avg # of iterations =  6.0

     negative rho (up, down):  4.623E-01 0.000E+00

     total cpu time spent up to now is        8.0 secs

     total energy              =      62.24056309 Ry
     Harris-Foulkes estimate   =  -25871.18754164 Ry
     estimated scf accuracy    <      23.22927502 Ry

     iteration # 79     ecut=    30.00 Ry     beta=0.70
     Davidson diagonalization with overlap
     ethr =  1.00E-02,  avg # of iterations =  8.0

     negative rho (up, down):  2.998E-01 0.000E+00

     total cpu time spent up to now is        8.1 secs

     total energy              =     105.92668672 Ry
     Harris-Foulkes estimate   =    -711.92075707 Ry
     estimated scf accuracy    <      17.25195861 Ry

     iteration # 80     ecut=    30.00 Ry     beta=0.70
     Davidson diagonalization with overlap
     ethr =  1.00E-02,  avg # of iterations = 11.0

     negative rho (up, down):  2.599E-01 0.000E+00

     total cpu time spent up to now is        8.2 secs

     total energy              =     -91.99402997 Ry
     Harris-Foulkes estimate   =    -919.07260275 Ry
     estimated scf accuracy    <      28.27299274 Ry

     iteration # 81     ecut=    30.00 Ry     beta=0.70
     Davidson diagonalization with overlap
     ethr =  1.00E-02,  avg # of iterations =  8.0

     negative rho (up, down):  1.306E-02 0.000E+00

     total cpu time spent up to now is        8.3 secs

     total energy              =     120.95719545 Ry
     Harris-Foulkes estimate   =    -909.04233491 Ry
     estimated scf accuracy    <      18.43661762 Ry

     iteration # 82     ecut=    30.00 Ry     beta=0.70
     Davidson diagonalization with overlap
     ethr =  1.00E-02,  avg # of iterations =  7.0

     negative rho (up, down):  5.188E-02 0.000E+00

     total cpu time spent up to now is        8.4 secs

     total energy              =     -31.02239192 Ry
     Harris-Foulkes estimate   =    -114.21004392 Ry
     estimated scf accuracy    <      47.81477918 Ry

     iteration # 83     ecut=    30.00 Ry     beta=0.70
     Davidson diagonalization with overlap
     ethr =  1.00E-02,  avg # of iterations =  9.0

     negative rho (up, down):  2.651E-02 0.000E+00

     total cpu time spent up to now is        8.4 secs

     total energy              =       3.31083447 Ry
     Harris-Foulkes estimate   =     -95.25582616 Ry
     estimated scf accuracy    <      23.62207308 Ry

     iteration # 84     ecut=    30.00 Ry     beta=0.70
     Davidson diagonalization with overlap
     ethr =  1.00E-02,  avg # of iterations =  5.0

     negative rho (up, down):  4.904E-02 0.000E+00

     total cpu time spent up to now is        8.5 secs

     total energy              =      71.78118977 Ry
     Harris-Foulkes estimate   =    -335.43557339 Ry
     estimated scf accuracy    <      15.32866148 Ry

     iteration # 85     ecut=    30.00 Ry     beta=0.70
     Davidson diagonalization with overlap
     ethr =  1.00E-02,  avg # of iterations =  6.0

     negative rho (up, down):  2.321E-01 0.000E+00

     total cpu time spent up to now is        8.6 secs

     total energy              =       3.36172809 Ry
     Harris-Foulkes estimate   =    -258.28245505 Ry
     estimated scf accuracy    <      21.10986208 Ry

     iteration # 86     ecut=    30.00 Ry     beta=0.70
     Davidson diagonalization with overlap
     ethr =  1.00E-02,  avg # of iterations =  7.0

     negative rho (up, down):  2.644E-01 0.000E+00

     total cpu time spent up to now is        8.7 secs

     total energy              =   -6092.82406134 Ry
     Harris-Foulkes estimate   =    -894.34124766 Ry
     estimated scf accuracy    <      28.56966642 Ry

     iteration # 87     ecut=    30.00 Ry     beta=0.70
     Davidson diagonalization with overlap
     ethr =  1.00E-02,  avg # of iterations = 10.0

     negative rho (up, down):  2.415E-02 0.000E+00

     total cpu time spent up to now is        8.8 secs

     total energy              =     145.22910010 Ry
     Harris-Foulkes estimate   =  -10459.21308145 Ry
     estimated scf accuracy    <      24.89879535 Ry

     iteration # 88     ecut=    30.00 Ry     beta=0.70
     Davidson diagonalization with overlap
     ethr =  1.00E-02,  avg # of iterations =  8.0

     negative rho (up, down):  2.627E-01 0.000E+00

     total cpu time spent up to now is        8.9 secs

     total energy              =     -41.72582161 Ry
     Harris-Foulkes estimate   =    -563.18215532 Ry
     estimated scf accuracy    <      36.73631948 Ry

     iteration # 89     ecut=    30.00 Ry     beta=0.70
     Davidson diagonalization with overlap
     ethr =  1.00E-02,  avg # of iterations =  5.0

     negative rho (up, down):  2.540E-01 0.000E+00

     total cpu time spent up to now is        8.9 secs

     total energy              =      32.16593043 Ry
     Harris-Foulkes estimate   =    -173.91449379 Ry
     estimated scf accuracy    <      31.80665390 Ry

     iteration # 90     ecut=    30.00 Ry     beta=0.70
     Davidson diagonalization with overlap
     ethr =  1.00E-02,  avg # of iterations =  6.0

     negative rho (up, down):  2.987E-01 0.000E+00

     total cpu time spent up to now is        9.0 secs

     total energy              =     -54.10042327 Ry
     Harris-Foulkes estimate   =    -102.93255460 Ry
     estimated scf accuracy    <      45.72052624 Ry

     iteration # 91     ecut=    30.00 Ry     beta=0.70
     Davidson diagonalization with overlap
     ethr =  1.00E-02,  avg # of iterations =  5.0

     negative rho (up, down):  1.159E-01 0.000E+00

     total cpu time spent up to now is        9.1 secs

     total energy              =     -12.09054657 Ry
     Harris-Foulkes estimate   =    -376.29251311 Ry
     estimated scf accuracy    <      26.70112278 Ry

     iteration # 92     ecut=    30.00 Ry     beta=0.70
     Davidson diagonalization with overlap
     ethr =  1.00E-02,  avg # of iterations =  8.0

     negative rho (up, down):  1.954E-01 0.000E+00

     total cpu time spent up to now is        9.2 secs

     total energy              =    -153.37129786 Ry
     Harris-Foulkes estimate   =    -102.68413787 Ry
     estimated scf accuracy    <      25.08442464 Ry

     iteration # 93     ecut=    30.00 Ry     beta=0.70
     Davidson diagonalization with overlap
     ethr =  1.00E-02,  avg # of iterations = 10.0

     negative rho (up, down):  1.632E-01 0.000E+00

     total cpu time spent up to now is        9.3 secs

     total energy              =       9.31653246 Ry
     Harris-Foulkes estimate   =   -1366.08255128 Ry
     estimated scf accuracy    <      46.53520749 Ry

     iteration # 94     ecut=    30.00 Ry     beta=0.70
     Davidson diagonalization with overlap
     ethr =  1.00E-02,  avg # of iterations =  6.0

     negative rho (up, down):  1.945E-01 0.000E+00

     total cpu time spent up to now is        9.3 secs

     total energy              =      43.63173025 Ry
     Harris-Foulkes estimate   =    -950.77359315 Ry
     estimated scf accuracy    <      24.63765743 Ry

     iteration # 95     ecut=    30.00 Ry     beta=0.70
     Davidson diagonalization with overlap
     ethr =  1.00E-02,  avg # of iterations =  7.0

     negative rho (up, down):  2.391E-01 0.000E+00

     total cpu time spent up to now is        9.4 secs

     total energy              =      30.12968283 Ry
     Harris-Foulkes estimate   =    -717.59785246 Ry
     estimated scf accuracy    <      30.41814467 Ry

     iteration # 96     ecut=    30.00 Ry     beta=0.70
     Davidson diagonalization with overlap
     ethr =  1.00E-02,  avg # of iterations =  7.0

     negative rho (up, down):  8.037E-01 0.000E+00

     total cpu time spent up to now is        9.5 secs

     total energy              =     -42.04389330 Ry
     Harris-Foulkes estimate   =    -451.57075637 Ry
     estimated scf accuracy    <      34.26890722 Ry

     iteration # 97     ecut=    30.00 Ry     beta=0.70
     Davidson diagonalization with overlap
     ethr =  1.00E-02,  avg # of iterations = 10.0

     negative rho (up, down):  6.334E-03 0.000E+00

     total cpu time spent up to now is        9.6 secs

     total energy              =     114.54064976 Ry
     Harris-Foulkes estimate   =   -3439.88742568 Ry
     estimated scf accuracy    <      27.60502767 Ry

     iteration # 98     ecut=    30.00 Ry     beta=0.70
     Davidson diagonalization with overlap
     ethr =  1.00E-02,  avg # of iterations =  9.0

     negative rho (up, down):  1.600E-01 0.000E+00

     total cpu time spent up to now is        9.7 secs

     total energy              =    -141.93476000 Ry
     Harris-Foulkes estimate   =     -43.63184360 Ry
     estimated scf accuracy    <      18.96012205 Ry

     iteration # 99     ecut=    30.00 Ry     beta=0.70
     Davidson diagonalization with overlap
     ethr =  1.00E-02,  avg # of iterations =  6.0

     negative rho (up, down):  1.379E-02 0.000E+00

     total cpu time spent up to now is        9.8 secs

     total energy              =      20.95202430 Ry
     Harris-Foulkes estimate   =   -3078.13134517 Ry
     estimated scf accuracy    <      15.49352872 Ry

     iteration #100     ecut=    30.00 Ry     beta=0.70
     Davidson diagonalization with overlap
     ethr =  1.00E-02,  avg # of iterations =  5.0

     negative rho (up, down):  1.466E-02 0.000E+00

     total cpu time spent up to now is        9.9 secs

     total energy              =     -26.97486573 Ry
     Harris-Foulkes estimate   =     -50.83327265 Ry
     estimated scf accuracy    <      15.74332271 Ry

     End of self-consistent calculation

     convergence NOT achieved after 100 iterations: stopping

     Writing output data file pwscf.save
 
     init_run     :      0.17s CPU      0.19s WALL (       1 calls)
     electrons    :      7.94s CPU      9.24s WALL (       2 calls)
     update_pot   :      0.13s CPU      0.16s WALL (       1 calls)
     forces       :      0.04s CPU      0.04s WALL (       1 calls)

     Called by init_run:
     wfcinit      :      0.01s CPU      0.02s WALL (       1 calls)
     potinit      :      0.05s CPU      0.05s WALL (       1 calls)

     Called by electrons:
     c_bands      :      4.79s CPU      4.96s WALL (     117 calls)
     sum_band     :      0.60s CPU      0.63s WALL (     117 calls)
     v_of_rho     :      1.48s CPU      1.58s WALL (     119 calls)
     mix_rho      :      0.88s CPU      1.68s WALL (     117 calls)

     Called by c_bands:
     init_us_2    :      0.02s CPU      0.02s WALL (     235 calls)
     cegterg      :      4.76s CPU      4.90s WALL (     117 calls)

     Called by sum_band:

     Called by *egterg:
     h_psi        :      3.99s CPU      4.08s WALL (     811 calls)
     g_psi        :      0.05s CPU      0.05s WALL (     693 calls)
     cdiaghg      :      0.30s CPU      0.32s WALL (     809 calls)

     Called by h_psi:
     h_psi:pot    :      3.97s CPU      4.06s WALL (     811 calls)
     h_psi:calbec :      0.03s CPU      0.04s WALL (     811 calls)
     vloc_psi     :      3.92s CPU      4.00s WALL (     811 calls)
     add_vuspsi   :      0.01s CPU      0.01s WALL (     811 calls)

     General routines
     calbec       :      0.03s CPU      0.03s WALL (     815 calls)
     fft          :      0.85s CPU      0.93s WALL (    1311 calls)
     fftw         :      3.97s CPU      4.07s WALL (    9940 calls)
     davcio       :      0.14s CPU      0.70s WALL (    2176 calls)
 
     Parallel routines
     fft_scatter  :      1.38s CPU      1.49s WALL (   11251 calls)
 
     PWSCF        :     8.47s CPU        10.01s WALL

 
   This run was terminated on:  17:23:12  13Feb2018            

=------------------------------------------------------------------------------=
   JOB DONE.
=------------------------------------------------------------------------------=
