
     Program PWSCF v.6.0 (svn rev. 13079) starts on 13Feb2018 at 17:24:29 

     This program is part of the open-source Quantum ESPRESSO suite
     for quantum simulation of materials; please cite
         "P. Giannozzi et al., J. Phys.:Condens. Matter 21 395502 (2009);
          URL http://www.quantum-espresso.org", 
     in publications or presentations arising from this work. More details at
     http://www.quantum-espresso.org/quote

     Parallel version (MPI), running on    28 processors
     R & G space division:  proc/nbgrp/npool/nimage =      28
     Reading input from inputs/MD-H2O-round1/820.in

     Current dimensions of program PWSCF are:
     Max number of different atomic species (ntypx) = 10
     Max number of k-points (npk) =  40000
     Max angular momentum in pseudopotentials (lmaxx) =  3

     Subspace diagonalization in iterative solution of the eigenvalue problem:
     a serial algorithm will be used

 
     Parallelization info
     --------------------
     sticks:   dense  smooth     PW     G-vecs:    dense   smooth      PW
     Min         136     136     33                 6338     6338     787
     Max         137     137     34                 6341     6341     792
     Sum        3809    3809    949               177509   177509   22119
 


     bravais-lattice index     =            1
     lattice parameter (alat)  =      20.0000  a.u.
     unit-cell volume          =    8000.0000 (a.u.)^3
     number of atoms/cell      =            3
     number of atomic types    =            2
     number of electrons       =         8.00
     number of Kohn-Sham states=            8
     kinetic-energy cutoff     =      30.0000  Ry
     charge density cutoff     =     120.0000  Ry
     convergence threshold     =      1.0E-08
     mixing beta               =       0.7000
     number of iterations used =            8  plain     mixing
     Exchange-correlation      = BLYP ( 1  3  1  3 0 0)
     nstep                     =         5000


     celldm(1)=  20.000000  celldm(2)=   0.000000  celldm(3)=   0.000000
     celldm(4)=   0.000000  celldm(5)=   0.000000  celldm(6)=   0.000000

     crystal axes: (cart. coord. in units of alat)
               a(1) = (   1.000000   0.000000   0.000000 )  
               a(2) = (   0.000000   1.000000   0.000000 )  
               a(3) = (   0.000000   0.000000   1.000000 )  

     reciprocal axes: (cart. coord. in units 2 pi/alat)
               b(1) = (  1.000000  0.000000  0.000000 )  
               b(2) = (  0.000000  1.000000  0.000000 )  
               b(3) = (  0.000000  0.000000  1.000000 )  


     PseudoPot. # 1 for  H read from file:
     ./H.blyp-hgh.UPF
     MD5 check sum: c576e69559cde411e611be972c763230
     Pseudo is Norm-conserving, Zval =  1.0
     Generated in analytical, separable form
     Using radial grid of  929 points,  0 beta functions with: 

     PseudoPot. # 2 for  O read from file:
     ./O.blyp-hgh.UPF
     MD5 check sum: d0b7156309aa9befef28faac7bc56342
     Pseudo is Norm-conserving, Zval =  6.0
     Generated in analytical, separable form
     Using radial grid of 1095 points,  1 beta functions with: 
                l(1) =   0

     atomic species   valence    mass     pseudopotential
        H              1.00     1.01000      H( 1.00)
        O              6.00    16.00000      O( 1.00)

     No symmetry found



   Cartesian axes

     site n.     atom                  positions (alat units)
         1           O   tau(   1) = (   0.3734636   0.4992046   0.1296283  )
         2           H   tau(   2) = (   0.8784381   0.0654722   0.5327171  )
         3           H   tau(   3) = (   0.4277336   0.4690320   0.1793785  )

     number of k points=     1  Marzari-Vanderbilt smearing, width (Ry)=  0.0250
                       cart. coord. in units 2pi/alat
        k(    1) = (   0.0000000   0.0000000   0.0000000), wk =   2.0000000

     Dense  grid:   177509 G-vectors     FFT dimensions: (  72,  72,  72)

     Estimated max dynamical RAM per process >       6.09Mb

     Estimated total allocated dynamical RAM >     170.64Mb

     Initial potential from superposition of free atoms
     Check: negative starting charge=   -0.353408

     starting charge    7.99998, renormalised to    8.00000

     negative rho (up, down):  3.534E-01 0.000E+00
     Starting wfc are    6 randomized atomic wfcs +    2 random wfc

     total cpu time spent up to now is        0.4 secs

     per-process dynamical memory:    18.8 Mb

     Self-consistent Calculation

     iteration #  1     ecut=    30.00 Ry     beta=0.70
     Davidson diagonalization with overlap
     ethr =  1.00E-02,  avg # of iterations =  6.0

     negative rho (up, down):  9.568E-02 0.000E+00

     total cpu time spent up to now is        0.4 secs

     total energy              =     -31.52461000 Ry
     Harris-Foulkes estimate   =     -32.06668510 Ry
     estimated scf accuracy    <       0.57546423 Ry

     iteration #  2     ecut=    30.00 Ry     beta=0.70
     Davidson diagonalization with overlap
     ethr =  7.19E-03,  avg # of iterations =  3.0

     negative rho (up, down):  7.387E-02 0.000E+00

     total cpu time spent up to now is        0.5 secs

     total energy              =     -31.73173555 Ry
     Harris-Foulkes estimate   =     -32.46536277 Ry
     estimated scf accuracy    <       2.43437607 Ry

     iteration #  3     ecut=    30.00 Ry     beta=0.70
     Davidson diagonalization with overlap
     ethr =  7.19E-03,  avg # of iterations =  2.0

     negative rho (up, down):  2.942E-02 0.000E+00

     total cpu time spent up to now is        0.5 secs

     total energy              =     -31.77538436 Ry
     Harris-Foulkes estimate   =     -31.77978616 Ry
     estimated scf accuracy    <       0.12801418 Ry

     iteration #  4     ecut=    30.00 Ry     beta=0.70
     Davidson diagonalization with overlap
     ethr =  1.60E-03,  avg # of iterations =  1.0

     negative rho (up, down):  7.697E-03 0.000E+00

     total cpu time spent up to now is        0.6 secs

     total energy              =     -31.61141235 Ry
     Harris-Foulkes estimate   =     -31.86571991 Ry
     estimated scf accuracy    <       0.99234556 Ry

     iteration #  5     ecut=    30.00 Ry     beta=0.70
     Davidson diagonalization with overlap
     ethr =  1.60E-03,  avg # of iterations =  2.0

     negative rho (up, down):  1.463E-03 0.000E+00

     total cpu time spent up to now is        0.6 secs

     total energy              =     -31.89835317 Ry
     Harris-Foulkes estimate   =     -32.08392522 Ry
     estimated scf accuracy    <       1.64086354 Ry

     iteration #  6     ecut=    30.00 Ry     beta=0.70
     Davidson diagonalization with overlap
     ethr =  1.60E-03,  avg # of iterations =  1.0

     negative rho (up, down):  1.126E-03 0.000E+00

     total cpu time spent up to now is        0.7 secs

     total energy              =     -31.85891410 Ry
     Harris-Foulkes estimate   =     -31.90096575 Ry
     estimated scf accuracy    <       1.37588830 Ry

     iteration #  7     ecut=    30.00 Ry     beta=0.70
     Davidson diagonalization with overlap
     ethr =  1.60E-03,  avg # of iterations =  1.0

     negative rho (up, down):  9.099E-04 0.000E+00

     total cpu time spent up to now is        0.7 secs

     total energy              =     -31.71538079 Ry
     Harris-Foulkes estimate   =     -31.85610875 Ry
     estimated scf accuracy    <       1.50588085 Ry

     iteration #  8     ecut=    30.00 Ry     beta=0.70
     Davidson diagonalization with overlap
     ethr =  1.60E-03,  avg # of iterations =  1.0

     negative rho (up, down):  3.308E-05 0.000E+00

     total cpu time spent up to now is        0.8 secs

     total energy              =     -31.83316035 Ry
     Harris-Foulkes estimate   =     -31.89841027 Ry
     estimated scf accuracy    <       0.97829336 Ry

     iteration #  9     ecut=    30.00 Ry     beta=0.70
     Davidson diagonalization with overlap
     ethr =  1.60E-03,  avg # of iterations =  1.0

     negative rho (up, down):  1.423E-05 0.000E+00

     total cpu time spent up to now is        0.8 secs

     total energy              =     -31.81624239 Ry
     Harris-Foulkes estimate   =     -31.83758272 Ry
     estimated scf accuracy    <       0.31071596 Ry

     iteration # 10     ecut=    30.00 Ry     beta=0.70
     Davidson diagonalization with overlap
     ethr =  1.60E-03,  avg # of iterations =  1.0

     total cpu time spent up to now is        0.9 secs

     total energy              =     -31.77370151 Ry
     Harris-Foulkes estimate   =     -31.84340080 Ry
     estimated scf accuracy    <       0.83067725 Ry

     iteration # 11     ecut=    30.00 Ry     beta=0.70
     Davidson diagonalization with overlap
     ethr =  1.60E-03,  avg # of iterations =  1.0

     total cpu time spent up to now is        0.9 secs

     total energy              =     -31.83707934 Ry
     Harris-Foulkes estimate   =     -31.87107107 Ry
     estimated scf accuracy    <       0.93949158 Ry

     iteration # 12     ecut=    30.00 Ry     beta=0.70
     Davidson diagonalization with overlap
     ethr =  1.60E-03,  avg # of iterations =  1.0

     total cpu time spent up to now is        0.9 secs

     total energy              =     -31.83881496 Ry
     Harris-Foulkes estimate   =     -31.83994662 Ry
     estimated scf accuracy    <       0.42846715 Ry

     iteration # 13     ecut=    30.00 Ry     beta=0.70
     Davidson diagonalization with overlap
     ethr =  1.60E-03,  avg # of iterations =  1.0

     total cpu time spent up to now is        1.0 secs

     total energy              =     -31.83779691 Ry
     Harris-Foulkes estimate   =     -31.83885507 Ry
     estimated scf accuracy    <       0.37510873 Ry

     iteration # 14     ecut=    30.00 Ry     beta=0.70
     Davidson diagonalization with overlap
     ethr =  1.60E-03,  avg # of iterations =  1.0

     total cpu time spent up to now is        1.0 secs

     total energy              =     -31.83187237 Ry
     Harris-Foulkes estimate   =     -31.83783500 Ry
     estimated scf accuracy    <       0.32237593 Ry

     iteration # 15     ecut=    30.00 Ry     beta=0.70
     Davidson diagonalization with overlap
     ethr =  1.60E-03,  avg # of iterations =  1.0

     negative rho (up, down):  5.543E-08 0.000E+00

     total cpu time spent up to now is        1.1 secs

     total energy              =     -31.83371285 Ry
     Harris-Foulkes estimate   =     -31.83350787 Ry
     estimated scf accuracy    <       0.05531997 Ry

     iteration # 16     ecut=    30.00 Ry     beta=0.70
     Davidson diagonalization with overlap
     ethr =  6.91E-04,  avg # of iterations =  1.0

     negative rho (up, down):  5.550E-08 0.000E+00

     total cpu time spent up to now is        1.1 secs

     total energy              =     -31.84458668 Ry
     Harris-Foulkes estimate   =     -31.83372646 Ry
     estimated scf accuracy    <       0.07080655 Ry

     iteration # 17     ecut=    30.00 Ry     beta=0.70
     Davidson diagonalization with overlap
     ethr =  6.91E-04,  avg # of iterations =  1.0

     negative rho (up, down):  1.314E-08 0.000E+00

     total cpu time spent up to now is        1.2 secs

     total energy              =     -31.85742893 Ry
     Harris-Foulkes estimate   =     -31.86192394 Ry
     estimated scf accuracy    <       0.90632875 Ry

     iteration # 18     ecut=    30.00 Ry     beta=0.70
     Davidson diagonalization with overlap
     ethr =  6.91E-04,  avg # of iterations =  1.0

     negative rho (up, down):  1.000E-08 0.000E+00

     total cpu time spent up to now is        1.2 secs

     total energy              =     -31.84990952 Ry
     Harris-Foulkes estimate   =     -31.85746631 Ry
     estimated scf accuracy    <       0.87141951 Ry

     iteration # 19     ecut=    30.00 Ry     beta=0.70
     Davidson diagonalization with overlap
     ethr =  6.91E-04,  avg # of iterations =  1.0

     negative rho (up, down):  4.434E-08 0.000E+00

     total cpu time spent up to now is        1.3 secs

     total energy              =     -31.83971744 Ry
     Harris-Foulkes estimate   =     -31.85010835 Ry
     estimated scf accuracy    <       0.76036082 Ry

     iteration # 20     ecut=    30.00 Ry     beta=0.70
     Davidson diagonalization with overlap
     ethr =  6.91E-04,  avg # of iterations =  1.0

     total cpu time spent up to now is        1.3 secs

     total energy              =     -31.83851097 Ry
     Harris-Foulkes estimate   =     -31.84068962 Ry
     estimated scf accuracy    <       0.46122813 Ry

     iteration # 21     ecut=    30.00 Ry     beta=0.70
     Davidson diagonalization with overlap
     ethr =  6.91E-04,  avg # of iterations =  1.0

     negative rho (up, down):  1.397E-08 0.000E+00

     total cpu time spent up to now is        1.4 secs

     total energy              =     -31.83984113 Ry
     Harris-Foulkes estimate   =     -31.83862831 Ry
     estimated scf accuracy    <       0.36422984 Ry

     iteration # 22     ecut=    30.00 Ry     beta=0.70
     Davidson diagonalization with overlap
     ethr =  6.91E-04,  avg # of iterations =  1.0

     negative rho (up, down):  2.238E-07 0.000E+00

     total cpu time spent up to now is        1.4 secs

     total energy              =     -31.83375488 Ry
     Harris-Foulkes estimate   =     -31.83989046 Ry
     estimated scf accuracy    <       0.42513140 Ry

     iteration # 23     ecut=    30.00 Ry     beta=0.70
     Davidson diagonalization with overlap
     ethr =  6.91E-04,  avg # of iterations =  1.0

     negative rho (up, down):  1.383E-07 0.000E+00

     total cpu time spent up to now is        1.5 secs

     total energy              =     -31.83268791 Ry
     Harris-Foulkes estimate   =     -31.83490575 Ry
     estimated scf accuracy    <       0.15077755 Ry

     iteration # 24     ecut=    30.00 Ry     beta=0.70
     Davidson diagonalization with overlap
     ethr =  6.91E-04,  avg # of iterations =  1.0

     negative rho (up, down):  1.393E-08 0.000E+00

     total cpu time spent up to now is        1.5 secs

     total energy              =     -31.83127889 Ry
     Harris-Foulkes estimate   =     -31.83323905 Ry
     estimated scf accuracy    <       0.03576875 Ry

     iteration # 25     ecut=    30.00 Ry     beta=0.70
     Davidson diagonalization with overlap
     ethr =  4.47E-04,  avg # of iterations =  1.0

     total cpu time spent up to now is        1.6 secs

     total energy              =     -31.83268359 Ry
     Harris-Foulkes estimate   =     -31.83341490 Ry
     estimated scf accuracy    <       0.05293407 Ry

     iteration # 26     ecut=    30.00 Ry     beta=0.70
     Davidson diagonalization with overlap
     ethr =  4.47E-04,  avg # of iterations =  1.0

     total cpu time spent up to now is        1.6 secs

     total energy              =     -31.83268063 Ry
     Harris-Foulkes estimate   =     -31.83288967 Ry
     estimated scf accuracy    <       0.00985300 Ry

     iteration # 27     ecut=    30.00 Ry     beta=0.70
     Davidson diagonalization with overlap
     ethr =  1.23E-04,  avg # of iterations =  1.0

     total cpu time spent up to now is        1.7 secs

     total energy              =     -31.83276151 Ry
     Harris-Foulkes estimate   =     -31.83276957 Ry
     estimated scf accuracy    <       0.00019909 Ry

     iteration # 28     ecut=    30.00 Ry     beta=0.70
     Davidson diagonalization with overlap
     ethr =  2.49E-06,  avg # of iterations = 15.0

     total cpu time spent up to now is        1.8 secs

     total energy              =     -31.83276764 Ry
     Harris-Foulkes estimate   =     -31.83276819 Ry
     estimated scf accuracy    <       0.00008205 Ry

     iteration # 29     ecut=    30.00 Ry     beta=0.70
     Davidson diagonalization with overlap
     ethr =  1.03E-06,  avg # of iterations =  1.0

     total cpu time spent up to now is        1.8 secs

     total energy              =     -31.83276680 Ry
     Harris-Foulkes estimate   =     -31.83276772 Ry
     estimated scf accuracy    <       0.00004472 Ry

     iteration # 30     ecut=    30.00 Ry     beta=0.70
     Davidson diagonalization with overlap
     ethr =  5.59E-07,  avg # of iterations =  1.0

     total cpu time spent up to now is        1.9 secs

     total energy              =     -31.83276719 Ry
     Harris-Foulkes estimate   =     -31.83276722 Ry
     estimated scf accuracy    <       0.00000076 Ry

     iteration # 31     ecut=    30.00 Ry     beta=0.70
     Davidson diagonalization with overlap
     ethr =  9.46E-09,  avg # of iterations =  1.0

     total cpu time spent up to now is        1.9 secs

     total energy              =     -31.83276720 Ry
     Harris-Foulkes estimate   =     -31.83276720 Ry
     estimated scf accuracy    <       0.00000003 Ry

     iteration # 32     ecut=    30.00 Ry     beta=0.70
     Davidson diagonalization with overlap
     ethr =  3.77E-10,  avg # of iterations =  1.0

     total cpu time spent up to now is        1.9 secs

     End of self-consistent calculation

          k = 0.0000 0.0000 0.0000 ( 22119 PWs)   bands (ev):

   -26.2335 -11.0895  -7.1685  -7.1678  -7.0249  -0.4437   0.5517   0.8172

     the Fermi energy is    -6.9965 ev

!    total energy              =     -31.83276723 Ry
     Harris-Foulkes estimate   =     -31.83276720 Ry
     estimated scf accuracy    <          8.3E-09 Ry

     convergence has been achieved in  32 iterations

     Forces acting on atoms (Ry/au):

     atom    1 type  2   force =    -0.44161156    0.24417837   -0.40328313
     atom    2 type  1   force =     0.00017805    0.00021247   -0.00050501
     atom    3 type  1   force =     0.44143352   -0.24439084    0.40378814

     Total force =     0.913738     Total SCF correction =     0.000030

     Molecular Dynamics Calculation

     Starting temperature  =  1000.00 K

     temperature is controlled by Andersen thermostat
     Collision frequency = 1.0000/timestep
     mass H                =     1.01
     mass O                =    16.00
     Time step             =   100.00 a.u.,  4.8378 femto-seconds

     Entering Dynamics:    iteration =     1
                           time      =   0.0048 pico-seconds


     Andersen thermostat:    3 collisions

ATOMIC_POSITIONS (bohr)
O        7.305350763  10.060381281   2.432563105
H       17.571261755   1.491052199  10.554264062
H       11.148945314   7.990489733   6.222331420


     kinetic energy (Ekin) =     0.01337019 Ry
     temperature           =   703.66124461 K 
     Ekin + Etot (const)   =   -31.81939704 Ry

     Linear momentum :   -0.0000000000    0.0000000000   -0.0000000000

     Writing output data file pwscf.save
     Check: negative starting charge=   -0.353408
     NEW-OLD atomic charge density approx. for the potential
     Check: negative starting charge=   -0.345091

     negative rho (up, down):  4.948E-01 0.000E+00

     total cpu time spent up to now is        2.4 secs

     per-process dynamical memory:    20.4 Mb

     Self-consistent Calculation

     iteration #  1     ecut=    30.00 Ry     beta=0.70
     Davidson diagonalization with overlap
     ethr =  1.00E-06,  avg # of iterations = 20.0

     negative rho (up, down):  1.122E-01 0.000E+00

     total cpu time spent up to now is        2.6 secs

     total energy              =     -26.37687948 Ry
     Harris-Foulkes estimate   =     -32.63378778 Ry
     estimated scf accuracy    <       5.37163377 Ry

     iteration #  2     ecut=    30.00 Ry     beta=0.70
     Davidson diagonalization with overlap
     ethr =  1.00E-02,  avg # of iterations =  4.0

     negative rho (up, down):  8.174E-02 0.000E+00

     total cpu time spent up to now is        2.6 secs

     total energy              =     -32.74679012 Ry
     Harris-Foulkes estimate   =     -38.56346351 Ry
     estimated scf accuracy    <      14.26673467 Ry

     iteration #  3     ecut=    30.00 Ry     beta=0.70
     Davidson diagonalization with overlap
     ethr =  1.00E-02,  avg # of iterations =  2.0

     negative rho (up, down):  6.886E-02 0.000E+00

     total cpu time spent up to now is        2.7 secs

     total energy              =     -32.11742249 Ry
     Harris-Foulkes estimate   =     -33.12440963 Ry
     estimated scf accuracy    <       5.37566384 Ry

     iteration #  4     ecut=    30.00 Ry     beta=0.70
     Davidson diagonalization with overlap
     ethr =  1.00E-02,  avg # of iterations =  3.0

     negative rho (up, down):  3.280E-02 0.000E+00

     total cpu time spent up to now is        2.7 secs

     total energy              =     -30.47373503 Ry
     Harris-Foulkes estimate   =     -32.13972145 Ry
     estimated scf accuracy    <       3.73095971 Ry

     iteration #  5     ecut=    30.00 Ry     beta=0.70
     Davidson diagonalization with overlap
     ethr =  1.00E-02,  avg # of iterations =  2.0

     negative rho (up, down):  1.420E-02 0.000E+00

     total cpu time spent up to now is        2.8 secs

     total energy              =     -31.69732194 Ry
     Harris-Foulkes estimate   =     -32.92203677 Ry
     estimated scf accuracy    <       7.65925974 Ry

     iteration #  6     ecut=    30.00 Ry     beta=0.70
     Davidson diagonalization with overlap
     ethr =  1.00E-02,  avg # of iterations =  1.0

     negative rho (up, down):  3.202E-02 0.000E+00

     total cpu time spent up to now is        2.8 secs

     total energy              =     -31.87162825 Ry
     Harris-Foulkes estimate   =     -31.89083041 Ry
     estimated scf accuracy    <       4.04446112 Ry

     iteration #  7     ecut=    30.00 Ry     beta=0.70
     Davidson diagonalization with overlap
     ethr =  1.00E-02,  avg # of iterations =  1.0

     negative rho (up, down):  2.021E-01 0.000E+00

     total cpu time spent up to now is        2.9 secs

     total energy              =     -31.48421577 Ry
     Harris-Foulkes estimate   =     -31.87285040 Ry
     estimated scf accuracy    <       3.98876394 Ry

     iteration #  8     ecut=    30.00 Ry     beta=0.70
     Davidson diagonalization with overlap
     ethr =  1.00E-02,  avg # of iterations =  1.0

     negative rho (up, down):  2.052E-01 0.000E+00

     total cpu time spent up to now is        2.9 secs

     total energy              =     -31.51634552 Ry
     Harris-Foulkes estimate   =     -31.51717840 Ry
     estimated scf accuracy    <       1.62886592 Ry

     iteration #  9     ecut=    30.00 Ry     beta=0.70
     Davidson diagonalization with overlap
     ethr =  1.00E-02,  avg # of iterations =  1.0

     negative rho (up, down):  2.438E-01 0.000E+00

     total cpu time spent up to now is        3.0 secs

     total energy              =     -31.22815797 Ry
     Harris-Foulkes estimate   =     -31.51713499 Ry
     estimated scf accuracy    <       1.92459872 Ry

     iteration # 10     ecut=    30.00 Ry     beta=0.70
     Davidson diagonalization with overlap
     ethr =  1.00E-02,  avg # of iterations =  1.0

     negative rho (up, down):  4.065E-01 0.000E+00

     total cpu time spent up to now is        3.0 secs

     total energy              =     -32.34540921 Ry
     Harris-Foulkes estimate   =     -31.74487556 Ry
     estimated scf accuracy    <       2.85468130 Ry

     iteration # 11     ecut=    30.00 Ry     beta=0.70
     Davidson diagonalization with overlap
     ethr =  1.00E-02,  avg # of iterations =  1.0

     negative rho (up, down):  3.482E-01 0.000E+00

     total cpu time spent up to now is        3.1 secs

     total energy              =     -32.22967402 Ry
     Harris-Foulkes estimate   =     -32.37196905 Ry
     estimated scf accuracy    <       3.79515088 Ry

     iteration # 12     ecut=    30.00 Ry     beta=0.70
     Davidson diagonalization with overlap
     ethr =  1.00E-02,  avg # of iterations =  1.0

     negative rho (up, down):  3.954E-01 0.000E+00

     total cpu time spent up to now is        3.1 secs

     total energy              =     -32.27906956 Ry
     Harris-Foulkes estimate   =     -32.21995978 Ry
     estimated scf accuracy    <       3.57715968 Ry

     iteration # 13     ecut=    30.00 Ry     beta=0.70
     Davidson diagonalization with overlap
     ethr =  1.00E-02,  avg # of iterations =  1.0

     negative rho (up, down):  4.772E-01 0.000E+00

     total cpu time spent up to now is        3.2 secs

     total energy              =     -32.73610451 Ry
     Harris-Foulkes estimate   =     -32.28928415 Ry
     estimated scf accuracy    <       3.64600706 Ry

     iteration # 14     ecut=    30.00 Ry     beta=0.70
     Davidson diagonalization with overlap
     ethr =  1.00E-02,  avg # of iterations =  1.0

     negative rho (up, down):  1.175E-03 0.000E+00

     total cpu time spent up to now is        3.2 secs

     total energy              =     -31.17440152 Ry
     Harris-Foulkes estimate   =     -32.73834468 Ry
     estimated scf accuracy    <       4.30501900 Ry

     iteration # 15     ecut=    30.00 Ry     beta=0.70
     Davidson diagonalization with overlap
     ethr =  1.00E-02,  avg # of iterations =  2.0

     negative rho (up, down):  4.107E-04 0.000E+00

     total cpu time spent up to now is        3.3 secs

     total energy              =     -31.64541906 Ry
     Harris-Foulkes estimate   =     -31.80114162 Ry
     estimated scf accuracy    <       3.74725322 Ry

     iteration # 16     ecut=    30.00 Ry     beta=0.70
     Davidson diagonalization with overlap
     ethr =  1.00E-02,  avg # of iterations =  1.0

     negative rho (up, down):  3.341E-04 0.000E+00

     total cpu time spent up to now is        3.3 secs

     total energy              =     -31.55297621 Ry
     Harris-Foulkes estimate   =     -31.64931077 Ry
     estimated scf accuracy    <       3.23651310 Ry

     iteration # 17     ecut=    30.00 Ry     beta=0.70
     Davidson diagonalization with overlap
     ethr =  1.00E-02,  avg # of iterations =  1.0

     negative rho (up, down):  8.767E-04 0.000E+00

     total cpu time spent up to now is        3.4 secs

     total energy              =     -31.50251509 Ry
     Harris-Foulkes estimate   =     -31.55320696 Ry
     estimated scf accuracy    <       2.64860430 Ry

     iteration # 18     ecut=    30.00 Ry     beta=0.70
     Davidson diagonalization with overlap
     ethr =  1.00E-02,  avg # of iterations =  1.0

     negative rho (up, down):  4.107E-04 0.000E+00

     total cpu time spent up to now is        3.4 secs

     total energy              =     -31.53115925 Ry
     Harris-Foulkes estimate   =     -31.52285625 Ry
     estimated scf accuracy    <       0.13977137 Ry

     iteration # 19     ecut=    30.00 Ry     beta=0.70
     Davidson diagonalization with overlap
     ethr =  1.75E-03,  avg # of iterations =  1.0

     negative rho (up, down):  1.995E-05 0.000E+00

     total cpu time spent up to now is        3.4 secs

     total energy              =     -31.31880453 Ry
     Harris-Foulkes estimate   =     -31.54793282 Ry
     estimated scf accuracy    <       2.19609247 Ry

     iteration # 20     ecut=    30.00 Ry     beta=0.70
     Davidson diagonalization with overlap
     ethr =  1.75E-03,  avg # of iterations =  1.0

     negative rho (up, down):  3.236E-05 0.000E+00

     total cpu time spent up to now is        3.5 secs

     total energy              =     -31.67393397 Ry
     Harris-Foulkes estimate   =     -31.67474222 Ry
     estimated scf accuracy    <       2.53922564 Ry

     iteration # 21     ecut=    30.00 Ry     beta=0.70
     Davidson diagonalization with overlap
     ethr =  1.75E-03,  avg # of iterations =  1.0

     total cpu time spent up to now is        3.5 secs

     total energy              =     -31.51826457 Ry
     Harris-Foulkes estimate   =     -31.67405108 Ry
     estimated scf accuracy    <       2.53258631 Ry

     iteration # 22     ecut=    30.00 Ry     beta=0.70
     Davidson diagonalization with overlap
     ethr =  1.75E-03,  avg # of iterations =  1.0

     negative rho (up, down):  8.612E-05 0.000E+00

     total cpu time spent up to now is        3.6 secs

     total energy              =     -31.48070799 Ry
     Harris-Foulkes estimate   =     -31.53434582 Ry
     estimated scf accuracy    <       1.00142146 Ry

     iteration # 23     ecut=    30.00 Ry     beta=0.70
     Davidson diagonalization with overlap
     ethr =  1.75E-03,  avg # of iterations =  1.0

     negative rho (up, down):  6.136E-05 0.000E+00

     total cpu time spent up to now is        3.7 secs

     total energy              =     -31.52825477 Ry
     Harris-Foulkes estimate   =     -31.53269052 Ry
     estimated scf accuracy    <       1.34684515 Ry

     iteration # 24     ecut=    30.00 Ry     beta=0.70
     Davidson diagonalization with overlap
     ethr =  1.75E-03,  avg # of iterations =  1.0

     negative rho (up, down):  8.247E-05 0.000E+00

     total cpu time spent up to now is        3.7 secs

     total energy              =     -31.48180869 Ry
     Harris-Foulkes estimate   =     -31.52854782 Ry
     estimated scf accuracy    <       1.01797572 Ry

     iteration # 25     ecut=    30.00 Ry     beta=0.70
     Davidson diagonalization with overlap
     ethr =  1.75E-03,  avg # of iterations =  1.0

     negative rho (up, down):  8.680E-05 0.000E+00

     total cpu time spent up to now is        3.8 secs

     total energy              =     -31.52617833 Ry
     Harris-Foulkes estimate   =     -31.53035771 Ry
     estimated scf accuracy    <       0.88684314 Ry

     iteration # 26     ecut=    30.00 Ry     beta=0.70
     Davidson diagonalization with overlap
     ethr =  1.75E-03,  avg # of iterations =  1.0

     negative rho (up, down):  9.793E-06 0.000E+00

     total cpu time spent up to now is        3.8 secs

     total energy              =     -31.51837963 Ry
     Harris-Foulkes estimate   =     -31.52652064 Ry
     estimated scf accuracy    <       0.67781807 Ry

     iteration # 27     ecut=    30.00 Ry     beta=0.70
     Davidson diagonalization with overlap
     ethr =  1.75E-03,  avg # of iterations =  1.0

     negative rho (up, down):  2.909E-06 0.000E+00

     total cpu time spent up to now is        3.9 secs

     total energy              =     -31.52148610 Ry
     Harris-Foulkes estimate   =     -31.51994524 Ry
     estimated scf accuracy    <       0.23575820 Ry

     iteration # 28     ecut=    30.00 Ry     beta=0.70
     Davidson diagonalization with overlap
     ethr =  1.75E-03,  avg # of iterations =  1.0

     total cpu time spent up to now is        3.9 secs

     total energy              =     -31.51394833 Ry
     Harris-Foulkes estimate   =     -31.52173171 Ry
     estimated scf accuracy    <       0.37534654 Ry

     iteration # 29     ecut=    30.00 Ry     beta=0.70
     Davidson diagonalization with overlap
     ethr =  1.75E-03,  avg # of iterations =  1.0

     total cpu time spent up to now is        4.0 secs

     total energy              =     -31.51668159 Ry
     Harris-Foulkes estimate   =     -31.51721351 Ry
     estimated scf accuracy    <       0.00772082 Ry

     iteration # 30     ecut=    30.00 Ry     beta=0.70
     Davidson diagonalization with overlap
     ethr =  9.65E-05,  avg # of iterations =  1.0

     total cpu time spent up to now is        4.0 secs

     total energy              =     -31.51705010 Ry
     Harris-Foulkes estimate   =     -31.51759263 Ry
     estimated scf accuracy    <       0.04752684 Ry

     iteration # 31     ecut=    30.00 Ry     beta=0.70
     Davidson diagonalization with overlap
     ethr =  9.65E-05,  avg # of iterations =  1.0

     total cpu time spent up to now is        4.1 secs

     total energy              =     -31.51694986 Ry
     Harris-Foulkes estimate   =     -31.51719735 Ry
     estimated scf accuracy    <       0.00990797 Ry

     iteration # 32     ecut=    30.00 Ry     beta=0.70
     Davidson diagonalization with overlap
     ethr =  9.65E-05,  avg # of iterations =  1.0

     total cpu time spent up to now is        4.1 secs

     total energy              =     -31.51708779 Ry
     Harris-Foulkes estimate   =     -31.51709343 Ry
     estimated scf accuracy    <       0.00021038 Ry

     iteration # 33     ecut=    30.00 Ry     beta=0.70
     Davidson diagonalization with overlap
     ethr =  2.63E-06,  avg # of iterations = 15.0

     total cpu time spent up to now is        4.2 secs

     total energy              =     -31.51709078 Ry
     Harris-Foulkes estimate   =     -31.51709099 Ry
     estimated scf accuracy    <       0.00000186 Ry

     iteration # 34     ecut=    30.00 Ry     beta=0.70
     Davidson diagonalization with overlap
     ethr =  2.33E-08,  avg # of iterations =  1.0

     total cpu time spent up to now is        4.2 secs

     total energy              =     -31.51709085 Ry
     Harris-Foulkes estimate   =     -31.51709086 Ry
     estimated scf accuracy    <       0.00000075 Ry

     iteration # 35     ecut=    30.00 Ry     beta=0.70
     Davidson diagonalization with overlap
     ethr =  9.32E-09,  avg # of iterations =  1.0

     total cpu time spent up to now is        4.3 secs

     total energy              =     -31.51709082 Ry
     Harris-Foulkes estimate   =     -31.51709085 Ry
     estimated scf accuracy    <       0.00000048 Ry

     iteration # 36     ecut=    30.00 Ry     beta=0.70
     Davidson diagonalization with overlap
     ethr =  5.95E-09,  avg # of iterations =  1.0

     total cpu time spent up to now is        4.3 secs

     total energy              =     -31.51709083 Ry
     Harris-Foulkes estimate   =     -31.51709083 Ry
     estimated scf accuracy    <       0.00000002 Ry

     iteration # 37     ecut=    30.00 Ry     beta=0.70
     Davidson diagonalization with overlap
     ethr =  2.26E-10,  avg # of iterations =  1.0

     total cpu time spent up to now is        4.4 secs

     End of self-consistent calculation

          k = 0.0000 0.0000 0.0000 ( 22119 PWs)   bands (ev):

   -23.6596  -7.3238  -7.0533  -7.0528  -6.9475  -6.6673  -0.1786   0.6714

     the Fermi energy is    -6.9162 ev

!    total energy              =     -31.51709082 Ry
     Harris-Foulkes estimate   =     -31.51709083 Ry
     estimated scf accuracy    <          1.2E-09 Ry

     convergence has been achieved in  37 iterations

     Forces acting on atoms (Ry/au):

     atom    1 type  2   force =     0.02505869   -0.01229872    0.02318980
     atom    2 type  1   force =    -0.00036673   -0.00038553    0.00038330
     atom    3 type  1   force =    -0.02469195    0.01268425   -0.02357310

     Total force =     0.051417     Total SCF correction =     0.000066

     Entering Dynamics:    iteration =     2
                           time      =   0.0097 pico-seconds


     Andersen thermostat:    3 collisions

ATOMIC_POSITIONS (bohr)
O        7.325043720  10.036269222   2.444367619
H       17.611074051   1.361319409  10.702558094
H       10.797165379   8.502195742   5.887035184


     kinetic energy (Ekin) =     0.01743181 Ry
     temperature           =   917.42050566 K 
     Ekin + Etot (const)   =   -31.49965901 Ry
     Message from routine dynamics:
     Total linear momentum <> 0

     Linear momentum :    0.0316409203    0.3676783473    0.1781879288

     Writing output data file pwscf.save

     first order wave-functions extrapolation
     Check: negative starting charge=   -0.345091
     first order charge density extrapolation
     Check: negative starting charge=   -0.344820

     negative rho (up, down):  4.922E-01 0.000E+00

     total cpu time spent up to now is        4.8 secs

     per-process dynamical memory:    20.4 Mb

     Self-consistent Calculation

     iteration #  1     ecut=    30.00 Ry     beta=0.70
     Davidson diagonalization with overlap
     ethr =  1.00E-06,  avg # of iterations =  9.0

     negative rho (up, down):  1.320E-01 0.000E+00

     total cpu time spent up to now is        5.0 secs

     total energy              =      17.35607294 Ry
     Harris-Foulkes estimate   =     -55.70568285 Ry
     estimated scf accuracy    <      17.56220293 Ry

     iteration #  2     ecut=    30.00 Ry     beta=0.70
     Davidson diagonalization with overlap
     ethr =  1.00E-02,  avg # of iterations =  6.0

     negative rho (up, down):  7.840E-02 0.000E+00

     total cpu time spent up to now is        5.0 secs

     total energy              =     -33.72484716 Ry
     Harris-Foulkes estimate   =     -41.15844778 Ry
     estimated scf accuracy    <      14.70560625 Ry

     iteration #  3     ecut=    30.00 Ry     beta=0.70
     Davidson diagonalization with overlap
     ethr =  1.00E-02,  avg # of iterations =  4.0

     negative rho (up, down):  6.663E-02 0.000E+00

     total cpu time spent up to now is        5.1 secs

     total energy              =     -32.97935969 Ry
     Harris-Foulkes estimate   =     -34.31035492 Ry
     estimated scf accuracy    <       8.07471629 Ry

     iteration #  4     ecut=    30.00 Ry     beta=0.70
     Davidson diagonalization with overlap
     ethr =  1.00E-02,  avg # of iterations =  1.0

     negative rho (up, down):  5.321E-02 0.000E+00

     total cpu time spent up to now is        5.1 secs

     total energy              =     -32.66294099 Ry
     Harris-Foulkes estimate   =     -33.76635140 Ry
     estimated scf accuracy    <       4.98115973 Ry

     iteration #  5     ecut=    30.00 Ry     beta=0.70
     Davidson diagonalization with overlap
     ethr =  1.00E-02,  avg # of iterations =  1.0

     negative rho (up, down):  3.963E-02 0.000E+00

     total cpu time spent up to now is        5.2 secs

     total energy              =     -32.14805964 Ry
     Harris-Foulkes estimate   =     -33.08933122 Ry
     estimated scf accuracy    <       3.75269066 Ry

     iteration #  6     ecut=    30.00 Ry     beta=0.70
     Davidson diagonalization with overlap
     ethr =  1.00E-02,  avg # of iterations =  1.0

     negative rho (up, down):  3.581E-02 0.000E+00

     total cpu time spent up to now is        5.2 secs

     total energy              =     -32.09369136 Ry
     Harris-Foulkes estimate   =     -32.27847000 Ry
     estimated scf accuracy    <       2.19541828 Ry

     iteration #  7     ecut=    30.00 Ry     beta=0.70
     Davidson diagonalization with overlap
     ethr =  1.00E-02,  avg # of iterations =  1.0

     negative rho (up, down):  2.132E-02 0.000E+00

     total cpu time spent up to now is        5.3 secs

     total energy              =     -31.66363605 Ry
     Harris-Foulkes estimate   =     -32.10048331 Ry
     estimated scf accuracy    <       1.65156910 Ry

     iteration #  8     ecut=    30.00 Ry     beta=0.70
     Davidson diagonalization with overlap
     ethr =  1.00E-02,  avg # of iterations =  1.0

     negative rho (up, down):  1.737E-02 0.000E+00

     total cpu time spent up to now is        5.3 secs

     total energy              =     -31.60682502 Ry
     Harris-Foulkes estimate   =     -31.68443924 Ry
     estimated scf accuracy    <       0.58888410 Ry

     iteration #  9     ecut=    30.00 Ry     beta=0.70
     Davidson diagonalization with overlap
     ethr =  7.36E-03,  avg # of iterations =  1.0

     negative rho (up, down):  8.854E-03 0.000E+00

     total cpu time spent up to now is        5.4 secs

     total energy              =     -31.51973890 Ry
     Harris-Foulkes estimate   =     -31.61303871 Ry
     estimated scf accuracy    <       0.29102471 Ry

     iteration # 10     ecut=    30.00 Ry     beta=0.70
     Davidson diagonalization with overlap
     ethr =  3.64E-03,  avg # of iterations =  1.0

     negative rho (up, down):  7.599E-05 0.000E+00

     total cpu time spent up to now is        5.4 secs

     total energy              =     -31.56233635 Ry
     Harris-Foulkes estimate   =     -31.54241245 Ry
     estimated scf accuracy    <       0.14984625 Ry

     iteration # 11     ecut=    30.00 Ry     beta=0.70
     Davidson diagonalization with overlap
     ethr =  1.87E-03,  avg # of iterations =  1.0

     negative rho (up, down):  1.627E-05 0.000E+00

     total cpu time spent up to now is        5.5 secs

     total energy              =     -31.53236409 Ry
     Harris-Foulkes estimate   =     -31.58045586 Ry
     estimated scf accuracy    <       0.84263144 Ry

     iteration # 12     ecut=    30.00 Ry     beta=0.70
     Davidson diagonalization with overlap
     ethr =  1.87E-03,  avg # of iterations =  1.0

     negative rho (up, down):  4.801E-06 0.000E+00

     total cpu time spent up to now is        5.5 secs

     total energy              =     -31.52934775 Ry
     Harris-Foulkes estimate   =     -31.57569676 Ry
     estimated scf accuracy    <       1.19119024 Ry

     iteration # 13     ecut=    30.00 Ry     beta=0.70
     Davidson diagonalization with overlap
     ethr =  1.87E-03,  avg # of iterations =  1.0

     negative rho (up, down):  9.292E-06 0.000E+00

     total cpu time spent up to now is        5.6 secs

     total energy              =     -31.54458457 Ry
     Harris-Foulkes estimate   =     -31.56410659 Ry
     estimated scf accuracy    <       0.41263833 Ry

     iteration # 14     ecut=    30.00 Ry     beta=0.70
     Davidson diagonalization with overlap
     ethr =  1.87E-03,  avg # of iterations =  1.0

     negative rho (up, down):  1.715E-05 0.000E+00

     total cpu time spent up to now is        5.6 secs

     total energy              =     -31.54577208 Ry
     Harris-Foulkes estimate   =     -31.56065330 Ry
     estimated scf accuracy    <       0.41132318 Ry

     iteration # 15     ecut=    30.00 Ry     beta=0.70
     Davidson diagonalization with overlap
     ethr =  1.87E-03,  avg # of iterations =  1.0

     negative rho (up, down):  2.196E-05 0.000E+00

     total cpu time spent up to now is        5.7 secs

     total energy              =     -31.55783502 Ry
     Harris-Foulkes estimate   =     -31.55656148 Ry
     estimated scf accuracy    <       0.17839869 Ry

     iteration # 16     ecut=    30.00 Ry     beta=0.70
     Davidson diagonalization with overlap
     ethr =  1.87E-03,  avg # of iterations =  1.0

     negative rho (up, down):  3.442E-05 0.000E+00

     total cpu time spent up to now is        5.7 secs

     total energy              =     -31.55835553 Ry
     Harris-Foulkes estimate   =     -31.55795779 Ry
     estimated scf accuracy    <       0.25114092 Ry

     iteration # 17     ecut=    30.00 Ry     beta=0.70
     Davidson diagonalization with overlap
     ethr =  1.87E-03,  avg # of iterations =  1.0

     negative rho (up, down):  1.324E-06 0.000E+00

     total cpu time spent up to now is        5.8 secs

     total energy              =     -31.54893306 Ry
     Harris-Foulkes estimate   =     -31.55875159 Ry
     estimated scf accuracy    <       0.15124511 Ry

     iteration # 18     ecut=    30.00 Ry     beta=0.70
     Davidson diagonalization with overlap
     ethr =  1.87E-03,  avg # of iterations =  1.0

     negative rho (up, down):  1.981E-07 0.000E+00

     total cpu time spent up to now is        5.8 secs

     total energy              =     -31.54260684 Ry
     Harris-Foulkes estimate   =     -31.55021158 Ry
     estimated scf accuracy    <       0.09798680 Ry

     iteration # 19     ecut=    30.00 Ry     beta=0.70
     Davidson diagonalization with overlap
     ethr =  1.22E-03,  avg # of iterations =  1.0

     total cpu time spent up to now is        5.9 secs

     total energy              =     -31.54549324 Ry
     Harris-Foulkes estimate   =     -31.54602622 Ry
     estimated scf accuracy    <       0.00691619 Ry

     iteration # 20     ecut=    30.00 Ry     beta=0.70
     Davidson diagonalization with overlap
     ethr =  8.65E-05,  avg # of iterations =  1.0

     total cpu time spent up to now is        5.9 secs

     total energy              =     -31.54554392 Ry
     Harris-Foulkes estimate   =     -31.54569857 Ry
     estimated scf accuracy    <       0.00107051 Ry

     iteration # 21     ecut=    30.00 Ry     beta=0.70
     Davidson diagonalization with overlap
     ethr =  1.34E-05,  avg # of iterations =  7.0

     total cpu time spent up to now is        6.0 secs

     total energy              =     -31.54560823 Ry
     Harris-Foulkes estimate   =     -31.54566358 Ry
     estimated scf accuracy    <       0.00122706 Ry

     iteration # 22     ecut=    30.00 Ry     beta=0.70
     Davidson diagonalization with overlap
     ethr =  1.34E-05,  avg # of iterations =  1.0

     total cpu time spent up to now is        6.0 secs

     total energy              =     -31.54562739 Ry
     Harris-Foulkes estimate   =     -31.54562944 Ry
     estimated scf accuracy    <       0.00002899 Ry

     iteration # 23     ecut=    30.00 Ry     beta=0.70
     Davidson diagonalization with overlap
     ethr =  3.62E-07,  avg # of iterations =  1.0

     total cpu time spent up to now is        6.1 secs

     total energy              =     -31.54562703 Ry
     Harris-Foulkes estimate   =     -31.54562771 Ry
     estimated scf accuracy    <       0.00000139 Ry

     iteration # 24     ecut=    30.00 Ry     beta=0.70
     Davidson diagonalization with overlap
     ethr =  1.73E-08,  avg # of iterations =  1.0

     total cpu time spent up to now is        6.1 secs

     total energy              =     -31.54562693 Ry
     Harris-Foulkes estimate   =     -31.54562705 Ry
     estimated scf accuracy    <       0.00000009 Ry

     iteration # 25     ecut=    30.00 Ry     beta=0.70
     Davidson diagonalization with overlap
     ethr =  1.13E-09,  avg # of iterations =  1.0

     total cpu time spent up to now is        6.2 secs

     total energy              =     -31.54562684 Ry
     Harris-Foulkes estimate   =     -31.54562693 Ry
     estimated scf accuracy    <       0.00000004 Ry

     iteration # 26     ecut=    30.00 Ry     beta=0.70
     Davidson diagonalization with overlap
     ethr =  5.13E-10,  avg # of iterations =  1.0

     total cpu time spent up to now is        6.2 secs

     End of self-consistent calculation

          k = 0.0000 0.0000 0.0000 ( 22119 PWs)   bands (ev):

   -23.6433  -7.5848  -6.9912  -6.9904  -6.8692  -6.5133  -0.1683   0.6857

     the Fermi energy is    -6.8361 ev

!    total energy              =     -31.54562679 Ry
     Harris-Foulkes estimate   =     -31.54562684 Ry
     estimated scf accuracy    <          8.7E-09 Ry

     convergence has been achieved in  26 iterations

     Forces acting on atoms (Ry/au):

     atom    1 type  2   force =     0.03441348   -0.01430892    0.03306070
     atom    2 type  1   force =    -0.00020279   -0.00030579    0.00033238
     atom    3 type  1   force =    -0.03421069    0.01461471   -0.03339308

     Total force =     0.070579     Total SCF correction =     0.000069

     Entering Dynamics:    iteration =     3
                           time      =   0.0145 pico-seconds


     Andersen thermostat:    3 collisions

ATOMIC_POSITIONS (bohr)
O        7.333360197  10.032864676   2.464919807
H       17.736842545   1.444159392  10.995807647
H       10.539650720   8.473289149   5.268206428


     kinetic energy (Ekin) =     0.01834345 Ry
     temperature           =   965.39954542 K 
     Ekin + Etot (const)   =   -31.52728334 Ry
     Message from routine dynamics:
     Total linear momentum <> 0

     Linear momentum :    0.3679424336   -0.4059240373    0.0655390169

     Writing output data file pwscf.save

     second order wave-functions extrapolation
     Check: negative starting charge=   -0.344820
     second order charge density extrapolation
     Check: negative starting charge=   -0.345105

     negative rho (up, down):  4.768E-02 0.000E+00

     total cpu time spent up to now is        6.7 secs

     per-process dynamical memory:    20.4 Mb

     Self-consistent Calculation

     iteration #  1     ecut=    30.00 Ry     beta=0.70
     Davidson diagonalization with overlap
     ethr =  1.00E-06,  avg # of iterations = 14.0

     negative rho (up, down):  9.311E-03 0.000E+00

     total cpu time spent up to now is        6.9 secs

     total energy              =     -11.20119705 Ry
     Harris-Foulkes estimate   =     -49.42670261 Ry
     estimated scf accuracy    <       5.71500407 Ry

     iteration #  2     ecut=    30.00 Ry     beta=0.70
     Davidson diagonalization with overlap
     ethr =  1.00E-02,  avg # of iterations =  3.0

     negative rho (up, down):  5.643E-03 0.000E+00

     total cpu time spent up to now is        6.9 secs

     total energy              =     -32.19117440 Ry
     Harris-Foulkes estimate   =     -34.83062930 Ry
     estimated scf accuracy    <       5.72563890 Ry

     iteration #  3     ecut=    30.00 Ry     beta=0.70
     Davidson diagonalization with overlap
     ethr =  1.00E-02,  avg # of iterations =  3.0

     negative rho (up, down):  5.123E-03 0.000E+00

     total cpu time spent up to now is        7.0 secs

     total energy              =     -32.10310481 Ry
     Harris-Foulkes estimate   =     -32.92370108 Ry
     estimated scf accuracy    <       4.38407970 Ry

     iteration #  4     ecut=    30.00 Ry     beta=0.70
     Davidson diagonalization with overlap
     ethr =  1.00E-02,  avg # of iterations =  1.0

     negative rho (up, down):  4.005E-03 0.000E+00

     total cpu time spent up to now is        7.0 secs

     total energy              =     -31.90873528 Ry
     Harris-Foulkes estimate   =     -32.28706368 Ry
     estimated scf accuracy    <       2.09237369 Ry

     iteration #  5     ecut=    30.00 Ry     beta=0.70
     Davidson diagonalization with overlap
     ethr =  1.00E-02,  avg # of iterations =  3.0

     negative rho (up, down):  2.764E-03 0.000E+00

     total cpu time spent up to now is        7.1 secs

     total energy              =     -31.57858985 Ry
     Harris-Foulkes estimate   =     -31.97834337 Ry
     estimated scf accuracy    <       2.19554830 Ry

     iteration #  6     ecut=    30.00 Ry     beta=0.70
     Davidson diagonalization with overlap
     ethr =  1.00E-02,  avg # of iterations =  1.0

     negative rho (up, down):  2.161E-03 0.000E+00

     total cpu time spent up to now is        7.1 secs

     total energy              =     -31.73853710 Ry
     Harris-Foulkes estimate   =     -31.85251941 Ry
     estimated scf accuracy    <       1.50301189 Ry

     iteration #  7     ecut=    30.00 Ry     beta=0.70
     Davidson diagonalization with overlap
     ethr =  1.00E-02,  avg # of iterations =  1.0

     negative rho (up, down):  4.918E-04 0.000E+00

     total cpu time spent up to now is        7.1 secs

     total energy              =     -31.48534995 Ry
     Harris-Foulkes estimate   =     -31.74363149 Ry
     estimated scf accuracy    <       1.33143765 Ry

     iteration #  8     ecut=    30.00 Ry     beta=0.70
     Davidson diagonalization with overlap
     ethr =  1.00E-02,  avg # of iterations =  2.0

     negative rho (up, down):  1.310E-03 0.000E+00

     total cpu time spent up to now is        7.2 secs

     total energy              =     -31.52654203 Ry
     Harris-Foulkes estimate   =     -31.68678888 Ry
     estimated scf accuracy    <       1.47451782 Ry

     iteration #  9     ecut=    30.00 Ry     beta=0.70
     Davidson diagonalization with overlap
     ethr =  1.00E-02,  avg # of iterations =  1.0

     negative rho (up, down):  1.333E-03 0.000E+00

     total cpu time spent up to now is        7.2 secs

     total energy              =     -31.60824786 Ry
     Harris-Foulkes estimate   =     -31.60657041 Ry
     estimated scf accuracy    <       0.13879293 Ry

     iteration # 10     ecut=    30.00 Ry     beta=0.70
     Davidson diagonalization with overlap
     ethr =  1.73E-03,  avg # of iterations =  1.0

     negative rho (up, down):  8.027E-07 0.000E+00

     total cpu time spent up to now is        7.3 secs

     total energy              =     -31.57921158 Ry
     Harris-Foulkes estimate   =     -31.60953995 Ry
     estimated scf accuracy    <       0.12927804 Ry

     iteration # 11     ecut=    30.00 Ry     beta=0.70
     Davidson diagonalization with overlap
     ethr =  1.62E-03,  avg # of iterations =  2.0

     negative rho (up, down):  5.476E-07 0.000E+00

     total cpu time spent up to now is        7.3 secs

     total energy              =     -31.62292399 Ry
     Harris-Foulkes estimate   =     -31.87971501 Ry
     estimated scf accuracy    <       4.11255174 Ry

     iteration # 12     ecut=    30.00 Ry     beta=0.70
     Davidson diagonalization with overlap
     ethr =  1.62E-03,  avg # of iterations =  1.0

     negative rho (up, down):  2.846E-07 0.000E+00

     total cpu time spent up to now is        7.4 secs

     total energy              =     -31.50488909 Ry
     Harris-Foulkes estimate   =     -31.64952314 Ry
     estimated scf accuracy    <       2.65444376 Ry

     iteration # 13     ecut=    30.00 Ry     beta=0.70
     Davidson diagonalization with overlap
     ethr =  1.62E-03,  avg # of iterations =  1.0

     negative rho (up, down):  2.407E-07 0.000E+00

     total cpu time spent up to now is        7.4 secs

     total energy              =     -31.57357341 Ry
     Harris-Foulkes estimate   =     -31.59810482 Ry
     estimated scf accuracy    <       0.64638124 Ry

     iteration # 14     ecut=    30.00 Ry     beta=0.70
     Davidson diagonalization with overlap
     ethr =  1.62E-03,  avg # of iterations =  1.0

     negative rho (up, down):  7.784E-08 0.000E+00

     total cpu time spent up to now is        7.5 secs

     total energy              =     -31.58882958 Ry
     Harris-Foulkes estimate   =     -31.58821590 Ry
     estimated scf accuracy    <       0.08425065 Ry

     iteration # 15     ecut=    30.00 Ry     beta=0.70
     Davidson diagonalization with overlap
     ethr =  1.05E-03,  avg # of iterations =  1.0

     negative rho (up, down):  5.895E-08 0.000E+00

     total cpu time spent up to now is        7.5 secs

     total energy              =     -31.58966536 Ry
     Harris-Foulkes estimate   =     -31.58896659 Ry
     estimated scf accuracy    <       0.09922244 Ry

     iteration # 16     ecut=    30.00 Ry     beta=0.70
     Davidson diagonalization with overlap
     ethr =  1.05E-03,  avg # of iterations =  1.0

     negative rho (up, down):  1.309E-07 0.000E+00

     total cpu time spent up to now is        7.6 secs

     total energy              =     -31.59171093 Ry
     Harris-Foulkes estimate   =     -31.58983830 Ry
     estimated scf accuracy    <       0.09323318 Ry

     iteration # 17     ecut=    30.00 Ry     beta=0.70
     Davidson diagonalization with overlap
     ethr =  1.05E-03,  avg # of iterations =  1.0

     negative rho (up, down):  2.311E-07 0.000E+00

     total cpu time spent up to now is        7.6 secs

     total energy              =     -31.57863051 Ry
     Harris-Foulkes estimate   =     -31.59345394 Ry
     estimated scf accuracy    <       0.41856108 Ry

     iteration # 18     ecut=    30.00 Ry     beta=0.70
     Davidson diagonalization with overlap
     ethr =  1.05E-03,  avg # of iterations =  1.0

     negative rho (up, down):  1.674E-07 0.000E+00

     total cpu time spent up to now is        7.7 secs

     total energy              =     -31.58608236 Ry
     Harris-Foulkes estimate   =     -31.58593200 Ry
     estimated scf accuracy    <       0.00133765 Ry

     iteration # 19     ecut=    30.00 Ry     beta=0.70
     Davidson diagonalization with overlap
     ethr =  1.67E-05,  avg # of iterations =  1.0

     negative rho (up, down):  1.276E-08 0.000E+00

     total cpu time spent up to now is        7.7 secs

     total energy              =     -31.58486898 Ry
     Harris-Foulkes estimate   =     -31.58746253 Ry
     estimated scf accuracy    <       0.03201884 Ry

     iteration # 20     ecut=    30.00 Ry     beta=0.70
     Davidson diagonalization with overlap
     ethr =  1.67E-05,  avg # of iterations =  1.0

     total cpu time spent up to now is        7.8 secs

     total energy              =     -31.58568353 Ry
     Harris-Foulkes estimate   =     -31.58587047 Ry
     estimated scf accuracy    <       0.00187484 Ry

     iteration # 21     ecut=    30.00 Ry     beta=0.70
     Davidson diagonalization with overlap
     ethr =  1.67E-05,  avg # of iterations =  1.0

     total cpu time spent up to now is        7.9 secs

     total energy              =     -31.58576994 Ry
     Harris-Foulkes estimate   =     -31.58577208 Ry
     estimated scf accuracy    <       0.00045182 Ry

     iteration # 22     ecut=    30.00 Ry     beta=0.70
     Davidson diagonalization with overlap
     ethr =  5.65E-06,  avg # of iterations =  7.0

     total cpu time spent up to now is        7.9 secs

     total energy              =     -31.58575251 Ry
     Harris-Foulkes estimate   =     -31.58577457 Ry
     estimated scf accuracy    <       0.00082191 Ry

     iteration # 23     ecut=    30.00 Ry     beta=0.70
     Davidson diagonalization with overlap
     ethr =  5.65E-06,  avg # of iterations =  1.0

     total cpu time spent up to now is        8.0 secs

     total energy              =     -31.58576213 Ry
     Harris-Foulkes estimate   =     -31.58576251 Ry
     estimated scf accuracy    <       0.00000056 Ry

     iteration # 24     ecut=    30.00 Ry     beta=0.70
     Davidson diagonalization with overlap
     ethr =  6.95E-09,  avg # of iterations =  1.0

     total cpu time spent up to now is        8.0 secs

     End of self-consistent calculation

          k = 0.0000 0.0000 0.0000 ( 22119 PWs)   bands (ev):

   -23.6169  -7.8945  -6.9359  -6.9352  -6.8023  -6.1918  -0.1559   0.7102

     the Fermi energy is    -6.7676 ev

!    total energy              =     -31.58576197 Ry
     Harris-Foulkes estimate   =     -31.58576215 Ry
     estimated scf accuracy    <          2.0E-09 Ry

     convergence has been achieved in  24 iterations

     Forces acting on atoms (Ry/au):

     atom    1 type  2   force =     0.06164498   -0.02931349    0.05325958
     atom    2 type  1   force =    -0.00011469   -0.00030640    0.00017937
     atom    3 type  1   force =    -0.06153029    0.02961989   -0.05343894

     Total force =     0.122536     Total SCF correction =     0.000173

     Entering Dynamics:    iteration =     4
                           time      =   0.0194 pico-seconds


     Andersen thermostat:    3 collisions

ATOMIC_POSITIONS (bohr)
O        7.343151694   9.993409294   2.524066480
H       17.629278086   1.203366908  10.793243851
H       10.492102350   9.339117393   4.533793225


     kinetic energy (Ekin) =     0.04461505 Ry
     temperature           =  2348.05010904 K 
     Ekin + Etot (const)   =   -31.54114693 Ry
     Message from routine dynamics:
     Total linear momentum <> 0

     Linear momentum :    0.2868737536    0.0527050046   -0.2617939527

     Writing output data file pwscf.save

     second order wave-functions extrapolation
     Check: negative starting charge=   -0.345105
     second order charge density extrapolation
     Check: negative starting charge=   -0.346136

     negative rho (up, down):  1.659E-01 0.000E+00

     total cpu time spent up to now is        8.5 secs

     per-process dynamical memory:    20.4 Mb

     Self-consistent Calculation

     iteration #  1     ecut=    30.00 Ry     beta=0.70
     Davidson diagonalization with overlap
     ethr =  1.00E-06,  avg # of iterations = 10.0

     negative rho (up, down):  1.886E-02 0.000E+00

     total cpu time spent up to now is        8.7 secs

     total energy              =      60.31867244 Ry
     Harris-Foulkes estimate   =    -314.69911083 Ry
     estimated scf accuracy    <      36.82111224 Ry

     iteration #  2     ecut=    30.00 Ry     beta=0.70
     Davidson diagonalization with overlap
     ethr =  1.00E-02,  avg # of iterations =  4.0

     negative rho (up, down):  1.172E-02 0.000E+00

     total cpu time spent up to now is        8.8 secs

     total energy              =     -36.97846493 Ry
     Harris-Foulkes estimate   =     -54.68706796 Ry
     estimated scf accuracy    <      33.10797873 Ry

     iteration #  3     ecut=    30.00 Ry     beta=0.70
     Davidson diagonalization with overlap
     ethr =  1.00E-02,  avg # of iterations =  3.0

     negative rho (up, down):  7.446E-03 0.000E+00

     total cpu time spent up to now is        8.9 secs

     total energy              =     -33.80570872 Ry
     Harris-Foulkes estimate   =     -37.83197542 Ry
     estimated scf accuracy    <       9.38418874 Ry

     iteration #  4     ecut=    30.00 Ry     beta=0.70
     Davidson diagonalization with overlap
     ethr =  1.00E-02,  avg # of iterations =  2.0

     negative rho (up, down):  7.355E-03 0.000E+00

     total cpu time spent up to now is        8.9 secs

     total energy              =     -34.17059325 Ry
     Harris-Foulkes estimate   =     -34.38000978 Ry
     estimated scf accuracy    <       4.92366744 Ry

     iteration #  5     ecut=    30.00 Ry     beta=0.70
     Davidson diagonalization with overlap
     ethr =  1.00E-02,  avg # of iterations =  1.0

     negative rho (up, down):  7.355E-03 0.000E+00

     total cpu time spent up to now is        9.0 secs

     total energy              =     -34.19047549 Ry
     Harris-Foulkes estimate   =     -34.17749671 Ry
     estimated scf accuracy    <       4.82845973 Ry

     iteration #  6     ecut=    30.00 Ry     beta=0.70
     Davidson diagonalization with overlap
     ethr =  1.00E-02,  avg # of iterations =  1.0

     negative rho (up, down):  2.969E-03 0.000E+00

     total cpu time spent up to now is        9.0 secs

     total energy              =     -32.17983300 Ry
     Harris-Foulkes estimate   =     -34.19020247 Ry
     estimated scf accuracy    <       4.67541558 Ry

     iteration #  7     ecut=    30.00 Ry     beta=0.70
     Davidson diagonalization with overlap
     ethr =  1.00E-02,  avg # of iterations =  4.0

     negative rho (up, down):  4.395E-03 0.000E+00

     total cpu time spent up to now is        9.1 secs

     total energy              =     -32.54267236 Ry
     Harris-Foulkes estimate   =     -32.48877656 Ry
     estimated scf accuracy    <       3.23357326 Ry

     iteration #  8     ecut=    30.00 Ry     beta=0.70
     Davidson diagonalization with overlap
     ethr =  1.00E-02,  avg # of iterations =  2.0

     negative rho (up, down):  3.494E-03 0.000E+00

     total cpu time spent up to now is        9.1 secs

     total energy              =     -32.90337486 Ry
     Harris-Foulkes estimate   =     -33.22081340 Ry
     estimated scf accuracy    <       3.34329659 Ry

     iteration #  9     ecut=    30.00 Ry     beta=0.70
     Davidson diagonalization with overlap
     ethr =  1.00E-02,  avg # of iterations =  1.0

     negative rho (up, down):  2.827E-03 0.000E+00

     total cpu time spent up to now is        9.2 secs

     total energy              =     -32.69971971 Ry
     Harris-Foulkes estimate   =     -32.90800409 Ry
     estimated scf accuracy    <       2.94004942 Ry

     iteration # 10     ecut=    30.00 Ry     beta=0.70
     Davidson diagonalization with overlap
     ethr =  1.00E-02,  avg # of iterations =  1.0

     negative rho (up, down):  1.115E-03 0.000E+00

     total cpu time spent up to now is        9.2 secs

     total energy              =     -32.42134834 Ry
     Harris-Foulkes estimate   =     -32.70666019 Ry
     estimated scf accuracy    <       2.67540987 Ry

     iteration # 11     ecut=    30.00 Ry     beta=0.70
     Davidson diagonalization with overlap
     ethr =  1.00E-02,  avg # of iterations =  3.0

     negative rho (up, down):  2.061E-03 0.000E+00

     total cpu time spent up to now is        9.3 secs

     total energy              =     -33.63571391 Ry
     Harris-Foulkes estimate   =     -33.56803333 Ry
     estimated scf accuracy    <      13.61706350 Ry

     iteration # 12     ecut=    30.00 Ry     beta=0.70
     Davidson diagonalization with overlap
     ethr =  1.00E-02,  avg # of iterations =  3.0

     negative rho (up, down):  2.882E-03 0.000E+00

     total cpu time spent up to now is        9.3 secs

     total energy              =     -33.73448566 Ry
     Harris-Foulkes estimate   =     -33.64464426 Ry
     estimated scf accuracy    <      13.97225589 Ry

     iteration # 13     ecut=    30.00 Ry     beta=0.70
     Davidson diagonalization with overlap
     ethr =  1.00E-02,  avg # of iterations =  1.0

     negative rho (up, down):  3.062E-02 0.000E+00

     total cpu time spent up to now is        9.4 secs

     total energy              =     -34.01358205 Ry
     Harris-Foulkes estimate   =     -33.74001845 Ry
     estimated scf accuracy    <      14.25297432 Ry

     iteration # 14     ecut=    30.00 Ry     beta=0.70
     Davidson diagonalization with overlap
     ethr =  1.00E-02,  avg # of iterations =  1.0

     negative rho (up, down):  2.427E-01 0.000E+00

     total cpu time spent up to now is        9.4 secs

     total energy              =     -30.02106956 Ry
     Harris-Foulkes estimate   =     -34.02110466 Ry
     estimated scf accuracy    <      14.63841118 Ry

     iteration # 15     ecut=    30.00 Ry     beta=0.70
     Davidson diagonalization with overlap
     ethr =  1.00E-02,  avg # of iterations =  3.0

     negative rho (up, down):  4.520E-02 0.000E+00

     total cpu time spent up to now is        9.5 secs

     total energy              =     -31.48126007 Ry
     Harris-Foulkes estimate   =     -31.95409940 Ry
     estimated scf accuracy    <       1.21695731 Ry

     iteration # 16     ecut=    30.00 Ry     beta=0.70
     Davidson diagonalization with overlap
     ethr =  1.00E-02,  avg # of iterations =  2.0

     negative rho (up, down):  1.188E-01 0.000E+00

     total cpu time spent up to now is        9.5 secs

     total energy              =     -31.90301211 Ry
     Harris-Foulkes estimate   =     -31.98166791 Ry
     estimated scf accuracy    <       2.65591624 Ry

     iteration # 17     ecut=    30.00 Ry     beta=0.70
     Davidson diagonalization with overlap
     ethr =  1.00E-02,  avg # of iterations =  1.0

     negative rho (up, down):  2.871E-01 0.000E+00

     total cpu time spent up to now is        9.6 secs

     total energy              =     -31.98083065 Ry
     Harris-Foulkes estimate   =     -31.90650436 Ry
     estimated scf accuracy    <       2.42614555 Ry

     iteration # 18     ecut=    30.00 Ry     beta=0.70
     Davidson diagonalization with overlap
     ethr =  1.00E-02,  avg # of iterations =  1.0

     negative rho (up, down):  5.254E-01 0.000E+00

     total cpu time spent up to now is        9.6 secs

     total energy              =     -31.58905776 Ry
     Harris-Foulkes estimate   =     -31.99057556 Ry
     estimated scf accuracy    <       2.27353183 Ry

     iteration # 19     ecut=    30.00 Ry     beta=0.70
     Davidson diagonalization with overlap
     ethr =  1.00E-02,  avg # of iterations =  1.0

     negative rho (up, down):  3.283E-01 0.000E+00

     total cpu time spent up to now is        9.7 secs

     total energy              =     -31.61859693 Ry
     Harris-Foulkes estimate   =     -31.69224900 Ry
     estimated scf accuracy    <       0.53671710 Ry

     iteration # 20     ecut=    30.00 Ry     beta=0.70
     Davidson diagonalization with overlap
     ethr =  6.71E-03,  avg # of iterations =  1.0

     negative rho (up, down):  2.315E-01 0.000E+00

     total cpu time spent up to now is        9.7 secs

     total energy              =     -31.70880503 Ry
     Harris-Foulkes estimate   =     -31.72640526 Ry
     estimated scf accuracy    <       1.25229056 Ry

     iteration # 21     ecut=    30.00 Ry     beta=0.70
     Davidson diagonalization with overlap
     ethr =  6.71E-03,  avg # of iterations =  1.0

     negative rho (up, down):  7.962E-02 0.000E+00

     total cpu time spent up to now is        9.8 secs

     total energy              =     -31.64499470 Ry
     Harris-Foulkes estimate   =     -31.70964367 Ry
     estimated scf accuracy    <       1.43039905 Ry

     iteration # 22     ecut=    30.00 Ry     beta=0.70
     Davidson diagonalization with overlap
     ethr =  6.71E-03,  avg # of iterations =  1.0

     negative rho (up, down):  1.643E-02 0.000E+00

     total cpu time spent up to now is        9.8 secs

     total energy              =     -31.66027626 Ry
     Harris-Foulkes estimate   =     -31.66095209 Ry
     estimated scf accuracy    <       0.00405264 Ry

     iteration # 23     ecut=    30.00 Ry     beta=0.70
     Davidson diagonalization with overlap
     ethr =  5.07E-05,  avg # of iterations =  3.0

     negative rho (up, down):  2.651E-03 0.000E+00

     total cpu time spent up to now is        9.9 secs

     total energy              =     -31.65434358 Ry
     Harris-Foulkes estimate   =     -31.66195048 Ry
     estimated scf accuracy    <       0.07160808 Ry

     iteration # 24     ecut=    30.00 Ry     beta=0.70
     Davidson diagonalization with overlap
     ethr =  5.07E-05,  avg # of iterations =  3.0

     negative rho (up, down):  1.492E-04 0.000E+00

     total cpu time spent up to now is        9.9 secs

     total energy              =     -31.65868151 Ry
     Harris-Foulkes estimate   =     -31.67314787 Ry
     estimated scf accuracy    <       0.91825758 Ry

     iteration # 25     ecut=    30.00 Ry     beta=0.70
     Davidson diagonalization with overlap
     ethr =  5.07E-05,  avg # of iterations =  1.0

     negative rho (up, down):  1.349E-04 0.000E+00

     total cpu time spent up to now is       10.0 secs

     total energy              =     -31.65872777 Ry
     Harris-Foulkes estimate   =     -31.66291775 Ry
     estimated scf accuracy    <       0.13478310 Ry

     iteration # 26     ecut=    30.00 Ry     beta=0.70
     Davidson diagonalization with overlap
     ethr =  5.07E-05,  avg # of iterations =  1.0

     negative rho (up, down):  2.133E-06 0.000E+00

     total cpu time spent up to now is       10.0 secs

     total energy              =     -31.66149824 Ry
     Harris-Foulkes estimate   =     -31.66147206 Ry
     estimated scf accuracy    <       0.01220472 Ry

     iteration # 27     ecut=    30.00 Ry     beta=0.70
     Davidson diagonalization with overlap
     ethr =  5.07E-05,  avg # of iterations =  1.0

     negative rho (up, down):  1.539E-07 0.000E+00

     total cpu time spent up to now is       10.1 secs

     total energy              =     -31.66131291 Ry
     Harris-Foulkes estimate   =     -31.66150004 Ry
     estimated scf accuracy    <       0.01388355 Ry

     iteration # 28     ecut=    30.00 Ry     beta=0.70
     Davidson diagonalization with overlap
     ethr =  5.07E-05,  avg # of iterations =  1.0

     total cpu time spent up to now is       10.1 secs

     total energy              =     -31.66129867 Ry
     Harris-Foulkes estimate   =     -31.66136435 Ry
     estimated scf accuracy    <       0.00287812 Ry

     iteration # 29     ecut=    30.00 Ry     beta=0.70
     Davidson diagonalization with overlap
     ethr =  3.60E-05,  avg # of iterations =  1.0

     total cpu time spent up to now is       10.2 secs

     total energy              =     -31.66133087 Ry
     Harris-Foulkes estimate   =     -31.66133112 Ry
     estimated scf accuracy    <       0.00000492 Ry

     iteration # 30     ecut=    30.00 Ry     beta=0.70
     Davidson diagonalization with overlap
     c_bands:  1 eigenvalues not converged
     ethr =  6.15E-08,  avg # of iterations = 20.0

     total cpu time spent up to now is       10.3 secs

     total energy              =     -31.66133064 Ry
     Harris-Foulkes estimate   =     -31.66133092 Ry
     estimated scf accuracy    <       0.00000220 Ry

     iteration # 31     ecut=    30.00 Ry     beta=0.70
     Davidson diagonalization with overlap
     ethr =  2.75E-08,  avg # of iterations = 17.0

     total cpu time spent up to now is       10.3 secs

     End of self-consistent calculation

          k = 0.0000 0.0000 0.0000 ( 22119 PWs)   bands (ev):

   -23.5999  -8.3324  -6.9179  -6.9172  -6.7842  -5.3086  -0.1334   0.7579

     the Fermi energy is    -6.7492 ev

!    total energy              =     -31.66133057 Ry
     Harris-Foulkes estimate   =     -31.66133067 Ry
     estimated scf accuracy    <          2.6E-09 Ry

     convergence has been achieved in  31 iterations

     Forces acting on atoms (Ry/au):

     atom    1 type  2   force =     0.10606259   -0.02212976    0.06795254
     atom    2 type  1   force =    -0.00012210    0.00008583   -0.00022864
     atom    3 type  1   force =    -0.10594049    0.02204393   -0.06772391

     Total force =     0.180700     Total SCF correction =     0.000081

     Entering Dynamics:    iteration =     5
                           time      =   0.0242 pico-seconds


     Andersen thermostat:    3 collisions

ATOMIC_POSITIONS (bohr)
O        7.414954094   9.979132900   2.604659303
H       17.185030733   1.354287293  10.441448071
H        9.798885946   9.414357701   3.608871013


     kinetic energy (Ekin) =     0.03567877 Ry
     temperature           =  1877.74206842 K 
     Ekin + Etot (const)   =   -31.62565180 Ry
     Message from routine dynamics:
     Total linear momentum <> 0

     Linear momentum :   -0.1210900472    0.3090709673    0.1362435771

     Writing output data file pwscf.save

     second order wave-functions extrapolation
     Check: negative starting charge=   -0.346136
     second order charge density extrapolation
     Check: negative starting charge=   -0.349302

     negative rho (up, down):  2.435E-01 0.000E+00

     total cpu time spent up to now is       10.8 secs

     per-process dynamical memory:    20.4 Mb

     Self-consistent Calculation

     iteration #  1     ecut=    30.00 Ry     beta=0.70
     Davidson diagonalization with overlap
     c_bands:  1 eigenvalues not converged
     ethr =  1.00E-06,  avg # of iterations = 20.0

     negative rho (up, down):  5.083E-02 0.000E+00

     total cpu time spent up to now is       11.0 secs

     total energy              =     -24.64905100 Ry
     Harris-Foulkes estimate   =     -34.48194591 Ry
     estimated scf accuracy    <       3.45488612 Ry

     iteration #  2     ecut=    30.00 Ry     beta=0.70
     Davidson diagonalization with overlap
     ethr =  1.00E-02,  avg # of iterations =  3.0

     negative rho (up, down):  3.248E-02 0.000E+00

     total cpu time spent up to now is       11.0 secs

     total energy              =     -31.99536002 Ry
     Harris-Foulkes estimate   =     -33.84142848 Ry
     estimated scf accuracy    <       4.22801464 Ry

     iteration #  3     ecut=    30.00 Ry     beta=0.70
     Davidson diagonalization with overlap
     ethr =  1.00E-02,  avg # of iterations =  2.0

     negative rho (up, down):  2.837E-02 0.000E+00

     total cpu time spent up to now is       11.0 secs

     total energy              =     -31.89665757 Ry
     Harris-Foulkes estimate   =     -32.52883806 Ry
     estimated scf accuracy    <       2.86860039 Ry

     iteration #  4     ecut=    30.00 Ry     beta=0.70
     Davidson diagonalization with overlap
     ethr =  1.00E-02,  avg # of iterations =  2.0

     negative rho (up, down):  1.864E-02 0.000E+00

     total cpu time spent up to now is       11.1 secs

     total energy              =     -31.88955076 Ry
     Harris-Foulkes estimate   =     -32.23920990 Ry
     estimated scf accuracy    <       1.73718893 Ry

     iteration #  5     ecut=    30.00 Ry     beta=0.70
     Davidson diagonalization with overlap
     ethr =  1.00E-02,  avg # of iterations =  1.0

     negative rho (up, down):  1.416E-02 0.000E+00

     total cpu time spent up to now is       11.1 secs

     total energy              =     -31.82697651 Ry
     Harris-Foulkes estimate   =     -31.93683696 Ry
     estimated scf accuracy    <       0.87412349 Ry

     iteration #  6     ecut=    30.00 Ry     beta=0.70
     Davidson diagonalization with overlap
     ethr =  1.00E-02,  avg # of iterations =  1.0

     negative rho (up, down):  8.929E-03 0.000E+00

     total cpu time spent up to now is       11.2 secs

     total energy              =     -31.84369402 Ry
     Harris-Foulkes estimate   =     -31.96265547 Ry
     estimated scf accuracy    <       1.30893230 Ry

     iteration #  7     ecut=    30.00 Ry     beta=0.70
     Davidson diagonalization with overlap
     ethr =  1.00E-02,  avg # of iterations =  1.0

     negative rho (up, down):  6.114E-03 0.000E+00

     total cpu time spent up to now is       11.2 secs

     total energy              =     -31.84272293 Ry
     Harris-Foulkes estimate   =     -31.85244456 Ry
     estimated scf accuracy    <       0.11760167 Ry

     iteration #  8     ecut=    30.00 Ry     beta=0.70
     Davidson diagonalization with overlap
     ethr =  1.47E-03,  avg # of iterations =  3.0

     negative rho (up, down):  5.110E-03 0.000E+00

     total cpu time spent up to now is       11.3 secs

     total energy              =     -31.84362808 Ry
     Harris-Foulkes estimate   =     -31.85090708 Ry
     estimated scf accuracy    <       0.28277270 Ry

     iteration #  9     ecut=    30.00 Ry     beta=0.70
     Davidson diagonalization with overlap
     ethr =  1.47E-03,  avg # of iterations =  1.0

     negative rho (up, down):  1.508E-03 0.000E+00

     total cpu time spent up to now is       11.3 secs

     total energy              =     -31.84617217 Ry
     Harris-Foulkes estimate   =     -31.84756932 Ry
     estimated scf accuracy    <       0.03798425 Ry

     iteration # 10     ecut=    30.00 Ry     beta=0.70
     Davidson diagonalization with overlap
     ethr =  4.75E-04,  avg # of iterations =  1.0

     negative rho (up, down):  2.136E-07 0.000E+00

     total cpu time spent up to now is       11.4 secs

     total energy              =     -31.84828438 Ry
     Harris-Foulkes estimate   =     -31.84829966 Ry
     estimated scf accuracy    <       0.03839553 Ry

     iteration # 11     ecut=    30.00 Ry     beta=0.70
     Davidson diagonalization with overlap
     ethr =  4.75E-04,  avg # of iterations =  1.0

     negative rho (up, down):  1.110E-08 0.000E+00

     total cpu time spent up to now is       11.4 secs

     total energy              =     -31.85001089 Ry
     Harris-Foulkes estimate   =     -31.85072138 Ry
     estimated scf accuracy    <       0.03535581 Ry

     iteration # 12     ecut=    30.00 Ry     beta=0.70
     Davidson diagonalization with overlap
     ethr =  4.42E-04,  avg # of iterations =  1.0

     total cpu time spent up to now is       11.5 secs

     total energy              =     -31.85023500 Ry
     Harris-Foulkes estimate   =     -31.85032773 Ry
     estimated scf accuracy    <       0.00140957 Ry

     iteration # 13     ecut=    30.00 Ry     beta=0.70
     Davidson diagonalization with overlap
     ethr =  1.76E-05,  avg # of iterations =  9.0

     total cpu time spent up to now is       11.5 secs

     total energy              =     -31.85029495 Ry
     Harris-Foulkes estimate   =     -31.85035986 Ry
     estimated scf accuracy    <       0.00381127 Ry

     iteration # 14     ecut=    30.00 Ry     beta=0.70
     Davidson diagonalization with overlap
     ethr =  1.76E-05,  avg # of iterations =  1.0

     total cpu time spent up to now is       11.6 secs

     total energy              =     -31.85030708 Ry
     Harris-Foulkes estimate   =     -31.85031663 Ry
     estimated scf accuracy    <       0.00041567 Ry

     iteration # 15     ecut=    30.00 Ry     beta=0.70
     Davidson diagonalization with overlap
     ethr =  5.20E-06,  avg # of iterations =  1.0

     total cpu time spent up to now is       11.6 secs

     total energy              =     -31.85031174 Ry
     Harris-Foulkes estimate   =     -31.85031183 Ry
     estimated scf accuracy    <       0.00000121 Ry

     iteration # 16     ecut=    30.00 Ry     beta=0.70
     Davidson diagonalization with overlap
     ethr =  1.51E-08,  avg # of iterations =  1.0

     total cpu time spent up to now is       11.7 secs

[...]
     Harris-Foulkes estimate   =     -45.53095013 Ry
     estimated scf accuracy    <      21.87928355 Ry

     iteration # 59     ecut=    30.00 Ry     beta=0.70
     Davidson diagonalization with overlap
     ethr =  1.00E-02,  avg # of iterations =  1.0

     negative rho (up, down):  5.538E-02 0.000E+00

     total cpu time spent up to now is       20.2 secs

     total energy              =     -36.68997119 Ry
     Harris-Foulkes estimate   =     -41.12869769 Ry
     estimated scf accuracy    <      16.17674309 Ry

     iteration # 60     ecut=    30.00 Ry     beta=0.70
     Davidson diagonalization with overlap
     ethr =  1.00E-02,  avg # of iterations =  8.0

     negative rho (up, down):  3.302E-02 0.000E+00

     total cpu time spent up to now is       20.3 secs

     total energy              =      28.21401302 Ry
     Harris-Foulkes estimate   =    -101.49686152 Ry
     estimated scf accuracy    <      13.33428027 Ry

     iteration # 61     ecut=    30.00 Ry     beta=0.70
     Davidson diagonalization with overlap
     ethr =  1.00E-02,  avg # of iterations =  5.0

     negative rho (up, down):  1.238E-02 0.000E+00

     total cpu time spent up to now is       20.4 secs

     total energy              =     -36.26583278 Ry
     Harris-Foulkes estimate   =     -38.11382488 Ry
     estimated scf accuracy    <      12.08355589 Ry

     iteration # 62     ecut=    30.00 Ry     beta=0.70
     Davidson diagonalization with overlap
     ethr =  1.00E-02,  avg # of iterations =  1.0

     negative rho (up, down):  9.140E-03 0.000E+00

     total cpu time spent up to now is       20.4 secs

     total energy              =     -34.88476137 Ry
     Harris-Foulkes estimate   =     -36.26834271 Ry
     estimated scf accuracy    <       9.70580988 Ry

     iteration # 63     ecut=    30.00 Ry     beta=0.70
     Davidson diagonalization with overlap
     ethr =  1.00E-02,  avg # of iterations =  1.0

     negative rho (up, down):  3.677E-02 0.000E+00

     total cpu time spent up to now is       20.5 secs

     total energy              =     -34.95847313 Ry
     Harris-Foulkes estimate   =     -34.99302543 Ry
     estimated scf accuracy    <       6.75454409 Ry

     iteration # 64     ecut=    30.00 Ry     beta=0.70
     Davidson diagonalization with overlap
     ethr =  1.00E-02,  avg # of iterations =  1.0

     negative rho (up, down):  3.819E-02 0.000E+00

     total cpu time spent up to now is       20.5 secs

     total energy              =     -35.37352992 Ry
     Harris-Foulkes estimate   =     -35.14130419 Ry
     estimated scf accuracy    <       9.60815653 Ry

     iteration # 65     ecut=    30.00 Ry     beta=0.70
     Davidson diagonalization with overlap
     ethr =  1.00E-02,  avg # of iterations =  4.0

     negative rho (up, down):  7.844E-02 0.000E+00

     total cpu time spent up to now is       20.6 secs

     total energy              =      -3.92858062 Ry
     Harris-Foulkes estimate   =    -302.10089906 Ry
     estimated scf accuracy    <      20.52074934 Ry

     iteration # 66     ecut=    30.00 Ry     beta=0.70
     Davidson diagonalization with overlap
     ethr =  1.00E-02,  avg # of iterations =  9.0

     negative rho (up, down):  5.850E-03 0.000E+00

     total cpu time spent up to now is       20.7 secs

     total energy              =      45.03729380 Ry
     Harris-Foulkes estimate   =    -107.54803375 Ry
     estimated scf accuracy    <      29.49257093 Ry

     iteration # 67     ecut=    30.00 Ry     beta=0.70
     Davidson diagonalization with overlap
     ethr =  1.00E-02,  avg # of iterations =  5.0

     negative rho (up, down):  1.117E-02 0.000E+00

     total cpu time spent up to now is       20.7 secs

     total energy              =      -1.48346117 Ry
     Harris-Foulkes estimate   =     -66.71269168 Ry
     estimated scf accuracy    <       8.93023654 Ry

     iteration # 68     ecut=    30.00 Ry     beta=0.70
     Davidson diagonalization with overlap
     ethr =  1.00E-02,  avg # of iterations =  7.0

     negative rho (up, down):  4.627E-02 0.000E+00

     total cpu time spent up to now is       20.8 secs

     total energy              =     -35.52392557 Ry
     Harris-Foulkes estimate   =     -35.75643514 Ry
     estimated scf accuracy    <       6.74708497 Ry

     iteration # 69     ecut=    30.00 Ry     beta=0.70
     Davidson diagonalization with overlap
     ethr =  1.00E-02,  avg # of iterations =  1.0

     negative rho (up, down):  3.701E-02 0.000E+00

     total cpu time spent up to now is       20.8 secs

     total energy              =     -34.68599168 Ry
     Harris-Foulkes estimate   =     -35.70133979 Ry
     estimated scf accuracy    <       8.79529861 Ry

     iteration # 70     ecut=    30.00 Ry     beta=0.70
     Davidson diagonalization with overlap
     ethr =  1.00E-02,  avg # of iterations =  6.0

     negative rho (up, down):  1.819E-02 0.000E+00

     total cpu time spent up to now is       20.9 secs

     total energy              =      26.41124250 Ry
     Harris-Foulkes estimate   =    -100.25825834 Ry
     estimated scf accuracy    <      13.90976739 Ry

     iteration # 71     ecut=    30.00 Ry     beta=0.70
     Davidson diagonalization with overlap
     ethr =  1.00E-02,  avg # of iterations =  6.0

     negative rho (up, down):  3.492E-02 0.000E+00

     total cpu time spent up to now is       21.0 secs

     total energy              =     -34.25138351 Ry
     Harris-Foulkes estimate   =     -34.59660085 Ry
     estimated scf accuracy    <       5.55540748 Ry

     iteration # 72     ecut=    30.00 Ry     beta=0.70
     Davidson diagonalization with overlap
     ethr =  1.00E-02,  avg # of iterations =  1.0

     negative rho (up, down):  6.251E-03 0.000E+00

     total cpu time spent up to now is       21.0 secs

     total energy              =     -33.16172015 Ry
     Harris-Foulkes estimate   =     -34.35382479 Ry
     estimated scf accuracy    <       5.74832760 Ry

     iteration # 73     ecut=    30.00 Ry     beta=0.70
     Davidson diagonalization with overlap
     ethr =  1.00E-02,  avg # of iterations =  1.0

     negative rho (up, down):  6.657E-03 0.000E+00

     total cpu time spent up to now is       21.1 secs

     total energy              =     -33.67600228 Ry
     Harris-Foulkes estimate   =     -33.70532368 Ry
     estimated scf accuracy    <       7.01273818 Ry

     iteration # 74     ecut=    30.00 Ry     beta=0.70
     Davidson diagonalization with overlap
     ethr =  1.00E-02,  avg # of iterations =  1.0

     negative rho (up, down):  2.511E-02 0.000E+00

     total cpu time spent up to now is       21.1 secs

     total energy              =     -33.44928504 Ry
     Harris-Foulkes estimate   =     -33.67616818 Ry
     estimated scf accuracy    <       6.97351625 Ry

     iteration # 75     ecut=    30.00 Ry     beta=0.70
     Davidson diagonalization with overlap
     ethr =  1.00E-02,  avg # of iterations =  1.0

     negative rho (up, down):  2.754E-01 0.000E+00

     total cpu time spent up to now is       21.2 secs

     total energy              =     -34.08264833 Ry
     Harris-Foulkes estimate   =     -33.46759717 Ry
     estimated scf accuracy    <       6.41362329 Ry

     iteration # 76     ecut=    30.00 Ry     beta=0.70
     Davidson diagonalization with overlap
     ethr =  1.00E-02,  avg # of iterations = 11.0

     negative rho (up, down):  1.513E-01 0.000E+00

     total cpu time spent up to now is       21.3 secs

     total energy              =      13.18323765 Ry
     Harris-Foulkes estimate   =    -116.21350454 Ry
     estimated scf accuracy    <      23.53809604 Ry

     iteration # 77     ecut=    30.00 Ry     beta=0.70
     Davidson diagonalization with overlap
     ethr =  1.00E-02,  avg # of iterations =  6.0

     negative rho (up, down):  1.471E-01 0.000E+00

     total cpu time spent up to now is       21.3 secs

     total energy              =       2.89037146 Ry
     Harris-Foulkes estimate   =    -228.85995542 Ry
     estimated scf accuracy    <       8.79595556 Ry

     iteration # 78     ecut=    30.00 Ry     beta=0.70
     Davidson diagonalization with overlap
     ethr =  1.00E-02,  avg # of iterations =  7.0

     negative rho (up, down):  2.384E-02 0.000E+00

     total cpu time spent up to now is       21.4 secs

     total energy              =      35.82694099 Ry
     Harris-Foulkes estimate   =    -239.38406218 Ry
     estimated scf accuracy    <      28.02287147 Ry

     iteration # 79     ecut=    30.00 Ry     beta=0.70
     Davidson diagonalization with overlap
     ethr =  1.00E-02,  avg # of iterations =  7.0

     negative rho (up, down):  2.037E-04 0.000E+00

     total cpu time spent up to now is       21.5 secs

     total energy              =     -32.97960493 Ry
     Harris-Foulkes estimate   =     -33.67763420 Ry
     estimated scf accuracy    <       4.56709546 Ry

     iteration # 80     ecut=    30.00 Ry     beta=0.70
     Davidson diagonalization with overlap
     ethr =  1.00E-02,  avg # of iterations =  1.0

     negative rho (up, down):  1.154E-04 0.000E+00

     total cpu time spent up to now is       21.5 secs

     total energy              =     -33.02263450 Ry
     Harris-Foulkes estimate   =     -33.01343676 Ry
     estimated scf accuracy    <       3.20137726 Ry

     iteration # 81     ecut=    30.00 Ry     beta=0.70
     Davidson diagonalization with overlap
     ethr =  1.00E-02,  avg # of iterations =  1.0

     negative rho (up, down):  4.689E-03 0.000E+00

     total cpu time spent up to now is       21.6 secs

     total energy              =     -32.89256758 Ry
     Harris-Foulkes estimate   =     -33.24463582 Ry
     estimated scf accuracy    <       3.96146455 Ry

     iteration # 82     ecut=    30.00 Ry     beta=0.70
     Davidson diagonalization with overlap
     ethr =  1.00E-02,  avg # of iterations =  1.0

     negative rho (up, down):  2.069E-04 0.000E+00

     total cpu time spent up to now is       21.6 secs

     total energy              =     -32.92824608 Ry
     Harris-Foulkes estimate   =     -33.06571612 Ry
     estimated scf accuracy    <       4.00381844 Ry

     iteration # 83     ecut=    30.00 Ry     beta=0.70
     Davidson diagonalization with overlap
     ethr =  1.00E-02,  avg # of iterations =  1.0

     negative rho (up, down):  4.972E-04 0.000E+00

     total cpu time spent up to now is       21.7 secs

     total energy              =     -32.96998462 Ry
     Harris-Foulkes estimate   =     -33.00259130 Ry
     estimated scf accuracy    <       3.39795420 Ry

     iteration # 84     ecut=    30.00 Ry     beta=0.70
     Davidson diagonalization with overlap
     ethr =  1.00E-02,  avg # of iterations =  1.0

     negative rho (up, down):  1.352E-04 0.000E+00

     total cpu time spent up to now is       21.7 secs

     total energy              =     -32.90955211 Ry
     Harris-Foulkes estimate   =     -32.97653838 Ry
     estimated scf accuracy    <       2.89125214 Ry

     iteration # 85     ecut=    30.00 Ry     beta=0.70
     Davidson diagonalization with overlap
     ethr =  1.00E-02,  avg # of iterations =  1.0

     negative rho (up, down):  3.709E-02 0.000E+00

     total cpu time spent up to now is       21.8 secs

     total energy              =     -34.40967331 Ry
     Harris-Foulkes estimate   =     -32.92925411 Ry
     estimated scf accuracy    <       4.39163067 Ry

     iteration # 86     ecut=    30.00 Ry     beta=0.70
     Davidson diagonalization with overlap
     ethr =  1.00E-02,  avg # of iterations =  1.0

     negative rho (up, down):  1.060E-02 0.000E+00

     total cpu time spent up to now is       21.8 secs

     total energy              =     -32.43897395 Ry
     Harris-Foulkes estimate   =     -34.44205421 Ry
     estimated scf accuracy    <       7.08236374 Ry

     iteration # 87     ecut=    30.00 Ry     beta=0.70
     Davidson diagonalization with overlap
     ethr =  1.00E-02,  avg # of iterations =  1.0

     negative rho (up, down):  1.176E-01 0.000E+00

     total cpu time spent up to now is       21.9 secs

     total energy              =     -31.62774046 Ry
     Harris-Foulkes estimate   =     -32.58782600 Ry
     estimated scf accuracy    <       2.96013678 Ry

     iteration # 88     ecut=    30.00 Ry     beta=0.70
     Davidson diagonalization with overlap
     ethr =  1.00E-02,  avg # of iterations =  7.0

     negative rho (up, down):  1.020E-02 0.000E+00

     total cpu time spent up to now is       21.9 secs

     total energy              =     -22.11888496 Ry
     Harris-Foulkes estimate   =     -90.52802902 Ry
     estimated scf accuracy    <      17.72506854 Ry

     iteration # 89     ecut=    30.00 Ry     beta=0.70
     Davidson diagonalization with overlap
     ethr =  1.00E-02,  avg # of iterations =  4.0

     negative rho (up, down):  1.581E-05 0.000E+00

     total cpu time spent up to now is       22.0 secs

     total energy              =       4.45852135 Ry
     Harris-Foulkes estimate   =    -423.79086827 Ry
     estimated scf accuracy    <      14.97535109 Ry

     iteration # 90     ecut=    30.00 Ry     beta=0.70
     Davidson diagonalization with overlap
     ethr =  1.00E-02,  avg # of iterations =  4.0

     negative rho (up, down):  3.605E-06 0.000E+00

     total cpu time spent up to now is       22.1 secs

     total energy              =     -31.70511640 Ry
     Harris-Foulkes estimate   =     -32.25513616 Ry
     estimated scf accuracy    <       4.90103612 Ry

     iteration # 91     ecut=    30.00 Ry     beta=0.70
     Davidson diagonalization with overlap
     ethr =  1.00E-02,  avg # of iterations =  1.0

     negative rho (up, down):  3.347E-03 0.000E+00

     total cpu time spent up to now is       22.1 secs

     total energy              =     -31.67257497 Ry
     Harris-Foulkes estimate   =     -31.92394928 Ry
     estimated scf accuracy    <       1.80034787 Ry

     iteration # 92     ecut=    30.00 Ry     beta=0.70
     Davidson diagonalization with overlap
     ethr =  1.00E-02,  avg # of iterations =  1.0

     negative rho (up, down):  2.792E-03 0.000E+00

     total cpu time spent up to now is       22.2 secs

     total energy              =     -31.56859949 Ry
     Harris-Foulkes estimate   =     -31.72824019 Ry
     estimated scf accuracy    <       3.57822449 Ry

     iteration # 93     ecut=    30.00 Ry     beta=0.70
     Davidson diagonalization with overlap
     ethr =  1.00E-02,  avg # of iterations =  4.0

     negative rho (up, down):  1.374E-02 0.000E+00

     total cpu time spent up to now is       22.2 secs

     total energy              =      -7.44818238 Ry
     Harris-Foulkes estimate   =     -75.53777765 Ry
     estimated scf accuracy    <       8.91838635 Ry

     iteration # 94     ecut=    30.00 Ry     beta=0.70
     Davidson diagonalization with overlap
     ethr =  1.00E-02,  avg # of iterations =  4.0

     negative rho (up, down):  3.069E-02 0.000E+00

     total cpu time spent up to now is       22.3 secs

     total energy              =      -0.86361764 Ry
     Harris-Foulkes estimate   =    -140.60051301 Ry
     estimated scf accuracy    <       8.06920868 Ry

     iteration # 95     ecut=    30.00 Ry     beta=0.70
     Davidson diagonalization with overlap
     ethr =  1.00E-02,  avg # of iterations =  5.0

     negative rho (up, down):  8.643E-02 0.000E+00

     total cpu time spent up to now is       22.3 secs

     total energy              =     -37.34228130 Ry
     Harris-Foulkes estimate   =     -33.54016580 Ry
     estimated scf accuracy    <       3.28611114 Ry

     iteration # 96     ecut=    30.00 Ry     beta=0.70
     Davidson diagonalization with overlap
     ethr =  1.00E-02,  avg # of iterations =  6.0

     negative rho (up, down):  1.751E-01 0.000E+00

     total cpu time spent up to now is       22.4 secs

     total energy              =    -133.32982665 Ry
     Harris-Foulkes estimate   =     -63.55351051 Ry
     estimated scf accuracy    <      18.48350796 Ry

     iteration # 97     ecut=    30.00 Ry     beta=0.70
     Davidson diagonalization with overlap
     ethr =  1.00E-02,  avg # of iterations =  5.0

     negative rho (up, down):  1.950E-01 0.000E+00

     total cpu time spent up to now is       22.5 secs

     total energy              =   -1911.73850422 Ry
     Harris-Foulkes estimate   =   -3591.55881244 Ry
     estimated scf accuracy    <      75.93171066 Ry

     iteration # 98     ecut=    30.00 Ry     beta=0.70
     Davidson diagonalization with overlap
     ethr =  1.00E-02,  avg # of iterations =  5.0

     negative rho (up, down):  2.029E-01 0.000E+00

     total cpu time spent up to now is       22.5 secs

     total energy              =      61.93238005 Ry
     Harris-Foulkes estimate   =   -3795.41286011 Ry
     estimated scf accuracy    <      69.62372476 Ry

     iteration # 99     ecut=    30.00 Ry     beta=0.70
     Davidson diagonalization with overlap
     ethr =  1.00E-02,  avg # of iterations =  8.0

     negative rho (up, down):  1.710E-01 0.000E+00

     total cpu time spent up to now is       22.6 secs

     total energy              =    -482.84176907 Ry
     Harris-Foulkes estimate   =    -115.94531281 Ry
     estimated scf accuracy    <      39.01186059 Ry

     iteration #100     ecut=    30.00 Ry     beta=0.70
     Davidson diagonalization with overlap
     ethr =  1.00E-02,  avg # of iterations =  6.0

     negative rho (up, down):  1.935E-01 0.000E+00

     total cpu time spent up to now is       22.7 secs

     total energy              =     -14.08025106 Ry
     Harris-Foulkes estimate   =   -1507.73771283 Ry
     estimated scf accuracy    <      29.41794044 Ry

     End of self-consistent calculation

     convergence NOT achieved after 100 iterations: stopping

     Writing output data file pwscf.save
 
     init_run     :      0.17s CPU      0.19s WALL (       1 calls)
     electrons    :     16.17s CPU     19.46s WALL (       8 calls)
     update_pot   :      1.49s CPU      1.95s WALL (       7 calls)
     forces       :      0.30s CPU      0.30s WALL (       7 calls)

     Called by init_run:
     wfcinit      :      0.01s CPU      0.02s WALL (       1 calls)
     potinit      :      0.05s CPU      0.05s WALL (       1 calls)

     Called by electrons:
     c_bands      :      8.19s CPU      8.60s WALL (     312 calls)
     sum_band     :      1.59s CPU      1.67s WALL (     312 calls)
     v_of_rho     :      3.75s CPU      3.87s WALL (     320 calls)
     mix_rho      :      2.11s CPU      4.19s WALL (     312 calls)

     Called by c_bands:
     init_us_2    :      0.05s CPU      0.06s WALL (     625 calls)
     cegterg      :      8.11s CPU      8.40s WALL (     312 calls)

     Called by sum_band:

     Called by *egterg:
     h_psi        :      6.93s CPU      7.14s WALL (    1406 calls)
     g_psi        :      0.07s CPU      0.08s WALL (    1093 calls)
     cdiaghg      :      0.47s CPU      0.49s WALL (    1398 calls)

     Called by h_psi:
     h_psi:pot    :      6.89s CPU      7.10s WALL (    1406 calls)
     h_psi:calbec :      0.05s CPU      0.05s WALL (    1406 calls)
     vloc_psi     :      6.81s CPU      7.01s WALL (    1406 calls)
     add_vuspsi   :      0.02s CPU      0.02s WALL (    1406 calls)

     General routines
     calbec       :      0.07s CPU      0.09s WALL (    1440 calls)
     fft          :      2.25s CPU      2.34s WALL (    3534 calls)
     fftw         :      7.22s CPU      7.47s WALL (   17976 calls)
     davcio       :      0.37s CPU      1.83s WALL (    5541 calls)
 
     Parallel routines
     fft_scatter  :      2.87s CPU      3.08s WALL (   21510 calls)
 
     PWSCF        :    18.56s CPU        22.84s WALL

 
   This run was terminated on:  17:24:52  13Feb2018            

=------------------------------------------------------------------------------=
   JOB DONE.
=------------------------------------------------------------------------------=
