
     Program PWSCF v.6.0 (svn rev. 13079) starts on 13Feb2018 at 17:30:22 

     This program is part of the open-source Quantum ESPRESSO suite
     for quantum simulation of materials; please cite
         "P. Giannozzi et al., J. Phys.:Condens. Matter 21 395502 (2009);
          URL http://www.quantum-espresso.org", 
     in publications or presentations arising from this work. More details at
     http://www.quantum-espresso.org/quote

     Parallel version (MPI), running on    28 processors
     R & G space division:  proc/nbgrp/npool/nimage =      28
     Reading input from inputs/MD-H2O-round1/832.in

     Current dimensions of program PWSCF are:
     Max number of different atomic species (ntypx) = 10
     Max number of k-points (npk) =  40000
     Max angular momentum in pseudopotentials (lmaxx) =  3

     Subspace diagonalization in iterative solution of the eigenvalue problem:
     a serial algorithm will be used

 
     Parallelization info
     --------------------
     sticks:   dense  smooth     PW     G-vecs:    dense   smooth      PW
     Min         136     136     33                 6338     6338     787
     Max         137     137     34                 6341     6341     792
     Sum        3809    3809    949               177509   177509   22119
 


     bravais-lattice index     =            1
     lattice parameter (alat)  =      20.0000  a.u.
     unit-cell volume          =    8000.0000 (a.u.)^3
     number of atoms/cell      =            3
     number of atomic types    =            2
     number of electrons       =         8.00
     number of Kohn-Sham states=            8
     kinetic-energy cutoff     =      30.0000  Ry
     charge density cutoff     =     120.0000  Ry
     convergence threshold     =      1.0E-08
     mixing beta               =       0.7000
     number of iterations used =            8  plain     mixing
     Exchange-correlation      = BLYP ( 1  3  1  3 0 0)
     nstep                     =         5000


     celldm(1)=  20.000000  celldm(2)=   0.000000  celldm(3)=   0.000000
     celldm(4)=   0.000000  celldm(5)=   0.000000  celldm(6)=   0.000000

     crystal axes: (cart. coord. in units of alat)
               a(1) = (   1.000000   0.000000   0.000000 )  
               a(2) = (   0.000000   1.000000   0.000000 )  
               a(3) = (   0.000000   0.000000   1.000000 )  

     reciprocal axes: (cart. coord. in units 2 pi/alat)
               b(1) = (  1.000000  0.000000  0.000000 )  
               b(2) = (  0.000000  1.000000  0.000000 )  
               b(3) = (  0.000000  0.000000  1.000000 )  


     PseudoPot. # 1 for  H read from file:
     ./H.blyp-hgh.UPF
     MD5 check sum: c576e69559cde411e611be972c763230
     Pseudo is Norm-conserving, Zval =  1.0
     Generated in analytical, separable form
     Using radial grid of  929 points,  0 beta functions with: 

     PseudoPot. # 2 for  O read from file:
     ./O.blyp-hgh.UPF
     MD5 check sum: d0b7156309aa9befef28faac7bc56342
     Pseudo is Norm-conserving, Zval =  6.0
     Generated in analytical, separable form
     Using radial grid of 1095 points,  1 beta functions with: 
                l(1) =   0

     atomic species   valence    mass     pseudopotential
        H              1.00     1.01000      H( 1.00)
        O              6.00    16.00000      O( 1.00)

     No symmetry found



   Cartesian axes

     site n.     atom                  positions (alat units)
         1           O   tau(   1) = (   0.3124429   0.5173569   0.5206570  )
         2           H   tau(   2) = (   0.0067750   0.0978659   0.7253202  )
         3           H   tau(   3) = (   0.2386059   0.5492084   0.5133893  )

     number of k points=     1  Marzari-Vanderbilt smearing, width (Ry)=  0.0250
                       cart. coord. in units 2pi/alat
        k(    1) = (   0.0000000   0.0000000   0.0000000), wk =   2.0000000

     Dense  grid:   177509 G-vectors     FFT dimensions: (  72,  72,  72)

     Estimated max dynamical RAM per process >       6.09Mb

     Estimated total allocated dynamical RAM >     170.64Mb

     Initial potential from superposition of free atoms
     Check: negative starting charge=   -0.352689

     starting charge    7.99998, renormalised to    8.00000

     negative rho (up, down):  3.527E-01 0.000E+00
     Starting wfc are    6 randomized atomic wfcs +    2 random wfc

     total cpu time spent up to now is        0.3 secs

     per-process dynamical memory:    18.8 Mb

     Self-consistent Calculation

     iteration #  1     ecut=    30.00 Ry     beta=0.70
     Davidson diagonalization with overlap
     ethr =  1.00E-02,  avg # of iterations =  5.0

     negative rho (up, down):  9.488E-02 0.000E+00

     total cpu time spent up to now is        0.4 secs

     total energy              =     -31.59474420 Ry
     Harris-Foulkes estimate   =     -32.08019932 Ry
     estimated scf accuracy    <       0.50439207 Ry

     iteration #  2     ecut=    30.00 Ry     beta=0.70
     Davidson diagonalization with overlap
     ethr =  6.30E-03,  avg # of iterations =  3.0

     negative rho (up, down):  7.396E-02 0.000E+00

     total cpu time spent up to now is        0.5 secs

     total energy              =     -31.69398890 Ry
     Harris-Foulkes estimate   =     -32.32076162 Ry
     estimated scf accuracy    <       2.15348520 Ry

     iteration #  3     ecut=    30.00 Ry     beta=0.70
     Davidson diagonalization with overlap
     ethr =  6.30E-03,  avg # of iterations =  2.0

     negative rho (up, down):  2.731E-02 0.000E+00

     total cpu time spent up to now is        0.5 secs

     total energy              =     -31.66386254 Ry
     Harris-Foulkes estimate   =     -31.82609225 Ry
     estimated scf accuracy    <       1.00968496 Ry

     iteration #  4     ecut=    30.00 Ry     beta=0.70
     Davidson diagonalization with overlap
     ethr =  6.30E-03,  avg # of iterations =  1.0

     negative rho (up, down):  1.061E-02 0.000E+00

     total cpu time spent up to now is        0.6 secs

     total energy              =     -31.73857464 Ry
     Harris-Foulkes estimate   =     -31.98280807 Ry
     estimated scf accuracy    <       1.44294717 Ry

     iteration #  5     ecut=    30.00 Ry     beta=0.70
     Davidson diagonalization with overlap
     ethr =  6.30E-03,  avg # of iterations =  1.0

     negative rho (up, down):  1.004E-03 0.000E+00

     total cpu time spent up to now is        0.6 secs

     total energy              =     -31.83282712 Ry
     Harris-Foulkes estimate   =     -31.90022329 Ry
     estimated scf accuracy    <       0.93419241 Ry

     iteration #  6     ecut=    30.00 Ry     beta=0.70
     Davidson diagonalization with overlap
     ethr =  6.30E-03,  avg # of iterations =  1.0

     negative rho (up, down):  2.403E-04 0.000E+00

     total cpu time spent up to now is        0.6 secs

     total energy              =     -31.84763463 Ry
     Harris-Foulkes estimate   =     -31.84767054 Ry
     estimated scf accuracy    <       0.00032521 Ry

     iteration #  7     ecut=    30.00 Ry     beta=0.70
     Davidson diagonalization with overlap
     c_bands:  1 eigenvalues not converged
     ethr =  4.07E-06,  avg # of iterations = 20.0

     negative rho (up, down):  3.583E-04 0.000E+00

     total cpu time spent up to now is        0.7 secs

     total energy              =     -31.87156766 Ry
     Harris-Foulkes estimate   =     -31.85857060 Ry
     estimated scf accuracy    <       0.82240038 Ry

     iteration #  8     ecut=    30.00 Ry     beta=0.70
     Davidson diagonalization with overlap
     ethr =  4.07E-06,  avg # of iterations =  3.0

     negative rho (up, down):  3.473E-06 0.000E+00

     total cpu time spent up to now is        0.8 secs

     total energy              =     -31.80908510 Ry
     Harris-Foulkes estimate   =     -31.87429247 Ry
     estimated scf accuracy    <       1.55201820 Ry

     iteration #  9     ecut=    30.00 Ry     beta=0.70
     Davidson diagonalization with overlap
     ethr =  4.07E-06,  avg # of iterations =  4.0

     negative rho (up, down):  1.140E-07 0.000E+00

     total cpu time spent up to now is        0.9 secs

     total energy              =     -31.84938280 Ry
     Harris-Foulkes estimate   =     -31.85206985 Ry
     estimated scf accuracy    <       0.27206411 Ry

     iteration # 10     ecut=    30.00 Ry     beta=0.70
     Davidson diagonalization with overlap
     ethr =  4.07E-06,  avg # of iterations =  1.0

     negative rho (up, down):  1.566E-06 0.000E+00

     total cpu time spent up to now is        0.9 secs

     total energy              =     -31.84780146 Ry
     Harris-Foulkes estimate   =     -31.84976183 Ry
     estimated scf accuracy    <       0.13591064 Ry

     iteration # 11     ecut=    30.00 Ry     beta=0.70
     Davidson diagonalization with overlap
     ethr =  4.07E-06,  avg # of iterations =  1.0

     negative rho (up, down):  1.065E-06 0.000E+00

     total cpu time spent up to now is        1.0 secs

     total energy              =     -31.84719209 Ry
     Harris-Foulkes estimate   =     -31.84826814 Ry
     estimated scf accuracy    <       0.03507945 Ry

     iteration # 12     ecut=    30.00 Ry     beta=0.70
     Davidson diagonalization with overlap
     ethr =  4.07E-06,  avg # of iterations =  1.0

     negative rho (up, down):  2.077E-08 0.000E+00

     total cpu time spent up to now is        1.0 secs

     total energy              =     -31.84762722 Ry
     Harris-Foulkes estimate   =     -31.84780480 Ry
     estimated scf accuracy    <       0.00093117 Ry

     iteration # 13     ecut=    30.00 Ry     beta=0.70
     Davidson diagonalization with overlap
     ethr =  4.07E-06,  avg # of iterations =  1.0

     total cpu time spent up to now is        1.1 secs

     total energy              =     -31.84728781 Ry
     Harris-Foulkes estimate   =     -31.84835387 Ry
     estimated scf accuracy    <       0.04110192 Ry

     iteration # 14     ecut=    30.00 Ry     beta=0.70
     Davidson diagonalization with overlap
     ethr =  4.07E-06,  avg # of iterations =  1.0

     total cpu time spent up to now is        1.1 secs

     total energy              =     -31.84779443 Ry
     Harris-Foulkes estimate   =     -31.84779394 Ry
     estimated scf accuracy    <       0.00003445 Ry

     iteration # 15     ecut=    30.00 Ry     beta=0.70
     Davidson diagonalization with overlap
     ethr =  4.31E-07,  avg # of iterations =  1.0

     total cpu time spent up to now is        1.2 secs

     total energy              =     -31.84779112 Ry
     Harris-Foulkes estimate   =     -31.84779478 Ry
     estimated scf accuracy    <       0.00010002 Ry

     iteration # 16     ecut=    30.00 Ry     beta=0.70
     Davidson diagonalization with overlap
     ethr =  4.31E-07,  avg # of iterations =  1.0

     total cpu time spent up to now is        1.2 secs

     total energy              =     -31.84779313 Ry
     Harris-Foulkes estimate   =     -31.84779376 Ry
     estimated scf accuracy    <       0.00001904 Ry

     iteration # 17     ecut=    30.00 Ry     beta=0.70
     Davidson diagonalization with overlap
     ethr =  2.38E-07,  avg # of iterations =  1.0

     total cpu time spent up to now is        1.2 secs

     total energy              =     -31.84779428 Ry
     Harris-Foulkes estimate   =     -31.84779376 Ry
     estimated scf accuracy    <       0.00000694 Ry

     iteration # 18     ecut=    30.00 Ry     beta=0.70
     Davidson diagonalization with overlap
     ethr =  8.67E-08,  avg # of iterations =  1.0

     total cpu time spent up to now is        1.3 secs

     total energy              =     -31.84779429 Ry
     Harris-Foulkes estimate   =     -31.84779432 Ry
     estimated scf accuracy    <       0.00000556 Ry

     iteration # 19     ecut=    30.00 Ry     beta=0.70
     Davidson diagonalization with overlap
     ethr =  6.95E-08,  avg # of iterations =  1.0

     total cpu time spent up to now is        1.3 secs

     total energy              =     -31.84779435 Ry
     Harris-Foulkes estimate   =     -31.84779435 Ry
     estimated scf accuracy    <       0.00000010 Ry

     iteration # 20     ecut=    30.00 Ry     beta=0.70
     Davidson diagonalization with overlap
     ethr =  1.25E-09,  avg # of iterations =  1.0

     total cpu time spent up to now is        1.4 secs

     total energy              =     -31.84779437 Ry
     Harris-Foulkes estimate   =     -31.84779435 Ry
     estimated scf accuracy    <       0.00000003 Ry

     iteration # 21     ecut=    30.00 Ry     beta=0.70
     Davidson diagonalization with overlap
     ethr =  3.36E-10,  avg # of iterations =  1.0

     total cpu time spent up to now is        1.4 secs

     total energy              =     -31.84779436 Ry
     Harris-Foulkes estimate   =     -31.84779437 Ry
     estimated scf accuracy    <       0.00000002 Ry

     iteration # 22     ecut=    30.00 Ry     beta=0.70
     Davidson diagonalization with overlap
     ethr =  1.92E-10,  avg # of iterations =  1.0

     total cpu time spent up to now is        1.5 secs

     End of self-consistent calculation

          k = 0.0000 0.0000 0.0000 ( 22119 PWs)   bands (ev):

   -26.1222 -11.0712  -7.1643  -7.1636  -7.0194  -0.4601   0.5063   0.7719

     the Fermi energy is    -6.9918 ev

!    total energy              =     -31.84779436 Ry
     Harris-Foulkes estimate   =     -31.84779436 Ry
     estimated scf accuracy    <          3.6E-10 Ry

     convergence has been achieved in  22 iterations

     Forces acting on atoms (Ry/au):

     atom    1 type  2   force =     0.53964033   -0.23232410    0.05357083
     atom    2 type  1   force =    -0.00012992   -0.00015790   -0.00005170
     atom    3 type  1   force =    -0.53951041    0.23248200   -0.05351913

     Total force =     0.834290     Total SCF correction =     0.000019

     Molecular Dynamics Calculation

     Starting temperature  =  1000.00 K

     temperature is controlled by Andersen thermostat
     Collision frequency = 1.0000/timestep
     mass H                =     1.01
     mass O                =    16.00
     Time step             =   100.00 a.u.,  4.8378 femto-seconds

     Entering Dynamics:    iteration =     1
                           time      =   0.0048 pico-seconds


     Andersen thermostat:    3 collisions

ATOMIC_POSITIONS (bohr)
O        6.421371185  10.260052481  10.409777170
H        0.136327044   2.136912510  14.408788195
H        2.038408822  12.184146073  10.418691201


     kinetic energy (Ekin) =     0.01337019 Ry
     temperature           =   703.66124461 K 
     Ekin + Etot (const)   =   -31.83442417 Ry

     Linear momentum :    0.0000000000   -0.0000000000   -0.0000000000

     Writing output data file pwscf.save
     Check: negative starting charge=   -0.352689
     NEW-OLD atomic charge density approx. for the potential
     Check: negative starting charge=   -0.342614

     negative rho (up, down):  3.797E-01 0.000E+00

     total cpu time spent up to now is        1.8 secs

     per-process dynamical memory:    20.4 Mb

     Self-consistent Calculation

     iteration #  1     ecut=    30.00 Ry     beta=0.70
     Davidson diagonalization with overlap
     ethr =  1.00E-06,  avg # of iterations = 13.0

     negative rho (up, down):  9.453E-02 0.000E+00

     total cpu time spent up to now is        2.0 secs

     total energy              =     -15.31678932 Ry
     Harris-Foulkes estimate   =     -36.50116784 Ry
     estimated scf accuracy    <      10.63640744 Ry

     iteration #  2     ecut=    30.00 Ry     beta=0.70
     Davidson diagonalization with overlap
     ethr =  1.00E-02,  avg # of iterations =  5.0

     negative rho (up, down):  6.560E-02 0.000E+00

     total cpu time spent up to now is        2.1 secs

     total energy              =     -33.33101436 Ry
     Harris-Foulkes estimate   =     -41.81101795 Ry
     estimated scf accuracy    <      18.99667672 Ry

     iteration #  3     ecut=    30.00 Ry     beta=0.70
     Davidson diagonalization with overlap
     ethr =  1.00E-02,  avg # of iterations =  3.0

     negative rho (up, down):  4.655E-02 0.000E+00

     total cpu time spent up to now is        2.1 secs

     total energy              =     -31.73731323 Ry
     Harris-Foulkes estimate   =     -33.87207488 Ry
     estimated scf accuracy    <       6.49855247 Ry

     iteration #  4     ecut=    30.00 Ry     beta=0.70
     Davidson diagonalization with overlap
     ethr =  1.00E-02,  avg # of iterations =  4.0

     negative rho (up, down):  4.291E-02 0.000E+00

     total cpu time spent up to now is        2.2 secs

     total energy              =     -31.64530412 Ry
     Harris-Foulkes estimate   =     -31.99241060 Ry
     estimated scf accuracy    <       2.25416639 Ry

     iteration #  5     ecut=    30.00 Ry     beta=0.70
     Davidson diagonalization with overlap
     ethr =  1.00E-02,  avg # of iterations =  1.0

     negative rho (up, down):  1.471E-02 0.000E+00

     total cpu time spent up to now is        2.3 secs

     total energy              =     -31.02974901 Ry
     Harris-Foulkes estimate   =     -32.12271343 Ry
     estimated scf accuracy    <       3.39562087 Ry

     iteration #  6     ecut=    30.00 Ry     beta=0.70
     Davidson diagonalization with overlap
     ethr =  1.00E-02,  avg # of iterations =  2.0

     negative rho (up, down):  2.302E-02 0.000E+00

     total cpu time spent up to now is        2.3 secs

     total energy              =     -31.41545201 Ry
     Harris-Foulkes estimate   =     -32.14904880 Ry
     estimated scf accuracy    <       4.41961903 Ry

     iteration #  7     ecut=    30.00 Ry     beta=0.70
     Davidson diagonalization with overlap
     ethr =  1.00E-02,  avg # of iterations =  1.0

     negative rho (up, down):  2.252E-02 0.000E+00

     total cpu time spent up to now is        2.4 secs

     total energy              =     -31.61878292 Ry
     Harris-Foulkes estimate   =     -31.63539362 Ry
     estimated scf accuracy    <       1.13811386 Ry

     iteration #  8     ecut=    30.00 Ry     beta=0.70
     Davidson diagonalization with overlap
     ethr =  1.00E-02,  avg # of iterations =  1.0

     negative rho (up, down):  1.985E-02 0.000E+00

     total cpu time spent up to now is        2.4 secs

     total energy              =     -31.59904144 Ry
     Harris-Foulkes estimate   =     -31.62773191 Ry
     estimated scf accuracy    <       0.91629342 Ry

     iteration #  9     ecut=    30.00 Ry     beta=0.70
     Davidson diagonalization with overlap
     ethr =  1.00E-02,  avg # of iterations =  1.0

     negative rho (up, down):  1.098E-02 0.000E+00

     total cpu time spent up to now is        2.5 secs

     total energy              =     -31.52004310 Ry
     Harris-Foulkes estimate   =     -31.60094823 Ry
     estimated scf accuracy    <       0.61230488 Ry

     iteration # 10     ecut=    30.00 Ry     beta=0.70
     Davidson diagonalization with overlap
     ethr =  7.65E-03,  avg # of iterations =  1.0

     negative rho (up, down):  4.607E-04 0.000E+00

     total cpu time spent up to now is        2.5 secs

     total energy              =     -31.73495670 Ry
     Harris-Foulkes estimate   =     -31.61685559 Ry
     estimated scf accuracy    <       1.87826411 Ry

     iteration # 11     ecut=    30.00 Ry     beta=0.70
     Davidson diagonalization with overlap
     ethr =  7.65E-03,  avg # of iterations =  1.0

     negative rho (up, down):  5.399E-04 0.000E+00

     total cpu time spent up to now is        2.6 secs

     total energy              =     -31.92249958 Ry
     Harris-Foulkes estimate   =     -31.73267730 Ry
     estimated scf accuracy    <       2.12981764 Ry

     iteration # 12     ecut=    30.00 Ry     beta=0.70
     Davidson diagonalization with overlap
     ethr =  7.65E-03,  avg # of iterations =  1.0

     negative rho (up, down):  4.888E-04 0.000E+00

     total cpu time spent up to now is        2.6 secs

     total energy              =     -31.82012500 Ry
     Harris-Foulkes estimate   =     -31.97248511 Ry
     estimated scf accuracy    <       3.80169205 Ry

     iteration # 13     ecut=    30.00 Ry     beta=0.70
     Davidson diagonalization with overlap
     ethr =  7.65E-03,  avg # of iterations =  1.0

     negative rho (up, down):  2.795E-03 0.000E+00

     total cpu time spent up to now is        2.6 secs

     total energy              =     -31.69009790 Ry
     Harris-Foulkes estimate   =     -31.84372918 Ry
     estimated scf accuracy    <       2.42128763 Ry

     iteration # 14     ecut=    30.00 Ry     beta=0.70
     Davidson diagonalization with overlap
     ethr =  7.65E-03,  avg # of iterations =  1.0

     negative rho (up, down):  4.294E-03 0.000E+00

     total cpu time spent up to now is        2.7 secs

     total energy              =     -31.77208671 Ry
     Harris-Foulkes estimate   =     -31.75278529 Ry
     estimated scf accuracy    <       1.25386442 Ry

     iteration # 15     ecut=    30.00 Ry     beta=0.70
     Davidson diagonalization with overlap
     ethr =  7.65E-03,  avg # of iterations =  1.0

     negative rho (up, down):  2.702E-03 0.000E+00

     total cpu time spent up to now is        2.8 secs

     total energy              =     -31.77046812 Ry
     Harris-Foulkes estimate   =     -31.77252726 Ry
     estimated scf accuracy    <       1.28181550 Ry

     iteration # 16     ecut=    30.00 Ry     beta=0.70
     Davidson diagonalization with overlap
     ethr =  7.65E-03,  avg # of iterations =  1.0

     negative rho (up, down):  1.216E-03 0.000E+00

     total cpu time spent up to now is        2.8 secs

     total energy              =     -31.77740082 Ry
     Harris-Foulkes estimate   =     -31.78778047 Ry
     estimated scf accuracy    <       1.57460713 Ry

     iteration # 17     ecut=    30.00 Ry     beta=0.70
     Davidson diagonalization with overlap
     ethr =  7.65E-03,  avg # of iterations =  1.0

     negative rho (up, down):  8.701E-04 0.000E+00

     total cpu time spent up to now is        2.8 secs

     total energy              =     -31.75175063 Ry
     Harris-Foulkes estimate   =     -31.77769537 Ry
     estimated scf accuracy    <       1.55814055 Ry

     iteration # 18     ecut=    30.00 Ry     beta=0.70
     Davidson diagonalization with overlap
     ethr =  7.65E-03,  avg # of iterations =  1.0

     negative rho (up, down):  6.142E-02 0.000E+00

     total cpu time spent up to now is        2.9 secs

     total energy              =     -30.86134813 Ry
     Harris-Foulkes estimate   =     -31.75253423 Ry
     estimated scf accuracy    <       1.63976883 Ry

     iteration # 19     ecut=    30.00 Ry     beta=0.70
     Davidson diagonalization with overlap
     ethr =  7.65E-03,  avg # of iterations =  2.0

     negative rho (up, down):  2.216E-04 0.000E+00

     total cpu time spent up to now is        3.0 secs

     total energy              =     -31.84963973 Ry
     Harris-Foulkes estimate   =     -32.84417399 Ry
     estimated scf accuracy    <       2.66221204 Ry

     iteration # 20     ecut=    30.00 Ry     beta=0.70
     Davidson diagonalization with overlap
     ethr =  7.65E-03,  avg # of iterations =  2.0

     negative rho (up, down):  1.823E-07 0.000E+00

     total cpu time spent up to now is        3.0 secs

     total energy              =     -31.61049784 Ry
     Harris-Foulkes estimate   =     -31.87966457 Ry
     estimated scf accuracy    <       1.26944296 Ry

     iteration # 21     ecut=    30.00 Ry     beta=0.70
     Davidson diagonalization with overlap
     ethr =  7.65E-03,  avg # of iterations =  1.0

     negative rho (up, down):  6.465E-07 0.000E+00

     total cpu time spent up to now is        3.1 secs

     total energy              =     -31.58075782 Ry
     Harris-Foulkes estimate   =     -31.61446311 Ry
     estimated scf accuracy    <       1.00661312 Ry

     iteration # 22     ecut=    30.00 Ry     beta=0.70
     Davidson diagonalization with overlap
     ethr =  7.65E-03,  avg # of iterations =  1.0

     negative rho (up, down):  1.453E-07 0.000E+00

     total cpu time spent up to now is        3.1 secs

     total energy              =     -31.58777729 Ry
     Harris-Foulkes estimate   =     -31.58190175 Ry
     estimated scf accuracy    <       0.75117603 Ry

     iteration # 23     ecut=    30.00 Ry     beta=0.70
     Davidson diagonalization with overlap
     ethr =  7.65E-03,  avg # of iterations =  1.0

     negative rho (up, down):  5.632E-08 0.000E+00

     total cpu time spent up to now is        3.2 secs

     total energy              =     -31.54913558 Ry
     Harris-Foulkes estimate   =     -31.59000814 Ry
     estimated scf accuracy    <       0.76720218 Ry

     iteration # 24     ecut=    30.00 Ry     beta=0.70
     Davidson diagonalization with overlap
     ethr =  7.65E-03,  avg # of iterations =  1.0

     negative rho (up, down):  6.460E-07 0.000E+00

     total cpu time spent up to now is        3.2 secs

     total energy              =     -31.56557139 Ry
     Harris-Foulkes estimate   =     -31.56641348 Ry
     estimated scf accuracy    <       0.02115778 Ry

     iteration # 25     ecut=    30.00 Ry     beta=0.70
     Davidson diagonalization with overlap
     ethr =  2.64E-04,  avg # of iterations =  3.0

     negative rho (up, down):  5.091E-07 0.000E+00

     total cpu time spent up to now is        3.3 secs

     total energy              =     -31.56521956 Ry
     Harris-Foulkes estimate   =     -31.56644661 Ry
     estimated scf accuracy    <       0.00909858 Ry

     iteration # 26     ecut=    30.00 Ry     beta=0.70
     Davidson diagonalization with overlap
     ethr =  1.14E-04,  avg # of iterations =  6.0

     negative rho (up, down):  2.820E-07 0.000E+00

     total cpu time spent up to now is        3.3 secs

     total energy              =     -31.55965428 Ry
     Harris-Foulkes estimate   =     -31.56813065 Ry
     estimated scf accuracy    <       0.17389364 Ry

     iteration # 27     ecut=    30.00 Ry     beta=0.70
     Davidson diagonalization with overlap
     ethr =  1.14E-04,  avg # of iterations =  1.0

     negative rho (up, down):  9.087E-08 0.000E+00

     total cpu time spent up to now is        3.4 secs

     total energy              =     -31.55592178 Ry
     Harris-Foulkes estimate   =     -31.56888161 Ry
     estimated scf accuracy    <       0.17732825 Ry

     iteration # 28     ecut=    30.00 Ry     beta=0.70
     Davidson diagonalization with overlap
     ethr =  1.14E-04,  avg # of iterations =  1.0

     total cpu time spent up to now is        3.4 secs

     total energy              =     -31.56415506 Ry
     Harris-Foulkes estimate   =     -31.57293639 Ry
     estimated scf accuracy    <       0.55572413 Ry

     iteration # 29     ecut=    30.00 Ry     beta=0.70
     Davidson diagonalization with overlap
     ethr =  1.14E-04,  avg # of iterations =  1.0

     total cpu time spent up to now is        3.5 secs

     total energy              =     -31.56614668 Ry
     Harris-Foulkes estimate   =     -31.56691303 Ry
     estimated scf accuracy    <       0.06841426 Ry

     iteration # 30     ecut=    30.00 Ry     beta=0.70
     Davidson diagonalization with overlap
     ethr =  1.14E-04,  avg # of iterations =  1.0

     total cpu time spent up to now is        3.5 secs

     total energy              =     -31.56572336 Ry
     Harris-Foulkes estimate   =     -31.56631881 Ry
     estimated scf accuracy    <       0.02074998 Ry

     iteration # 31     ecut=    30.00 Ry     beta=0.70
     Davidson diagonalization with overlap
     ethr =  1.14E-04,  avg # of iterations =  1.0

     total cpu time spent up to now is        3.6 secs

     total energy              =     -31.56606181 Ry
     Harris-Foulkes estimate   =     -31.56606316 Ry
     estimated scf accuracy    <       0.00046339 Ry

     iteration # 32     ecut=    30.00 Ry     beta=0.70
     Davidson diagonalization with overlap
     ethr =  5.79E-06,  avg # of iterations =  6.0

     total cpu time spent up to now is        3.6 secs

     total energy              =     -31.56605129 Ry
     Harris-Foulkes estimate   =     -31.56606200 Ry
     estimated scf accuracy    <       0.00040017 Ry

     iteration # 33     ecut=    30.00 Ry     beta=0.70
     Davidson diagonalization with overlap
     ethr =  5.00E-06,  avg # of iterations =  1.0

     total cpu time spent up to now is        3.7 secs

     total energy              =     -31.56605643 Ry
     Harris-Foulkes estimate   =     -31.56605632 Ry
     estimated scf accuracy    <       0.00000011 Ry

     iteration # 34     ecut=    30.00 Ry     beta=0.70
     Davidson diagonalization with overlap
     ethr =  1.32E-09,  avg # of iterations =  1.0

     total cpu time spent up to now is        3.7 secs

     total energy              =     -31.56605642 Ry
     Harris-Foulkes estimate   =     -31.56605643 Ry
     estimated scf accuracy    <       0.00000007 Ry

     iteration # 35     ecut=    30.00 Ry     beta=0.70
     Davidson diagonalization with overlap
     ethr =  8.75E-10,  avg # of iterations =  1.0

     total cpu time spent up to now is        3.8 secs

     total energy              =     -31.56605644 Ry
     Harris-Foulkes estimate   =     -31.56605642 Ry
     estimated scf accuracy    <       0.00000004 Ry

     iteration # 36     ecut=    30.00 Ry     beta=0.70
     Davidson diagonalization with overlap
     ethr =  4.41E-10,  avg # of iterations =  1.0

     total cpu time spent up to now is        3.8 secs

     End of self-consistent calculation

          k = 0.0000 0.0000 0.0000 ( 22119 PWs)   bands (ev):

   -23.6255  -7.7615  -6.9523  -6.9517  -6.8196  -6.3757  -0.1502   0.6109

     the Fermi energy is    -6.7866 ev

!    total energy              =     -31.56605643 Ry
     Harris-Foulkes estimate   =     -31.56605644 Ry
     estimated scf accuracy    <          9.4E-11 Ry

     convergence has been achieved in  36 iterations

     Forces acting on atoms (Ry/au):

     atom    1 type  2   force =    -0.06477221    0.02824804    0.00045753
     atom    2 type  1   force =    -0.00002825    0.00015895   -0.00012714
     atom    3 type  1   force =     0.06480046   -0.02840698   -0.00033040

     Total force =     0.099999     Total SCF correction =     0.000013

     Entering Dynamics:    iteration =     2
                           time      =   0.0097 pico-seconds


     Andersen thermostat:    3 collisions

ATOMIC_POSITIONS (bohr)
O        6.379464860  10.263744344  10.405993604
H        0.179816305   2.013094314  14.551537375
H        2.658782138  12.249479311  10.335879696


     kinetic energy (Ekin) =     0.00995402 Ry
     temperature           =   523.87106410 K 
     Ekin + Etot (const)   =   -31.55610241 Ry
     Message from routine dynamics:
     Total linear momentum <> 0

     Linear momentum :    0.0316409203    0.3676783473    0.1781879288

     Writing output data file pwscf.save

     first order wave-functions extrapolation
     Check: negative starting charge=   -0.342614
     first order charge density extrapolation
     Check: negative starting charge=   -0.343131

     negative rho (up, down):  4.633E-01 0.000E+00

     total cpu time spent up to now is        4.3 secs

     per-process dynamical memory:    20.4 Mb

     Self-consistent Calculation

     iteration #  1     ecut=    30.00 Ry     beta=0.70
     Davidson diagonalization with overlap
     ethr =  1.00E-06,  avg # of iterations = 10.0

     negative rho (up, down):  9.901E-02 0.000E+00

     total cpu time spent up to now is        4.4 secs

     total energy              =      47.89190627 Ry
     Harris-Foulkes estimate   =    -444.83036301 Ry
     estimated scf accuracy    <      19.94368103 Ry

     iteration #  2     ecut=    30.00 Ry     beta=0.70
     Davidson diagonalization with overlap
     ethr =  1.00E-02,  avg # of iterations =  5.0

     negative rho (up, down):  6.162E-02 0.000E+00

     total cpu time spent up to now is        4.5 secs

     total energy              =     -34.26067286 Ry
     Harris-Foulkes estimate   =     -43.03110333 Ry
     estimated scf accuracy    <      17.57909810 Ry

     iteration #  3     ecut=    30.00 Ry     beta=0.70
     Davidson diagonalization with overlap
     ethr =  1.00E-02,  avg # of iterations =  2.0

     negative rho (up, down):  5.603E-02 0.000E+00

     total cpu time spent up to now is        4.5 secs

     total energy              =     -33.72668804 Ry
     Harris-Foulkes estimate   =     -35.03887188 Ry
     estimated scf accuracy    <       8.55049818 Ry

     iteration #  4     ecut=    30.00 Ry     beta=0.70
     Davidson diagonalization with overlap
     ethr =  1.00E-02,  avg # of iterations =  1.0

     negative rho (up, down):  3.444E-02 0.000E+00

     total cpu time spent up to now is        4.6 secs

     total energy              =     -32.14523058 Ry
     Harris-Foulkes estimate   =     -34.17004353 Ry
     estimated scf accuracy    <       5.11929108 Ry

     iteration #  5     ecut=    30.00 Ry     beta=0.70
     Davidson diagonalization with overlap
     ethr =  1.00E-02,  avg # of iterations =  1.0

     negative rho (up, down):  1.328E-02 0.000E+00

     total cpu time spent up to now is        4.6 secs

     total energy              =     -31.19493788 Ry
     Harris-Foulkes estimate   =     -32.18670665 Ry
     estimated scf accuracy    <       2.07032982 Ry

     iteration #  6     ecut=    30.00 Ry     beta=0.70
     Davidson diagonalization with overlap
     ethr =  1.00E-02,  avg # of iterations =  3.0

     negative rho (up, down):  1.712E-02 0.000E+00

     total cpu time spent up to now is        4.7 secs

     total energy              =     -31.53625402 Ry
     Harris-Foulkes estimate   =     -32.12744637 Ry
     estimated scf accuracy    <       1.88132661 Ry

     iteration #  7     ecut=    30.00 Ry     beta=0.70
     Davidson diagonalization with overlap
     ethr =  1.00E-02,  avg # of iterations =  2.0

     negative rho (up, down):  1.623E-02 0.000E+00

     total cpu time spent up to now is        4.7 secs

     total energy              =     -31.71809467 Ry
     Harris-Foulkes estimate   =     -31.75831718 Ry
     estimated scf accuracy    <       1.38038775 Ry

     iteration #  8     ecut=    30.00 Ry     beta=0.70
     Davidson diagonalization with overlap
     ethr =  1.00E-02,  avg # of iterations =  1.0

     negative rho (up, down):  1.278E-02 0.000E+00

     total cpu time spent up to now is        4.8 secs

     total energy              =     -31.68459582 Ry
     Harris-Foulkes estimate   =     -31.71957305 Ry
     estimated scf accuracy    <       1.23728348 Ry

     iteration #  9     ecut=    30.00 Ry     beta=0.70
     Davidson diagonalization with overlap
     ethr =  1.00E-02,  avg # of iterations =  1.0

     negative rho (up, down):  1.295E-02 0.000E+00

     total cpu time spent up to now is        4.8 secs

     total energy              =     -31.71446896 Ry
     Harris-Foulkes estimate   =     -31.71066085 Ry
     estimated scf accuracy    <       1.08617760 Ry

     iteration # 10     ecut=    30.00 Ry     beta=0.70
     Davidson diagonalization with overlap
     ethr =  1.00E-02,  avg # of iterations =  1.0

     negative rho (up, down):  3.668E-02 0.000E+00

     total cpu time spent up to now is        4.9 secs

     total energy              =     -32.23601467 Ry
     Harris-Foulkes estimate   =     -31.71465533 Ry
     estimated scf accuracy    <       1.08500451 Ry

     iteration # 11     ecut=    30.00 Ry     beta=0.70
     Davidson diagonalization with overlap
     ethr =  1.00E-02,  avg # of iterations =  3.0

     negative rho (up, down):  4.832E-02 0.000E+00

     total cpu time spent up to now is        4.9 secs

     total energy              =     -34.41518246 Ry
     Harris-Foulkes estimate   =     -32.86763265 Ry
     estimated scf accuracy    <       3.41252921 Ry

     iteration # 12     ecut=    30.00 Ry     beta=0.70
     Davidson diagonalization with overlap
     ethr =  1.00E-02,  avg # of iterations =  4.0

     negative rho (up, down):  6.264E-02 0.000E+00

     total cpu time spent up to now is        5.0 secs

     total energy              =     -30.27857696 Ry
     Harris-Foulkes estimate   =     -38.76466511 Ry
     estimated scf accuracy    <       9.42041616 Ry

     iteration # 13     ecut=    30.00 Ry     beta=0.70
     Davidson diagonalization with overlap
     ethr =  1.00E-02,  avg # of iterations =  3.0

     negative rho (up, down):  7.680E-02 0.000E+00

     total cpu time spent up to now is        5.0 secs

     total energy              =     -65.13498212 Ry
     Harris-Foulkes estimate   =     -34.14566140 Ry
     estimated scf accuracy    <       6.69108619 Ry

     iteration # 14     ecut=    30.00 Ry     beta=0.70
     Davidson diagonalization with overlap
     ethr =  1.00E-02,  avg # of iterations =  6.0

     negative rho (up, down):  7.628E-02 0.000E+00

     total cpu time spent up to now is        5.1 secs

     total energy              =      14.68677470 Ry
     Harris-Foulkes estimate   =    -296.60112059 Ry
     estimated scf accuracy    <      18.46216956 Ry

     iteration # 15     ecut=    30.00 Ry     beta=0.70
     Davidson diagonalization with overlap
     ethr =  1.00E-02,  avg # of iterations =  5.0

     negative rho (up, down):  5.462E-02 0.000E+00

     total cpu time spent up to now is        5.2 secs

     total energy              =     -24.16721882 Ry
     Harris-Foulkes estimate   =     -46.24142829 Ry
     estimated scf accuracy    <       8.47192753 Ry

     iteration # 16     ecut=    30.00 Ry     beta=0.70
     Davidson diagonalization with overlap
     ethr =  1.00E-02,  avg # of iterations =  7.0

     negative rho (up, down):  5.741E-02 0.000E+00

     total cpu time spent up to now is        5.2 secs

     total energy              =     -30.32756438 Ry
     Harris-Foulkes estimate   =     -98.40214698 Ry
     estimated scf accuracy    <      34.33069641 Ry

     iteration # 17     ecut=    30.00 Ry     beta=0.70
     Davidson diagonalization with overlap
     ethr =  1.00E-02,  avg # of iterations =  5.0

     negative rho (up, down):  1.613E-01 0.000E+00

     total cpu time spent up to now is        5.4 secs

     total energy              =     -95.20901903 Ry
     Harris-Foulkes estimate   =    -489.41214040 Ry
     estimated scf accuracy    <      73.00256115 Ry

     iteration # 18     ecut=    30.00 Ry     beta=0.70
     Davidson diagonalization with overlap
     ethr =  1.00E-02,  avg # of iterations =  5.0

     negative rho (up, down):  1.517E-01 0.000E+00

     total cpu time spent up to now is        5.5 secs

     total energy              =     -28.79877508 Ry
     Harris-Foulkes estimate   =    -681.19738076 Ry
     estimated scf accuracy    <      62.53989953 Ry

     iteration # 19     ecut=    30.00 Ry     beta=0.70
     Davidson diagonalization with overlap
     ethr =  1.00E-02,  avg # of iterations =  7.0

     negative rho (up, down):  5.853E-01 0.000E+00

     total cpu time spent up to now is        5.6 secs

     total energy              =    -289.32328531 Ry
     Harris-Foulkes estimate   =    -310.98222583 Ry
     estimated scf accuracy    <      59.83863727 Ry

     iteration # 20     ecut=    30.00 Ry     beta=0.70
     Davidson diagonalization with overlap
     ethr =  1.00E-02,  avg # of iterations =  5.0

     negative rho (up, down):  6.845E-01 0.000E+00

     total cpu time spent up to now is        5.7 secs

     total energy              =     -79.46716453 Ry
     Harris-Foulkes estimate   =   -1844.81714059 Ry
     estimated scf accuracy    <      62.13603863 Ry

     iteration # 21     ecut=    30.00 Ry     beta=0.70
     Davidson diagonalization with overlap
     ethr =  1.00E-02,  avg # of iterations = 11.0

     negative rho (up, down):  1.032E+00 0.000E+00

     total cpu time spent up to now is        5.7 secs

     total energy              =    -121.18406846 Ry
     Harris-Foulkes estimate   =    -746.96740062 Ry
     estimated scf accuracy    <      53.48117804 Ry

     iteration # 22     ecut=    30.00 Ry     beta=0.70
     Davidson diagonalization with overlap
     ethr =  1.00E-02,  avg # of iterations =  6.0

     negative rho (up, down):  1.120E+00 0.000E+00

     total cpu time spent up to now is        5.8 secs

     total energy              =      82.48511275 Ry
     Harris-Foulkes estimate   =   -2399.11792458 Ry
     estimated scf accuracy    <      47.86056203 Ry

     iteration # 23     ecut=    30.00 Ry     beta=0.70
     Davidson diagonalization with overlap
     ethr =  1.00E-02,  avg # of iterations =  7.0

     negative rho (up, down):  1.566E+00 0.000E+00

     total cpu time spent up to now is        5.9 secs

     total energy              =     -81.27550542 Ry
     Harris-Foulkes estimate   =   -1648.76749137 Ry
     estimated scf accuracy    <      56.79592799 Ry

     iteration # 24     ecut=    30.00 Ry     beta=0.70
     Davidson diagonalization with overlap
     ethr =  1.00E-02,  avg # of iterations =  7.0

     negative rho (up, down):  3.820E+00 0.000E+00

     total cpu time spent up to now is        6.0 secs

     total energy              =     -10.15725644 Ry
     Harris-Foulkes estimate   =   -3734.29152393 Ry
     estimated scf accuracy    <      46.98948444 Ry

     iteration # 25     ecut=    30.00 Ry     beta=0.70
     Davidson diagonalization with overlap
     ethr =  1.00E-02,  avg # of iterations =  8.0

     negative rho (up, down):  3.585E+00 0.000E+00

     total cpu time spent up to now is        6.1 secs

     total energy              =   -1320.54717888 Ry
     Harris-Foulkes estimate   =   -4943.59313149 Ry
     estimated scf accuracy    <      38.45485912 Ry

     iteration # 26     ecut=    30.00 Ry     beta=0.70
     Davidson diagonalization with overlap
     ethr =  1.00E-02,  avg # of iterations =  9.0

     negative rho (up, down):  2.767E+00 0.000E+00

     total cpu time spent up to now is        6.2 secs

     total energy              =     -10.46333803 Ry
     Harris-Foulkes estimate   =   -5825.00913909 Ry
     estimated scf accuracy    <      52.99117564 Ry

     iteration # 27     ecut=    30.00 Ry     beta=0.70
     Davidson diagonalization with overlap
     ethr =  1.00E-02,  avg # of iterations =  7.0

     negative rho (up, down):  2.568E+00 0.000E+00

     total cpu time spent up to now is        6.3 secs

     total energy              =    -271.47254854 Ry
     Harris-Foulkes estimate   =  -20400.85007313 Ry
     estimated scf accuracy    <      24.51466528 Ry

     iteration # 28     ecut=    30.00 Ry     beta=0.70
     Davidson diagonalization with overlap
     ethr =  1.00E-02,  avg # of iterations = 12.0

     negative rho (up, down):  2.147E+00 0.000E+00

     total cpu time spent up to now is        6.4 secs

     total energy              =      49.11417282 Ry
     Harris-Foulkes estimate   =   -3621.81285491 Ry
     estimated scf accuracy    <      25.08587798 Ry

     iteration # 29     ecut=    30.00 Ry     beta=0.70
     Davidson diagonalization with overlap
     ethr =  1.00E-02,  avg # of iterations =  7.0

     negative rho (up, down):  3.378E-01 0.000E+00

     total cpu time spent up to now is        6.4 secs

     total energy              =      46.04749987 Ry
     Harris-Foulkes estimate   =   -1541.94122171 Ry
     estimated scf accuracy    <      32.73379580 Ry

     iteration # 30     ecut=    30.00 Ry     beta=0.70
     Davidson diagonalization with overlap
     ethr =  1.00E-02,  avg # of iterations =  6.0

     negative rho (up, down):  1.898E-01 0.000E+00

     total cpu time spent up to now is        6.5 secs

     total energy              =     112.67468166 Ry
     Harris-Foulkes estimate   =    -923.29342072 Ry
     estimated scf accuracy    <      17.62499514 Ry

     iteration # 31     ecut=    30.00 Ry     beta=0.70
     Davidson diagonalization with overlap
     ethr =  1.00E-02,  avg # of iterations =  7.0

     negative rho (up, down):  3.329E-01 0.000E+00

     total cpu time spent up to now is        6.6 secs

     total energy              =     106.48753955 Ry
     Harris-Foulkes estimate   =   -1093.65110506 Ry
     estimated scf accuracy    <      24.96306382 Ry

     iteration # 32     ecut=    30.00 Ry     beta=0.70
     Davidson diagonalization with overlap
     ethr =  1.00E-02,  avg # of iterations =  5.0

     negative rho (up, down):  2.942E-01 0.000E+00

     total cpu time spent up to now is        6.7 secs

     total energy              =     113.90774771 Ry
     Harris-Foulkes estimate   =    -635.14356667 Ry
     estimated scf accuracy    <      18.34002898 Ry

     iteration # 33     ecut=    30.00 Ry     beta=0.70
     Davidson diagonalization with overlap
     ethr =  1.00E-02,  avg # of iterations =  8.0

     negative rho (up, down):  3.582E-01 0.000E+00

     total cpu time spent up to now is        6.8 secs

     total energy              =      -8.57731970 Ry
     Harris-Foulkes estimate   =    -149.62152502 Ry
     estimated scf accuracy    <      28.45700568 Ry

     iteration # 34     ecut=    30.00 Ry     beta=0.70
     Davidson diagonalization with overlap
     ethr =  1.00E-02,  avg # of iterations =  6.0

     negative rho (up, down):  2.426E-01 0.000E+00

     total cpu time spent up to now is        6.9 secs

     total energy              =   -1830.52371721 Ry
     Harris-Foulkes estimate   =   -2058.42524781 Ry
     estimated scf accuracy    <      20.24774980 Ry

     iteration # 35     ecut=    30.00 Ry     beta=0.70
     Davidson diagonalization with overlap
     ethr =  1.00E-02,  avg # of iterations =  6.0

     negative rho (up, down):  2.493E-01 0.000E+00

     total cpu time spent up to now is        6.9 secs

     total energy              =      78.89621459 Ry
     Harris-Foulkes estimate   =   -5472.83602058 Ry
     estimated scf accuracy    <      22.17154684 Ry

     iteration # 36     ecut=    30.00 Ry     beta=0.70
     Davidson diagonalization with overlap
     ethr =  1.00E-02,  avg # of iterations =  8.0

     negative rho (up, down):  1.667E-01 0.000E+00

     total cpu time spent up to now is        7.0 secs

     total energy              =     133.60899719 Ry
     Harris-Foulkes estimate   =   -1800.76766925 Ry
     estimated scf accuracy    <      20.64628587 Ry

     iteration # 37     ecut=    30.00 Ry     beta=0.70
     Davidson diagonalization with overlap
     ethr =  1.00E-02,  avg # of iterations = 10.0

     negative rho (up, down):  9.007E-02 0.000E+00

     total cpu time spent up to now is        7.1 secs

     total energy              =      20.05702779 Ry
     Harris-Foulkes estimate   =    -876.82682108 Ry
     estimated scf accuracy    <      23.29473007 Ry

     iteration # 38     ecut=    30.00 Ry     beta=0.70
     Davidson diagonalization with overlap
     ethr =  1.00E-02,  avg # of iterations =  5.0

     negative rho (up, down):  2.730E-02 0.000E+00

     total cpu time spent up to now is        7.2 secs

     total energy              =     -22.26276105 Ry
     Harris-Foulkes estimate   =    -223.97061834 Ry
     estimated scf accuracy    <      33.67092993 Ry

     iteration # 39     ecut=    30.00 Ry     beta=0.70
     Davidson diagonalization with overlap
     ethr =  1.00E-02,  avg # of iterations =  6.0

     negative rho (up, down):  1.334E-01 0.000E+00

     total cpu time spent up to now is        7.3 secs

     total energy              =     -78.90899520 Ry
     Harris-Foulkes estimate   =    -819.42236074 Ry
     estimated scf accuracy    <      33.35543113 Ry

     iteration # 40     ecut=    30.00 Ry     beta=0.70
     Davidson diagonalization with overlap
     ethr =  1.00E-02,  avg # of iterations =  6.0

     negative rho (up, down):  2.314E-01 0.000E+00

     total cpu time spent up to now is        7.3 secs

     total energy              =    -103.89576908 Ry
     Harris-Foulkes estimate   =    -575.03861971 Ry
     estimated scf accuracy    <      32.37580937 Ry

     iteration # 41     ecut=    30.00 Ry     beta=0.70
     Davidson diagonalization with overlap
     ethr =  1.00E-02,  avg # of iterations =  7.0

     negative rho (up, down):  2.059E-01 0.000E+00

     total cpu time spent up to now is        7.4 secs

     total energy              =    -504.23437840 Ry
     Harris-Foulkes estimate   =    -470.03448553 Ry
     estimated scf accuracy    <      29.11150731 Ry

     iteration # 42     ecut=    30.00 Ry     beta=0.70
     Davidson diagonalization with overlap
     ethr =  1.00E-02,  avg # of iterations =  6.0

     negative rho (up, down):  1.176E-01 0.000E+00

     total cpu time spent up to now is        7.5 secs

     total energy              =      36.42859431 Ry
     Harris-Foulkes estimate   =   -1977.58262347 Ry
     estimated scf accuracy    <      35.41972473 Ry

     iteration # 43     ecut=    30.00 Ry     beta=0.70
     Davidson diagonalization with overlap
     ethr =  1.00E-02,  avg # of iterations =  6.0

     negative rho (up, down):  2.297E-01 0.000E+00

     total cpu time spent up to now is        7.6 secs

     total energy              =    -730.82237369 Ry
     Harris-Foulkes estimate   =    -470.13090011 Ry
     estimated scf accuracy    <      32.27759620 Ry

     iteration # 44     ecut=    30.00 Ry     beta=0.70
     Davidson diagonalization with overlap
     ethr =  1.00E-02,  avg # of iterations =  5.0

     negative rho (up, down):  2.674E-01 0.000E+00

     total cpu time spent up to now is        7.6 secs

     total energy              =    -755.34851015 Ry
     Harris-Foulkes estimate   =   -3987.03852285 Ry
     estimated scf accuracy    <      40.17290041 Ry

     iteration # 45     ecut=    30.00 Ry     beta=0.70
     Davidson diagonalization with overlap
     ethr =  1.00E-02,  avg # of iterations =  7.0

     negative rho (up, down):  5.486E-01 0.000E+00

     total cpu time spent up to now is        7.7 secs

     total energy              =    -104.53377478 Ry
     Harris-Foulkes estimate   =  -11197.88710814 Ry
     estimated scf accuracy    <      25.02916863 Ry

     iteration # 46     ecut=    30.00 Ry     beta=0.70
     Davidson diagonalization with overlap
     ethr =  1.00E-02,  avg # of iterations =  7.0

     negative rho (up, down):  7.109E-01 0.000E+00

     total cpu time spent up to now is        7.8 secs

     total energy              =      -7.51427178 Ry
     Harris-Foulkes estimate   =   -4179.35317011 Ry
     estimated scf accuracy    <      37.86689945 Ry

     iteration # 47     ecut=    30.00 Ry     beta=0.70
     Davidson diagonalization with overlap
     ethr =  1.00E-02,  avg # of iterations =  9.0

     negative rho (up, down):  4.080E-01 0.000E+00

     total cpu time spent up to now is        7.9 secs

     total energy              =     137.55627670 Ry
     Harris-Foulkes estimate   =  -14658.10544923 Ry
     estimated scf accuracy    <      37.26868927 Ry

     iteration # 48     ecut=    30.00 Ry     beta=0.70
     Davidson diagonalization with overlap
     ethr =  1.00E-02,  avg # of iterations = 13.0

     negative rho (up, down):  8.125E-01 0.000E+00

     total cpu time spent up to now is        8.0 secs

     total energy              =    -104.66008669 Ry
     Harris-Foulkes estimate   =    -689.64970853 Ry
     estimated scf accuracy    <      28.44428640 Ry

     iteration # 49     ecut=    30.00 Ry     beta=0.70
     Davidson diagonalization with overlap
     ethr =  1.00E-02,  avg # of iterations = 11.0

     negative rho (up, down):  7.847E-01 0.000E+00

     total cpu time spent up to now is        8.1 secs

     total energy              =    -295.78031214 Ry
     Harris-Foulkes estimate   =   -3997.26416231 Ry
     estimated scf accuracy    <      22.39782662 Ry

     iteration # 50     ecut=    30.00 Ry     beta=0.70
     Davidson diagonalization with overlap
     ethr =  1.00E-02,  avg # of iterations = 10.0

     negative rho (up, down):  7.391E-01 0.000E+00

     total cpu time spent up to now is        8.2 secs

     total energy              =     -74.99184532 Ry
     Harris-Foulkes estimate   =  -26699.23614654 Ry
     estimated scf accuracy    <      24.38179279 Ry

     iteration # 51     ecut=    30.00 Ry     beta=0.70
     Davidson diagonalization with overlap
     ethr =  1.00E-02,  avg # of iterations =  6.0

     negative rho (up, down):  6.347E-01 0.000E+00

     total cpu time spent up to now is        8.3 secs

     total energy              =   -1009.86605503 Ry
     Harris-Foulkes estimate   =   -3612.74655692 Ry
     estimated scf accuracy    <      18.40248419 Ry

     iteration # 52     ecut=    30.00 Ry     beta=0.70
     Davidson diagonalization with overlap
     ethr =  1.00E-02,  avg # of iterations = 13.0

     negative rho (up, down):  5.291E-01 0.000E+00

     total cpu time spent up to now is        8.4 secs

     total energy              =    -170.02871472 Ry
     Harris-Foulkes estimate   =  -23028.89614271 Ry
     estimated scf accuracy    <      19.74678063 Ry

     iteration # 53     ecut=    30.00 Ry     beta=0.70
     Davidson diagonalization with overlap
     ethr =  1.00E-02,  avg # of iterations =  8.0

     negative rho (up, down):  1.729E-02 0.000E+00

     total cpu time spent up to now is        8.5 secs

     total energy              =      61.88473842 Ry
     Harris-Foulkes estimate   =    -540.74676719 Ry
     estimated scf accuracy    <      23.81020782 Ry

     iteration # 54     ecut=    30.00 Ry     beta=0.70
     Davidson diagonalization with overlap
     ethr =  1.00E-02,  avg # of iterations =  5.0

     negative rho (up, down):  2.215E-03 0.000E+00

     total cpu time spent up to now is        8.5 secs

     total energy              =     -17.73840678 Ry
     Harris-Foulkes estimate   =    -159.56935816 Ry
     estimated scf accuracy    <      38.19043229 Ry

     iteration # 55     ecut=    30.00 Ry     beta=0.70
     Davidson diagonalization with overlap
     ethr =  1.00E-02,  avg # of iterations =  6.0

     negative rho (up, down):  6.264E-02 0.000E+00

     total cpu time spent up to now is        8.6 secs

     total energy              =     -63.41348497 Ry
     Harris-Foulkes estimate   =     -68.66195661 Ry
     estimated scf accuracy    <      51.40175613 Ry

     iteration # 56     ecut=    30.00 Ry     beta=0.70
     Davidson diagonalization with overlap
     ethr =  1.00E-02,  avg # of iterations =  1.0

     negative rho (up, down):  7.385E-01 0.000E+00

     total cpu time spent up to now is        8.6 secs

     total energy              =     -55.95910118 Ry
     Harris-Foulkes estimate   =     -63.44056901 Ry
     estimated scf accuracy    <      44.57783155 Ry

     iteration # 57     ecut=    30.00 Ry     beta=0.70
     Davidson diagonalization with overlap
     ethr =  1.00E-02,  avg # of iterations =  8.0

     negative rho (up, down):  5.173E-01 0.000E+00

     total cpu time spent up to now is        8.7 secs

     total energy              =    -327.72953378 Ry
     Harris-Foulkes estimate   =    -285.64925024 Ry
     estimated scf accuracy    <      24.67849357 Ry

     iteration # 58     ecut=    30.00 Ry     beta=0.70
     Davidson diagonalization with overlap
     ethr =  1.00E-02,  avg # of iterations =  8.0

     negative rho (up, down):  4.875E-01 0.000E+00

     total cpu time spent up to now is        8.8 secs

     total energy              =      55.98775442 Ry
     Harris-Foulkes estimate   =  -11946.51826884 Ry
     estimated scf accuracy    <      26.90209865 Ry

     iteration # 59     ecut=    30.00 Ry     beta=0.70
     Davidson diagonalization with overlap
     ethr =  1.00E-02,  avg # of iterations = 10.0

     negative rho (up, down):  3.218E-01 0.000E+00

     total cpu time spent up to now is        8.9 secs

     total energy              =      66.48826374 Ry
     Harris-Foulkes estimate   =    -805.58239598 Ry
     estimated scf accuracy    <      37.14443808 Ry

     iteration # 60     ecut=    30.00 Ry     beta=0.70
     Davidson diagonalization with overlap
     ethr =  1.00E-02,  avg # of iterations =  8.0

     negative rho (up, down):  3.300E-01 0.000E+00

     total cpu time spent up to now is        9.0 secs

     total energy              =      -6.50016334 Ry
     Harris-Foulkes estimate   =    -125.26827855 Ry
     estimated scf accuracy    <      21.94017019 Ry

     iteration # 61     ecut=    30.00 Ry     beta=0.70
     Davidson diagonalization with overlap
     ethr =  1.00E-02,  avg # of iterations =  8.0

     negative rho (up, down):  3.255E-01 0.000E+00

     total cpu time spent up to now is        9.0 secs

     total energy              =      21.95052583 Ry
     Harris-Foulkes estimate   =    -437.69997935 Ry
     estimated scf accuracy    <      23.68114195 Ry

     iteration # 62     ecut=    30.00 Ry     beta=0.70
     Davidson diagonalization with overlap
     ethr =  1.00E-02,  avg # of iterations =  6.0

     negative rho (up, down):  1.686E-01 0.000E+00

     total cpu time spent up to now is        9.1 secs

     total energy              =     -46.53744473 Ry
     Harris-Foulkes estimate   =   -1021.10473726 Ry
     estimated scf accuracy    <      22.89022340 Ry

     iteration # 63     ecut=    30.00 Ry     beta=0.70
     Davidson diagonalization with overlap
     ethr =  1.00E-02,  avg # of iterations =  8.0

     negative rho (up, down):  2.342E-01 0.000E+00

     total cpu time spent up to now is        9.2 secs

     total energy              =      68.22491854 Ry
     Harris-Foulkes estimate   =   -2070.15717811 Ry
     estimated scf accuracy    <      20.85018142 Ry

     iteration # 64     ecut=    30.00 Ry     beta=0.70
     Davidson diagonalization with overlap
     ethr =  1.00E-02,  avg # of iterations =  6.0

     negative rho (up, down):  2.343E-01 0.000E+00

     total cpu time spent up to now is        9.3 secs

     total energy              =     -16.33916872 Ry
     Harris-Foulkes estimate   =    -194.29819011 Ry
     estimated scf accuracy    <      26.42355956 Ry

     iteration # 65     ecut=    30.00 Ry     beta=0.70
     Davidson diagonalization with overlap
     ethr =  1.00E-02,  avg # of iterations =  7.0

     negative rho (up, down):  1.591E-01 0.000E+00

     total cpu time spent up to now is        9.4 secs

     total energy              =      -4.84861223 Ry
     Harris-Foulkes estimate   =    -254.99075843 Ry
     estimated scf accuracy    <      18.39880508 Ry

     iteration # 66     ecut=    30.00 Ry     beta=0.70
     Davidson diagonalization with overlap
     ethr =  1.00E-02,  avg # of iterations =  5.0

     negative rho (up, down):  3.168E-02 0.000E+00

     total cpu time spent up to now is        9.4 secs

     total energy              =      37.20128486 Ry
     Harris-Foulkes estimate   =    -270.15030428 Ry
     estimated scf accuracy    <      14.26325380 Ry

     iteration # 67     ecut=    30.00 Ry     beta=0.70
     Davidson diagonalization with overlap
     ethr =  1.00E-02,  avg # of iterations =  7.0

     negative rho (up, down):  6.421E-02 0.000E+00

     total cpu time spent up to now is        9.5 secs

     total energy              =     -47.09141145 Ry
     Harris-Foulkes estimate   =     -60.70872505 Ry
     estimated scf accuracy    <      25.79310496 Ry

     iteration # 68     ecut=    30.00 Ry     beta=0.70
     Davidson diagonalization with overlap
     ethr =  1.00E-02,  avg # of iterations =  5.0

     negative rho (up, down):  9.837E-02 0.000E+00

     total cpu time spent up to now is        9.6 secs

     total energy              =     121.57990358 Ry
     Harris-Foulkes estimate   =    -680.88262575 Ry
     estimated scf accuracy    <      27.42066537 Ry

     iteration # 69     ecut=    30.00 Ry     beta=0.70
     Davidson diagonalization with overlap
     ethr =  1.00E-02,  avg # of iterations =  9.0

     negative rho (up, down):  8.460E-02 0.000E+00

     total cpu time spent up to now is        9.7 secs

     total energy              =      79.69411585 Ry
     Harris-Foulkes estimate   =    -311.53134374 Ry
     estimated scf accuracy    <      26.83851404 Ry

     iteration # 70     ecut=    30.00 Ry     beta=0.70
     Davidson diagonalization with overlap
     ethr =  1.00E-02,  avg # of iterations =  9.0

     negative rho (up, down):  1.603E-03 0.000E+00

     total cpu time spent up to now is        9.8 secs

     total energy              =     102.59754703 Ry
     Harris-Foulkes estimate   =    -175.56758306 Ry
     estimated scf accuracy    <      40.61424007 Ry

     iteration # 71     ecut=    30.00 Ry     beta=0.70
     Davidson diagonalization with overlap
     ethr =  1.00E-02,  avg # of iterations = 10.0

     negative rho (up, down):  6.732E-02 0.000E+00

     total cpu time spent up to now is        9.9 secs

     total energy              =     -55.58181892 Ry
     Harris-Foulkes estimate   =     -57.34142297 Ry
     estimated scf accuracy    <      38.13543799 Ry

     iteration # 72     ecut=    30.00 Ry     beta=0.70
     Davidson diagonalization with overlap
     ethr =  1.00E-02,  avg # of iterations =  7.0

     negative rho (up, down):  1.112E-01 0.000E+00

     total cpu time spent up to now is        9.9 secs

     total energy              =       8.26587049 Ry
     Harris-Foulkes estimate   =    -611.43095465 Ry
     estimated scf accuracy    <      28.17523341 Ry

     iteration # 73     ecut=    30.00 Ry     beta=0.70
     Davidson diagonalization with overlap
     ethr =  1.00E-02,  avg # of iterations =  5.0

     negative rho (up, down):  9.553E-02 0.000E+00

     total cpu time spent up to now is       10.0 secs

     total energy              =      69.79072093 Ry
     Harris-Foulkes estimate   =    -794.62835852 Ry
     estimated scf accuracy    <      18.89634213 Ry

     iteration # 74     ecut=    30.00 Ry     beta=0.70
     Davidson diagonalization with overlap
     ethr =  1.00E-02,  avg # of iterations =  5.0

     negative rho (up, down):  9.667E-02 0.000E+00

     total cpu time spent up to now is       10.1 secs

     total energy              =     -13.39177054 Ry
     Harris-Foulkes estimate   =    -162.33302274 Ry
     estimated scf accuracy    <      19.39741598 Ry

     iteration # 75     ecut=    30.00 Ry     beta=0.70
     Davidson diagonalization with overlap
     ethr =  1.00E-02,  avg # of iterations =  8.0

     negative rho (up, down):  4.345E-02 0.000E+00

     total cpu time spent up to now is       10.2 secs

     total energy              =      57.72193614 Ry
     Harris-Foulkes estimate   =    -136.69208977 Ry
     estimated scf accuracy    <      30.78661826 Ry

     iteration # 76     ecut=    30.00 Ry     beta=0.70
     Davidson diagonalization with overlap
     ethr =  1.00E-02,  avg # of iterations = 10.0

     negative rho (up, down):  2.389E-02 0.000E+00

     total cpu time spent up to now is       10.2 secs

     total energy              =     -19.18353408 Ry
     Harris-Foulkes estimate   =   -2398.89508586 Ry
     estimated scf accuracy    <      20.30867377 Ry

     iteration # 77     ecut=    30.00 Ry     beta=0.70
     Davidson diagonalization with overlap
     ethr =  1.00E-02,  avg # of iterations =  6.0

     negative rho (up, down):  1.662E-02 0.000E+00

     total cpu time spent up to now is       10.3 secs

     total energy              =      10.59300704 Ry
     Harris-Foulkes estimate   =    -280.43721049 Ry
     estimated scf accuracy    <      23.35950089 Ry

     iteration # 78     ecut=    30.00 Ry     beta=0.70
     Davidson diagonalization with overlap
     ethr =  1.00E-02,  avg # of iterations =  5.0

     negative rho (up, down):  4.799E-02 0.000E+00

     total cpu time spent up to now is       10.4 secs

     total energy              =       9.46625833 Ry
     Harris-Foulkes estimate   =    -364.43535688 Ry
     estimated scf accuracy    <      20.62915388 Ry

     iteration # 79     ecut=    30.00 Ry     beta=0.70
     Davidson diagonalization with overlap
     ethr =  1.00E-02,  avg # of iterations =  7.0

     negative rho (up, down):  5.001E-03 0.000E+00

     total cpu time spent up to now is       10.5 secs

     total energy              =     104.90879833 Ry
     Harris-Foulkes estimate   =    -902.29790818 Ry
     estimated scf accuracy    <      23.70485505 Ry

     iteration # 80     ecut=    30.00 Ry     beta=0.70
     Davidson diagonalization with overlap
     ethr =  1.00E-02,  avg # of iterations =  9.0

     negative rho (up, down):  2.034E-01 0.000E+00

     total cpu time spent up to now is       10.6 secs

     total energy              =     -48.11292680 Ry
     Harris-Foulkes estimate   =     -50.20529688 Ry
     estimated scf accuracy    <      28.57330644 Ry

     iteration # 81     ecut=    30.00 Ry     beta=0.70
     Davidson diagonalization with overlap
     ethr =  1.00E-02,  avg # of iterations =  7.0

     negative rho (up, down):  4.894E-02 0.000E+00

     total cpu time spent up to now is       10.6 secs

     total energy              =      -0.74766956 Ry
     Harris-Foulkes estimate   =     -63.65438081 Ry
     estimated scf accuracy    <      12.22123694 Ry

     iteration # 82     ecut=    30.00 Ry     beta=0.70
     Davidson diagonalization with overlap
     ethr =  1.00E-02,  avg # of iterations =  6.0

     negative rho (up, down):  7.777E-02 0.000E+00

     total cpu time spent up to now is       10.7 secs

     total energy              =      -4.09602787 Ry
     Harris-Foulkes estimate   =   -5708.62479179 Ry
     estimated scf accuracy    <      15.28326082 Ry

     iteration # 83     ecut=    30.00 Ry     beta=0.70
     Davidson diagonalization with overlap
     ethr =  1.00E-02,  avg # of iterations =  5.0

     negative rho (up, down):  1.266E-01 0.000E+00

     total cpu time spent up to now is       10.8 secs

     total energy              =     -48.02468768 Ry
     Harris-Foulkes estimate   =     -48.23758258 Ry
     estimated scf accuracy    <      23.85921436 Ry

     iteration # 84     ecut=    30.00 Ry     beta=0.70
     Davidson diagonalization with overlap
     ethr =  1.00E-02,  avg # of iterations =  9.0

     negative rho (up, down):  6.309E-02 0.000E+00

     total cpu time spent up to now is       10.9 secs

     total energy              =      -4.82251813 Ry
     Harris-Foulkes estimate   =   -3458.34922009 Ry
     estimated scf accuracy    <      16.46665233 Ry

     iteration # 85     ecut=    30.00 Ry     beta=0.70
     Davidson diagonalization with overlap
     ethr =  1.00E-02,  avg # of iterations =  7.0

     negative rho (up, down):  1.102E-04 0.000E+00

     total cpu time spent up to now is       10.9 secs

     total energy              =     103.71382857 Ry
     Harris-Foulkes estimate   =    -255.90285344 Ry
     estimated scf accuracy    <      31.58528499 Ry

     iteration # 86     ecut=    30.00 Ry     beta=0.70
     Davidson diagonalization with overlap
     ethr =  1.00E-02,  avg # of iterations =  6.0

     negative rho (up, down):  5.217E-02 0.000E+00

     total cpu time spent up to now is       11.0 secs

     total energy              =     -43.10106364 Ry
     Harris-Foulkes estimate   =     -45.31115083 Ry
     estimated scf accuracy    <      22.30808655 Ry

     iteration # 87     ecut=    30.00 Ry     beta=0.70
     Davidson diagonalization with overlap
     ethr =  1.00E-02,  avg # of iterations =  8.0

     negative rho (up, down):  7.664E-02 0.000E+00

     total cpu time spent up to now is       11.1 secs

     total energy              =      -4.42336949 Ry
     Harris-Foulkes estimate   =    -147.18600702 Ry
     estimated scf accuracy    <      22.18688046 Ry

     iteration # 88     ecut=    30.00 Ry     beta=0.70
     Davidson diagonalization with overlap
     ethr =  1.00E-02,  avg # of iterations =  5.0

     negative rho (up, down):  1.116E-01 0.000E+00

     total cpu time spent up to now is       11.2 secs

     total energy              =     -55.59293974 Ry
     Harris-Foulkes estimate   =    -586.37003963 Ry
     estimated scf accuracy    <      33.92279142 Ry

     iteration # 89     ecut=    30.00 Ry     beta=0.70
     Davidson diagonalization with overlap
     ethr =  1.00E-02,  avg # of iterations =  6.0

     negative rho (up, down):  4.316E-02 0.000E+00

     total cpu time spent up to now is       11.2 secs

     total energy              =     125.92741631 Ry
     Harris-Foulkes estimate   =   -1418.27901458 Ry
     estimated scf accuracy    <      38.01898646 Ry

     iteration # 90     ecut=    30.00 Ry     beta=0.70
     Davidson diagonalization with overlap
     ethr =  1.00E-02,  avg # of iterations =  7.0

     negative rho (up, down):  7.470E-03 0.000E+00

     total cpu time spent up to now is       11.3 secs

     total energy              =      19.27896500 Ry
     Harris-Foulkes estimate   =     -98.26328997 Ry
     estimated scf accuracy    <      17.72239795 Ry

     iteration # 91     ecut=    30.00 Ry     beta=0.70
     Davidson diagonalization with overlap
     ethr =  1.00E-02,  avg # of iterations =  4.0

     negative rho (up, down):  2.000E-02 0.000E+00

     total cpu time spent up to now is       11.4 secs

     total energy              =      17.43300322 Ry
     Harris-Foulkes estimate   =    -102.10607388 Ry
     estimated scf accuracy    <       9.63872909 Ry

     iteration # 92     ecut=    30.00 Ry     beta=0.70
     Davidson diagonalization with overlap
     ethr =  1.00E-02,  avg # of iterations =  7.0

     negative rho (up, down):  2.922E-02 0.000E+00

     total cpu time spent up to now is       11.5 secs

     total energy              =      69.00471773 Ry
     Harris-Foulkes estimate   =    -317.48440914 Ry
     estimated scf accuracy    <      16.74612113 Ry

     iteration # 93     ecut=    30.00 Ry     beta=0.70
     Davidson diagonalization with overlap
     ethr =  1.00E-02,  avg # of iterations =  6.0

     negative rho (up, down):  8.253E-02 0.000E+00

     total cpu time spent up to now is       11.5 secs

     total energy              =     -13.14991571 Ry
     Harris-Foulkes estimate   =    -160.81724037 Ry
     estimated scf accuracy    <      12.26632510 Ry

     iteration # 94     ecut=    30.00 Ry     beta=0.70
     Davidson diagonalization with overlap
     ethr =  1.00E-02,  avg # of iterations =  7.0

     negative rho (up, down):  1.012E-01 0.000E+00

     total cpu time spent up to now is       11.6 secs

     total energy              =      82.76504095 Ry
     Harris-Foulkes estimate   =    -147.55890551 Ry
     estimated scf accuracy    <      33.48532325 Ry

     iteration # 95     ecut=    30.00 Ry     beta=0.70
     Davidson diagonalization with overlap
     ethr =  1.00E-02,  avg # of iterations = 10.0

     negative rho (up, down):  1.417E-01 0.000E+00

     total cpu time spent up to now is       11.7 secs

     total energy              =      -5.80588263 Ry
     Harris-Foulkes estimate   =     -98.07721909 Ry
     estimated scf accuracy    <       9.31496801 Ry

     iteration # 96     ecut=    30.00 Ry     beta=0.70
     Davidson diagonalization with overlap
     ethr =  1.00E-02,  avg # of iterations =  7.0

     negative rho (up, down):  6.577E-02 0.000E+00

     total cpu time spent up to now is       11.8 secs

     total energy              =      60.34522805 Ry
     Harris-Foulkes estimate   =    -858.18234805 Ry
     estimated scf accuracy    <      17.01565110 Ry

     iteration # 97     ecut=    30.00 Ry     beta=0.70
     Davidson diagonalization with overlap
     ethr =  1.00E-02,  avg # of iterations =  6.0

     negative rho (up, down):  7.431E-02 0.000E+00

     total cpu time spent up to now is       11.8 secs

     total energy              =      -1.25446936 Ry
     Harris-Foulkes estimate   =     -90.40915303 Ry
     estimated scf accuracy    <      11.17241135 Ry

     iteration # 98     ecut=    30.00 Ry     beta=0.70
     Davidson diagonalization with overlap
     ethr =  1.00E-02,  avg # of iterations =  6.0

     negative rho (up, down):  8.713E-02 0.000E+00

     total cpu time spent up to now is       11.9 secs

     total energy              =      67.22529091 Ry
     Harris-Foulkes estimate   =    -560.69130643 Ry
     estimated scf accuracy    <      56.15384888 Ry

     iteration # 99     ecut=    30.00 Ry     beta=0.70
     Davidson diagonalization with overlap
     ethr =  1.00E-02,  avg # of iterations =  5.0

     negative rho (up, down):  1.018E-01 0.000E+00

     total cpu time spent up to now is       12.0 secs

     total energy              =      -3.70093479 Ry
     Harris-Foulkes estimate   =    -134.15070132 Ry
     estimated scf accuracy    <      12.16721888 Ry

     iteration #100     ecut=    30.00 Ry     beta=0.70
     Davidson diagonalization with overlap
     ethr =  1.00E-02,  avg # of iterations =  7.0

     negative rho (up, down):  1.863E-01 0.000E+00

     total cpu time spent up to now is       12.1 secs

     total energy              =      -2.33041855 Ry
     Harris-Foulkes estimate   =     -80.31714793 Ry
     estimated scf accuracy    <      16.54668199 Ry

     End of self-consistent calculation

     convergence NOT achieved after 100 iterations: stopping

     Writing output data file pwscf.save
 
     init_run     :      0.17s CPU      0.19s WALL (       1 calls)
     electrons    :      9.39s CPU     11.10s WALL (       3 calls)
     update_pot   :      0.33s CPU      0.43s WALL (       2 calls)
     forces       :      0.09s CPU      0.09s WALL (       2 calls)

     Called by init_run:
     wfcinit      :      0.01s CPU      0.02s WALL (       1 calls)
     potinit      :      0.05s CPU      0.05s WALL (       1 calls)

     Called by electrons:
     c_bands      :      5.36s CPU      5.63s WALL (     158 calls)
     sum_band     :      0.81s CPU      0.84s WALL (     158 calls)
     v_of_rho     :      1.98s CPU      2.06s WALL (     161 calls)
     mix_rho      :      1.02s CPU      2.14s WALL (     158 calls)

     Called by c_bands:
     init_us_2    :      0.02s CPU      0.03s WALL (     317 calls)
     cegterg      :      5.32s CPU      5.55s WALL (     158 calls)

     Called by sum_band:

     Called by *egterg:
     h_psi        :      4.46s CPU      4.57s WALL (     935 calls)
     g_psi        :      0.05s CPU      0.05s WALL (     776 calls)
     cdiaghg      :      0.35s CPU      0.40s WALL (     932 calls)

     Called by h_psi:
     h_psi:pot    :      4.44s CPU      4.54s WALL (     935 calls)
     h_psi:calbec :      0.04s CPU      0.05s WALL (     935 calls)
     vloc_psi     :      4.38s CPU      4.46s WALL (     935 calls)
     add_vuspsi   :      0.01s CPU      0.01s WALL (     935 calls)

     General routines
     calbec       :      0.04s CPU      0.06s WALL (     944 calls)
     fft          :      1.25s CPU      1.30s WALL (    1775 calls)
     fftw         :      4.52s CPU      4.62s WALL (   11328 calls)
     davcio       :      0.19s CPU      1.02s WALL (    2906 calls)
 
     Parallel routines
     fft_scatter  :      1.74s CPU      1.81s WALL (   13103 calls)
 
     PWSCF        :    10.21s CPU        12.19s WALL

 
   This run was terminated on:  17:30:34  13Feb2018            

=------------------------------------------------------------------------------=
   JOB DONE.
=------------------------------------------------------------------------------=
