
     Program PWSCF v.6.0 (svn rev. 13079) starts on 13Feb2018 at 17:35:39 

     This program is part of the open-source Quantum ESPRESSO suite
     for quantum simulation of materials; please cite
         "P. Giannozzi et al., J. Phys.:Condens. Matter 21 395502 (2009);
          URL http://www.quantum-espresso.org", 
     in publications or presentations arising from this work. More details at
     http://www.quantum-espresso.org/quote

     Parallel version (MPI), running on    28 processors
     R & G space division:  proc/nbgrp/npool/nimage =      28
     Reading input from inputs/MD-H2O-round1/849.in

     Current dimensions of program PWSCF are:
     Max number of different atomic species (ntypx) = 10
     Max number of k-points (npk) =  40000
     Max angular momentum in pseudopotentials (lmaxx) =  3

     Subspace diagonalization in iterative solution of the eigenvalue problem:
     a serial algorithm will be used

 
     Parallelization info
     --------------------
     sticks:   dense  smooth     PW     G-vecs:    dense   smooth      PW
     Min         136     136     33                 6338     6338     787
     Max         137     137     34                 6341     6341     792
     Sum        3809    3809    949               177509   177509   22119
 


     bravais-lattice index     =            1
     lattice parameter (alat)  =      20.0000  a.u.
     unit-cell volume          =    8000.0000 (a.u.)^3
     number of atoms/cell      =            3
     number of atomic types    =            2
     number of electrons       =         8.00
     number of Kohn-Sham states=            8
     kinetic-energy cutoff     =      30.0000  Ry
     charge density cutoff     =     120.0000  Ry
     convergence threshold     =      1.0E-08
     mixing beta               =       0.7000
     number of iterations used =            8  plain     mixing
     Exchange-correlation      = BLYP ( 1  3  1  3 0 0)
     nstep                     =         5000


     celldm(1)=  20.000000  celldm(2)=   0.000000  celldm(3)=   0.000000
     celldm(4)=   0.000000  celldm(5)=   0.000000  celldm(6)=   0.000000

     crystal axes: (cart. coord. in units of alat)
               a(1) = (   1.000000   0.000000   0.000000 )  
               a(2) = (   0.000000   1.000000   0.000000 )  
               a(3) = (   0.000000   0.000000   1.000000 )  

     reciprocal axes: (cart. coord. in units 2 pi/alat)
               b(1) = (  1.000000  0.000000  0.000000 )  
               b(2) = (  0.000000  1.000000  0.000000 )  
               b(3) = (  0.000000  0.000000  1.000000 )  


     PseudoPot. # 1 for  H read from file:
     ./H.blyp-hgh.UPF
     MD5 check sum: c576e69559cde411e611be972c763230
     Pseudo is Norm-conserving, Zval =  1.0
     Generated in analytical, separable form
     Using radial grid of  929 points,  0 beta functions with: 

     PseudoPot. # 2 for  O read from file:
     ./O.blyp-hgh.UPF
     MD5 check sum: d0b7156309aa9befef28faac7bc56342
     Pseudo is Norm-conserving, Zval =  6.0
     Generated in analytical, separable form
     Using radial grid of 1095 points,  1 beta functions with: 
                l(1) =   0

     atomic species   valence    mass     pseudopotential
        H              1.00     1.01000      H( 1.00)
        O              6.00    16.00000      O( 1.00)

     No symmetry found



   Cartesian axes

     site n.     atom                  positions (alat units)
         1           O   tau(   1) = (   0.2630704   0.2899093   0.2459678  )
         2           H   tau(   2) = (  -0.0416206   0.3322626   0.3720801  )
         3           H   tau(   3) = (   0.9564774   0.2839472   0.3608056  )

     number of k points=     1  Marzari-Vanderbilt smearing, width (Ry)=  0.0250
                       cart. coord. in units 2pi/alat
        k(    1) = (   0.0000000   0.0000000   0.0000000), wk =   2.0000000

     Dense  grid:   177509 G-vectors     FFT dimensions: (  72,  72,  72)

     Estimated max dynamical RAM per process >       6.09Mb

     Estimated total allocated dynamical RAM >     170.64Mb

     Initial potential from superposition of free atoms
     Check: negative starting charge=   -0.355375

     starting charge    7.99998, renormalised to    8.00000

     negative rho (up, down):  3.554E-01 0.000E+00
     Starting wfc are    6 randomized atomic wfcs +    2 random wfc

     total cpu time spent up to now is        0.3 secs

     per-process dynamical memory:    18.8 Mb

     Self-consistent Calculation

     iteration #  1     ecut=    30.00 Ry     beta=0.70
     Davidson diagonalization with overlap
     ethr =  1.00E-02,  avg # of iterations =  7.0

     negative rho (up, down):  9.392E-02 0.000E+00

     total cpu time spent up to now is        0.4 secs

     total energy              =     -31.47700832 Ry
     Harris-Foulkes estimate   =     -32.29826547 Ry
     estimated scf accuracy    <       0.89533037 Ry

     iteration #  2     ecut=    30.00 Ry     beta=0.70
     Davidson diagonalization with overlap
     ethr =  1.00E-02,  avg # of iterations =  2.0

     negative rho (up, down):  4.320E-02 0.000E+00

     total cpu time spent up to now is        0.5 secs

     total energy              =     -31.75571060 Ry
     Harris-Foulkes estimate   =     -31.80236020 Ry
     estimated scf accuracy    <       0.16559879 Ry

     iteration #  3     ecut=    30.00 Ry     beta=0.70
     Davidson diagonalization with overlap
     ethr =  2.07E-03,  avg # of iterations =  3.0

     negative rho (up, down):  2.581E-02 0.000E+00

     total cpu time spent up to now is        0.5 secs

     total energy              =     -31.78535669 Ry
     Harris-Foulkes estimate   =     -31.78292620 Ry
     estimated scf accuracy    <       0.06229261 Ry

     iteration #  4     ecut=    30.00 Ry     beta=0.70
     Davidson diagonalization with overlap
     ethr =  7.79E-04,  avg # of iterations =  3.0

     negative rho (up, down):  7.677E-03 0.000E+00

     total cpu time spent up to now is        0.6 secs

     total energy              =     -31.80900799 Ry
     Harris-Foulkes estimate   =     -31.79331555 Ry
     estimated scf accuracy    <       0.01330917 Ry

     iteration #  5     ecut=    30.00 Ry     beta=0.70
     Davidson diagonalization with overlap
     ethr =  1.66E-04,  avg # of iterations =  5.0

     negative rho (up, down):  2.040E-04 0.000E+00

     total cpu time spent up to now is        0.6 secs

     total energy              =     -31.81618963 Ry
     Harris-Foulkes estimate   =     -31.81030826 Ry
     estimated scf accuracy    <       0.00042352 Ry

     iteration #  6     ecut=    30.00 Ry     beta=0.70
     Davidson diagonalization with overlap
     ethr =  5.29E-06,  avg # of iterations = 16.0

     negative rho (up, down):  1.724E-05 0.000E+00

     total cpu time spent up to now is        0.7 secs

     total energy              =     -31.81623708 Ry
     Harris-Foulkes estimate   =     -31.81626037 Ry
     estimated scf accuracy    <       0.00022801 Ry

     iteration #  7     ecut=    30.00 Ry     beta=0.70
     Davidson diagonalization with overlap
     ethr =  2.85E-06,  avg # of iterations =  1.0

     negative rho (up, down):  2.555E-06 0.000E+00

     total cpu time spent up to now is        0.8 secs

     total energy              =     -31.81625154 Ry
     Harris-Foulkes estimate   =     -31.81625325 Ry
     estimated scf accuracy    <       0.00000658 Ry

     iteration #  8     ecut=    30.00 Ry     beta=0.70
     Davidson diagonalization with overlap
     ethr =  8.23E-08,  avg # of iterations =  2.0

     total cpu time spent up to now is        0.8 secs

     total energy              =     -31.81625694 Ry
     Harris-Foulkes estimate   =     -31.81625432 Ry
     estimated scf accuracy    <       0.00000142 Ry

     iteration #  9     ecut=    30.00 Ry     beta=0.70
     Davidson diagonalization with overlap
     ethr =  1.78E-08,  avg # of iterations =  2.0

     total cpu time spent up to now is        0.9 secs

     total energy              =     -31.81625752 Ry
     Harris-Foulkes estimate   =     -31.81625713 Ry
     estimated scf accuracy    <       0.00000007 Ry

     iteration # 10     ecut=    30.00 Ry     beta=0.70
     Davidson diagonalization with overlap
     ethr =  9.26E-10,  avg # of iterations =  2.0

     total cpu time spent up to now is        0.9 secs

     total energy              =     -31.81625766 Ry
     Harris-Foulkes estimate   =     -31.81625753 Ry
     estimated scf accuracy    <       0.00000003 Ry

     iteration # 11     ecut=    30.00 Ry     beta=0.70
     Davidson diagonalization with overlap
     ethr =  3.49E-10,  avg # of iterations =  2.0

     total cpu time spent up to now is        1.0 secs

     End of self-consistent calculation

          k = 0.0000 0.0000 0.0000 ( 22119 PWs)   bands (ev):

   -25.0853 -11.3837  -8.3880  -8.3876  -8.3857  -0.3145   0.7375   0.8305

     the Fermi energy is    -8.2641 ev

!    total energy              =     -31.81625767 Ry
     Harris-Foulkes estimate   =     -31.81625766 Ry
     estimated scf accuracy    <          1.8E-09 Ry

     convergence has been achieved in  11 iterations

     Forces acting on atoms (Ry/au):

     atom    1 type  2   force =    -0.00027251   -0.00078004   -0.00140803
     atom    2 type  1   force =     0.02683202    0.67918535    0.15904076
     atom    3 type  1   force =    -0.02655951   -0.67840531   -0.15763273

     Total force =     0.986457     Total SCF correction =     0.000019

     Molecular Dynamics Calculation

     Starting temperature  =  1000.00 K

     temperature is controlled by Andersen thermostat
     Collision frequency = 1.0000/timestep
     mass H                =     1.01
     mass O                =    16.00
     Time step             =   100.00 a.u.,  4.8378 femto-seconds

     Entering Dynamics:    iteration =     1
                           time      =   0.0048 pico-seconds


     Andersen thermostat:    3 collisions

ATOMIC_POSITIONS (bohr)
O        5.270356706   5.795612546   4.933622894
H       -0.835065235  10.530646369   7.970007566
H       18.990438552   1.834302372   6.461697231


     kinetic energy (Ekin) =     0.00984443 Ry
     temperature           =   518.10377674 K 
     Ekin + Etot (const)   =   -31.80641323 Ry

     Linear momentum :    0.0000000000    0.0000000000    0.0000000000

     Writing output data file pwscf.save
     Check: negative starting charge=   -0.355375
     NEW-OLD atomic charge density approx. for the potential
     Check: negative starting charge=   -0.340510

     negative rho (up, down):  2.677E-01 0.000E+00

     total cpu time spent up to now is        1.4 secs

     per-process dynamical memory:    20.4 Mb

     Self-consistent Calculation

     iteration #  1     ecut=    30.00 Ry     beta=0.70
     Davidson diagonalization with overlap
     c_bands:  1 eigenvalues not converged
     ethr =  1.00E-06,  avg # of iterations = 20.0

     negative rho (up, down):  7.452E-02 0.000E+00

     total cpu time spent up to now is        1.5 secs

     total energy              =     -29.38136049 Ry
     Harris-Foulkes estimate   =     -31.79198318 Ry
     estimated scf accuracy    <       3.06144832 Ry

     iteration #  2     ecut=    30.00 Ry     beta=0.70
     Davidson diagonalization with overlap
     ethr =  1.00E-02,  avg # of iterations =  4.0

     negative rho (up, down):  3.653E-02 0.000E+00

     total cpu time spent up to now is        1.5 secs

     total energy              =     -31.55928101 Ry
     Harris-Foulkes estimate   =     -37.94340956 Ry
     estimated scf accuracy    <      20.50358487 Ry

     iteration #  3     ecut=    30.00 Ry     beta=0.70
     Davidson diagonalization with overlap
     ethr =  1.00E-02,  avg # of iterations =  2.0

     negative rho (up, down):  1.057E-02 0.000E+00

     total cpu time spent up to now is        1.6 secs

     total energy              =     -28.14857915 Ry
     Harris-Foulkes estimate   =     -31.71915150 Ry
     estimated scf accuracy    <      11.92575745 Ry

     iteration #  4     ecut=    30.00 Ry     beta=0.70
     Davidson diagonalization with overlap
     ethr =  1.00E-02,  avg # of iterations =  7.0

     negative rho (up, down):  7.897E-04 0.000E+00

     total cpu time spent up to now is        1.7 secs

     total energy              =     -31.65811578 Ry
     Harris-Foulkes estimate   =     -32.86120288 Ry
     estimated scf accuracy    <       5.03610749 Ry

     iteration #  5     ecut=    30.00 Ry     beta=0.70
     Davidson diagonalization with overlap
     ethr =  1.00E-02,  avg # of iterations =  2.0

     total cpu time spent up to now is        1.7 secs

     total energy              =     -31.60719699 Ry
     Harris-Foulkes estimate   =     -31.71564778 Ry
     estimated scf accuracy    <       2.89795766 Ry

     iteration #  6     ecut=    30.00 Ry     beta=0.70
     Davidson diagonalization with overlap
     ethr =  1.00E-02,  avg # of iterations =  1.0

     total cpu time spent up to now is        1.8 secs

     total energy              =     -31.38406772 Ry
     Harris-Foulkes estimate   =     -31.60844902 Ry
     estimated scf accuracy    <       2.72841999 Ry

     iteration #  7     ecut=    30.00 Ry     beta=0.70
     Davidson diagonalization with overlap
     ethr =  1.00E-02,  avg # of iterations =  1.0

     total cpu time spent up to now is        1.8 secs

     total energy              =     -31.62066783 Ry
     Harris-Foulkes estimate   =     -31.61380101 Ry
     estimated scf accuracy    <       4.54920912 Ry

     iteration #  8     ecut=    30.00 Ry     beta=0.70
     Davidson diagonalization with overlap
     ethr =  1.00E-02,  avg # of iterations =  1.0

     total cpu time spent up to now is        1.9 secs

     total energy              =     -31.62864155 Ry
     Harris-Foulkes estimate   =     -31.62071086 Ry
     estimated scf accuracy    <       4.41543488 Ry

     iteration #  9     ecut=    30.00 Ry     beta=0.70
     Davidson diagonalization with overlap
     ethr =  1.00E-02,  avg # of iterations =  1.0

     total cpu time spent up to now is        1.9 secs

     total energy              =     -31.69403227 Ry
     Harris-Foulkes estimate   =     -31.62856872 Ry
     estimated scf accuracy    <       4.25455690 Ry

     iteration # 10     ecut=    30.00 Ry     beta=0.70
     Davidson diagonalization with overlap
     ethr =  1.00E-02,  avg # of iterations =  1.0

     total cpu time spent up to now is        2.0 secs

     total energy              =     -31.98883055 Ry
     Harris-Foulkes estimate   =     -31.69143211 Ry
     estimated scf accuracy    <       3.90402019 Ry

     iteration # 11     ecut=    30.00 Ry     beta=0.70
     Davidson diagonalization with overlap
     ethr =  1.00E-02,  avg # of iterations =  1.0

     total cpu time spent up to now is        2.0 secs

     total energy              =     -31.84315484 Ry
     Harris-Foulkes estimate   =     -31.99118824 Ry
     estimated scf accuracy    <       4.37619958 Ry

     iteration # 12     ecut=    30.00 Ry     beta=0.70
     Davidson diagonalization with overlap
     ethr =  1.00E-02,  avg # of iterations =  1.0

     negative rho (up, down):  1.199E-02 0.000E+00

     total cpu time spent up to now is        2.1 secs

     total energy              =     -32.82587957 Ry
     Harris-Foulkes estimate   =     -31.84379424 Ry
     estimated scf accuracy    <       4.14877831 Ry

     iteration # 13     ecut=    30.00 Ry     beta=0.70
     Davidson diagonalization with overlap
     ethr =  1.00E-02,  avg # of iterations =  1.0

     negative rho (up, down):  2.454E-03 0.000E+00

     total cpu time spent up to now is        2.1 secs

     total energy              =     -32.13950494 Ry
     Harris-Foulkes estimate   =     -32.85055673 Ry
     estimated scf accuracy    <       5.71752415 Ry

     iteration # 14     ecut=    30.00 Ry     beta=0.70
     Davidson diagonalization with overlap
     ethr =  1.00E-02,  avg # of iterations =  1.0

     negative rho (up, down):  3.039E-03 0.000E+00

     total cpu time spent up to now is        2.2 secs

     total energy              =     -32.27295841 Ry
     Harris-Foulkes estimate   =     -32.15154399 Ry
     estimated scf accuracy    <       4.63023739 Ry

     iteration # 15     ecut=    30.00 Ry     beta=0.70
     Davidson diagonalization with overlap
     ethr =  1.00E-02,  avg # of iterations =  1.0

     negative rho (up, down):  2.702E-03 0.000E+00

     total cpu time spent up to now is        2.2 secs

     total energy              =     -31.45853939 Ry
     Harris-Foulkes estimate   =     -32.27458056 Ry
     estimated scf accuracy    <       4.77573672 Ry

     iteration # 16     ecut=    30.00 Ry     beta=0.70
     Davidson diagonalization with overlap
     ethr =  1.00E-02,  avg # of iterations =  1.0

     negative rho (up, down):  1.479E-03 0.000E+00

     total cpu time spent up to now is        2.3 secs

     total energy              =     -31.61650627 Ry
     Harris-Foulkes estimate   =     -31.58686604 Ry
     estimated scf accuracy    <       1.12919759 Ry

     iteration # 17     ecut=    30.00 Ry     beta=0.70
     Davidson diagonalization with overlap
     ethr =  1.00E-02,  avg # of iterations =  1.0

     negative rho (up, down):  4.577E-03 0.000E+00

     total cpu time spent up to now is        2.3 secs

     total energy              =     -32.50533931 Ry
     Harris-Foulkes estimate   =     -31.87398597 Ry
     estimated scf accuracy    <       4.03616602 Ry

     iteration # 18     ecut=    30.00 Ry     beta=0.70
     Davidson diagonalization with overlap
     ethr =  1.00E-02,  avg # of iterations =  1.0

     negative rho (up, down):  6.688E-02 0.000E+00

     total cpu time spent up to now is        2.4 secs

     total energy              =     -28.61884965 Ry
     Harris-Foulkes estimate   =     -32.51984201 Ry
     estimated scf accuracy    <       5.17141710 Ry

     iteration # 19     ecut=    30.00 Ry     beta=0.70
     Davidson diagonalization with overlap
     ethr =  1.00E-02,  avg # of iterations =  4.0

     negative rho (up, down):  6.832E-03 0.000E+00

     total cpu time spent up to now is        2.4 secs

     total energy              =     -33.19738538 Ry
     Harris-Foulkes estimate   =     -36.27666096 Ry
     estimated scf accuracy    <       9.76122589 Ry

     iteration # 20     ecut=    30.00 Ry     beta=0.70
     Davidson diagonalization with overlap
     ethr =  1.00E-02,  avg # of iterations =  3.0

     negative rho (up, down):  7.508E-03 0.000E+00

     total cpu time spent up to now is        2.5 secs

     total energy              =     -32.36145428 Ry
     Harris-Foulkes estimate   =     -33.29745257 Ry
     estimated scf accuracy    <       5.30241513 Ry

     iteration # 21     ecut=    30.00 Ry     beta=0.70
     Davidson diagonalization with overlap
     ethr =  1.00E-02,  avg # of iterations =  1.0

     negative rho (up, down):  3.264E-04 0.000E+00

     total cpu time spent up to now is        2.5 secs

     total energy              =     -31.64964675 Ry
     Harris-Foulkes estimate   =     -32.36578279 Ry
     estimated scf accuracy    <       3.86905759 Ry

     iteration # 22     ecut=    30.00 Ry     beta=0.70
     Davidson diagonalization with overlap
     ethr =  1.00E-02,  avg # of iterations =  1.0

     negative rho (up, down):  5.442E-05 0.000E+00

     total cpu time spent up to now is        2.6 secs

     total energy              =     -31.40694261 Ry
     Harris-Foulkes estimate   =     -31.66152600 Ry
     estimated scf accuracy    <       2.68615501 Ry

     iteration # 23     ecut=    30.00 Ry     beta=0.70
     Davidson diagonalization with overlap
     ethr =  1.00E-02,  avg # of iterations =  1.0

     negative rho (up, down):  1.059E-04 0.000E+00

     total cpu time spent up to now is        2.6 secs

     total energy              =     -31.52982034 Ry
     Harris-Foulkes estimate   =     -31.57924417 Ry
     estimated scf accuracy    <       0.95767459 Ry

     iteration # 24     ecut=    30.00 Ry     beta=0.70
     Davidson diagonalization with overlap
     ethr =  1.00E-02,  avg # of iterations =  1.0

     negative rho (up, down):  6.651E-05 0.000E+00

     total cpu time spent up to now is        2.7 secs

     total energy              =     -31.57915160 Ry
     Harris-Foulkes estimate   =     -31.57098476 Ry
     estimated scf accuracy    <       1.42809533 Ry

     iteration # 25     ecut=    30.00 Ry     beta=0.70
     Davidson diagonalization with overlap
     ethr =  1.00E-02,  avg # of iterations =  1.0

     negative rho (up, down):  1.832E-06 0.000E+00

     total cpu time spent up to now is        2.7 secs

     total energy              =     -31.28865448 Ry
     Harris-Foulkes estimate   =     -31.58149794 Ry
     estimated scf accuracy    <       2.08791744 Ry

     iteration # 26     ecut=    30.00 Ry     beta=0.70
     Davidson diagonalization with overlap
     ethr =  1.00E-02,  avg # of iterations =  1.0

     total cpu time spent up to now is        2.8 secs

     total energy              =     -31.54053832 Ry
     Harris-Foulkes estimate   =     -31.73508538 Ry
     estimated scf accuracy    <       3.82827283 Ry

     iteration # 27     ecut=    30.00 Ry     beta=0.70
     Davidson diagonalization with overlap
     ethr =  1.00E-02,  avg # of iterations =  1.0

     total cpu time spent up to now is        2.8 secs

     total energy              =     -31.47643360 Ry
     Harris-Foulkes estimate   =     -31.54734659 Ry
     estimated scf accuracy    <       1.57760051 Ry

     iteration # 28     ecut=    30.00 Ry     beta=0.70
     Davidson diagonalization with overlap
     ethr =  1.00E-02,  avg # of iterations =  1.0

     total cpu time spent up to now is        2.9 secs

     total energy              =     -31.52083698 Ry
     Harris-Foulkes estimate   =     -31.52359946 Ry
     estimated scf accuracy    <       0.61976303 Ry

     iteration # 29     ecut=    30.00 Ry     beta=0.70
     Davidson diagonalization with overlap
     ethr =  7.75E-03,  avg # of iterations =  1.0

     total cpu time spent up to now is        2.9 secs

     total energy              =     -31.50950100 Ry
     Harris-Foulkes estimate   =     -31.52140508 Ry
     estimated scf accuracy    <       0.64063092 Ry

     iteration # 30     ecut=    30.00 Ry     beta=0.70
     Davidson diagonalization with overlap
     ethr =  7.75E-03,  avg # of iterations =  1.0

     total cpu time spent up to now is        3.0 secs

     total energy              =     -31.50451257 Ry
     Harris-Foulkes estimate   =     -31.51120104 Ry
     estimated scf accuracy    <       0.66359530 Ry

     iteration # 31     ecut=    30.00 Ry     beta=0.70
     Davidson diagonalization with overlap
     ethr =  7.75E-03,  avg # of iterations =  1.0

     total cpu time spent up to now is        3.0 secs

     total energy              =     -31.49059283 Ry
     Harris-Foulkes estimate   =     -31.50865923 Ry
     estimated scf accuracy    <       0.51234114 Ry

     iteration # 32     ecut=    30.00 Ry     beta=0.70
     Davidson diagonalization with overlap
     ethr =  6.40E-03,  avg # of iterations =  1.0

     total cpu time spent up to now is        3.1 secs

     total energy              =     -31.51046714 Ry
     Harris-Foulkes estimate   =     -31.49703143 Ry
     estimated scf accuracy    <       0.19918043 Ry

     iteration # 33     ecut=    30.00 Ry     beta=0.70
     Davidson diagonalization with overlap
     ethr =  2.49E-03,  avg # of iterations =  1.0

     total cpu time spent up to now is        3.1 secs

     total energy              =     -31.47819642 Ry
     Harris-Foulkes estimate   =     -31.52104537 Ry
     estimated scf accuracy    <       0.98319050 Ry

     iteration # 34     ecut=    30.00 Ry     beta=0.70
     Davidson diagonalization with overlap
     ethr =  2.49E-03,  avg # of iterations =  1.0

     total cpu time spent up to now is        3.2 secs

     total energy              =     -31.49016056 Ry
     Harris-Foulkes estimate   =     -31.49812596 Ry
     estimated scf accuracy    <       0.46706177 Ry

     iteration # 35     ecut=    30.00 Ry     beta=0.70
     Davidson diagonalization with overlap
     ethr =  2.49E-03,  avg # of iterations =  1.0

     total cpu time spent up to now is        3.2 secs

     total energy              =     -31.49645073 Ry
     Harris-Foulkes estimate   =     -31.49568787 Ry
     estimated scf accuracy    <       0.10942511 Ry

     iteration # 36     ecut=    30.00 Ry     beta=0.70
     Davidson diagonalization with overlap
     ethr =  1.37E-03,  avg # of iterations =  1.0

     total cpu time spent up to now is        3.3 secs

     total energy              =     -31.49387167 Ry
     Harris-Foulkes estimate   =     -31.49654769 Ry
     estimated scf accuracy    <       0.16269294 Ry

     iteration # 37     ecut=    30.00 Ry     beta=0.70
     Davidson diagonalization with overlap
     ethr =  1.37E-03,  avg # of iterations =  1.0

     total cpu time spent up to now is        3.3 secs

     total energy              =     -31.49211772 Ry
     Harris-Foulkes estimate   =     -31.49513771 Ry
     estimated scf accuracy    <       0.08208820 Ry

     iteration # 38     ecut=    30.00 Ry     beta=0.70
     Davidson diagonalization with overlap
     ethr =  1.03E-03,  avg # of iterations =  1.0

     total cpu time spent up to now is        3.4 secs

     total energy              =     -31.49355320 Ry
     Harris-Foulkes estimate   =     -31.49374612 Ry
     estimated scf accuracy    <       0.01099804 Ry

     iteration # 39     ecut=    30.00 Ry     beta=0.70
     Davidson diagonalization with overlap
     ethr =  1.37E-04,  avg # of iterations =  1.0

     total cpu time spent up to now is        3.4 secs

     total energy              =     -31.49347701 Ry
     Harris-Foulkes estimate   =     -31.49377557 Ry
     estimated scf accuracy    <       0.00744147 Ry

     iteration # 40     ecut=    30.00 Ry     beta=0.70
     Davidson diagonalization with overlap
     ethr =  9.30E-05,  avg # of iterations = 12.0

     total cpu time spent up to now is        3.5 secs

     total energy              =     -31.49362422 Ry
     Harris-Foulkes estimate   =     -31.49363713 Ry
     estimated scf accuracy    <       0.00063678 Ry

     iteration # 41     ecut=    30.00 Ry     beta=0.70
     Davidson diagonalization with overlap
     ethr =  7.96E-06,  avg # of iterations = 10.0

     total cpu time spent up to now is        3.6 secs

     total energy              =     -31.49363044 Ry
     Harris-Foulkes estimate   =     -31.49363068 Ry
     estimated scf accuracy    <       0.00000364 Ry

     iteration # 42     ecut=    30.00 Ry     beta=0.70
     Davidson diagonalization with overlap
     ethr =  4.55E-08,  avg # of iterations =  2.0

     total cpu time spent up to now is        3.6 secs

     total energy              =     -31.49363042 Ry
     Harris-Foulkes estimate   =     -31.49363068 Ry
     estimated scf accuracy    <       0.00000261 Ry

     iteration # 43     ecut=    30.00 Ry     beta=0.70
     Davidson diagonalization with overlap
     ethr =  3.26E-08,  avg # of iterations =  1.0

     total cpu time spent up to now is        3.7 secs

     total energy              =     -31.49363028 Ry
     Harris-Foulkes estimate   =     -31.49363046 Ry
     estimated scf accuracy    <       0.00000014 Ry

     iteration # 44     ecut=    30.00 Ry     beta=0.70
     Davidson diagonalization with overlap
     ethr =  1.70E-09,  avg # of iterations =  1.0

     total cpu time spent up to now is        3.7 secs

     End of self-consistent calculation

          k = 0.0000 0.0000 0.0000 ( 22119 PWs)   bands (ev):

   -23.6231  -7.0893  -7.0485  -7.0356  -6.9209  -6.8722  -0.1835   0.5014

     the Fermi energy is    -6.9011 ev

!    total energy              =     -31.49363023 Ry
     Harris-Foulkes estimate   =     -31.49363029 Ry
     estimated scf accuracy    <          3.8E-09 Ry

     convergence has been achieved in  44 iterations

     Forces acting on atoms (Ry/au):

     atom    1 type  2   force =    -0.00305198   -0.00175959   -0.00065045
     atom    2 type  1   force =     0.00098172   -0.00038528    0.00036827
     atom    3 type  1   force =     0.00207026    0.00214487    0.00028217

     Total force =     0.004801     Total SCF correction =     0.000033

     Entering Dynamics:    iteration =     2
                           time      =   0.0097 pico-seconds


     Andersen thermostat:    3 collisions

ATOMIC_POSITIONS (bohr)
O        5.283646117   5.789862110   4.971935768
H       -1.033079624  10.702484199   7.322615521
H       18.977927615   1.753560556   6.502152660


     kinetic energy (Ekin) =     0.02488742 Ry
     temperature           =  1309.80279695 K 
     Ekin + Etot (const)   =   -31.46874281 Ry
     Message from routine dynamics:
     Total linear momentum <> 0

     Linear momentum :   -0.0855528348    0.1632300873   -0.0471960274

     Writing output data file pwscf.save

     first order wave-functions extrapolation
     Check: negative starting charge=   -0.340510
     first order charge density extrapolation
     Check: negative starting charge=   -0.340587

     negative rho (up, down):  4.419E-01 0.000E+00

     total cpu time spent up to now is        4.2 secs

     per-process dynamical memory:    20.4 Mb

     Self-consistent Calculation

     iteration #  1     ecut=    30.00 Ry     beta=0.70
     Davidson diagonalization with overlap
     ethr =  1.00E-06,  avg # of iterations = 14.0

     negative rho (up, down):  1.303E-02 0.000E+00

     total cpu time spent up to now is        4.4 secs

     total energy              =       2.01597343 Ry
     Harris-Foulkes estimate   =     -60.01918781 Ry
     estimated scf accuracy    <      18.06843869 Ry

     iteration #  2     ecut=    30.00 Ry     beta=0.70
     Davidson diagonalization with overlap
     ethr =  1.00E-02,  avg # of iterations =  3.0

     negative rho (up, down):  8.552E-03 0.000E+00

     total cpu time spent up to now is        4.4 secs

     total energy              =     -35.03226907 Ry
     Harris-Foulkes estimate   =     -47.28715118 Ry
     estimated scf accuracy    <      25.41942344 Ry

     iteration #  3     ecut=    30.00 Ry     beta=0.70
     Davidson diagonalization with overlap
     ethr =  1.00E-02,  avg # of iterations =  3.0

     negative rho (up, down):  5.766E-03 0.000E+00

     total cpu time spent up to now is        4.5 secs

     total energy              =     -32.07790049 Ry
     Harris-Foulkes estimate   =     -35.66577559 Ry
     estimated scf accuracy    <       8.70839253 Ry

     iteration #  4     ecut=    30.00 Ry     beta=0.70
     Davidson diagonalization with overlap
     ethr =  1.00E-02,  avg # of iterations =  5.0

     negative rho (up, down):  3.363E-03 0.000E+00

     total cpu time spent up to now is        4.5 secs

     total energy              =     -30.93923398 Ry
     Harris-Foulkes estimate   =     -32.22213870 Ry
     estimated scf accuracy    <       3.53922600 Ry

     iteration #  5     ecut=    30.00 Ry     beta=0.70
     Davidson diagonalization with overlap
     ethr =  1.00E-02,  avg # of iterations =  2.0

     negative rho (up, down):  3.426E-03 0.000E+00

     total cpu time spent up to now is        4.6 secs

     total energy              =     -31.10661524 Ry
     Harris-Foulkes estimate   =     -32.35754952 Ry
     estimated scf accuracy    <       5.07803036 Ry

     iteration #  6     ecut=    30.00 Ry     beta=0.70
     Davidson diagonalization with overlap
     ethr =  1.00E-02,  avg # of iterations =  2.0

     negative rho (up, down):  1.921E-04 0.000E+00

     total cpu time spent up to now is        4.6 secs

     total energy              =     -30.25483077 Ry
     Harris-Foulkes estimate   =     -31.91512860 Ry
     estimated scf accuracy    <       3.17507622 Ry

     iteration #  7     ecut=    30.00 Ry     beta=0.70
     Davidson diagonalization with overlap
     ethr =  1.00E-02,  avg # of iterations =  2.0

     negative rho (up, down):  4.145E-05 0.000E+00

     total cpu time spent up to now is        4.7 secs

     total energy              =     -33.22873141 Ry
     Harris-Foulkes estimate   =     -33.50565681 Ry
     estimated scf accuracy    <       7.76233695 Ry

     iteration #  8     ecut=    30.00 Ry     beta=0.70
     Davidson diagonalization with overlap
     ethr =  1.00E-02,  avg # of iterations =  3.0

     negative rho (up, down):  9.122E-05 0.000E+00

     total cpu time spent up to now is        4.7 secs

     total energy              =     -33.22092122 Ry
     Harris-Foulkes estimate   =     -33.24272980 Ry
     estimated scf accuracy    <       6.70119842 Ry

     iteration #  9     ecut=    30.00 Ry     beta=0.70
     Davidson diagonalization with overlap
     ethr =  1.00E-02,  avg # of iterations =  1.0

     negative rho (up, down):  2.749E-05 0.000E+00

     total cpu time spent up to now is        4.8 secs

     total energy              =     -33.26276603 Ry
     Harris-Foulkes estimate   =     -33.22247656 Ry
     estimated scf accuracy    <       6.61923464 Ry

     iteration # 10     ecut=    30.00 Ry     beta=0.70
     Davidson diagonalization with overlap
     ethr =  1.00E-02,  avg # of iterations =  1.0

     negative rho (up, down):  5.304E-06 0.000E+00

     total cpu time spent up to now is        4.8 secs

     total energy              =     -33.49338274 Ry
     Harris-Foulkes estimate   =     -33.26384084 Ry
     estimated scf accuracy    <       6.93255296 Ry

     iteration # 11     ecut=    30.00 Ry     beta=0.70
     Davidson diagonalization with overlap
     ethr =  1.00E-02,  avg # of iterations =  1.0

     negative rho (up, down):  1.272E-02 0.000E+00

     total cpu time spent up to now is        4.9 secs

     total energy              =     -33.36462103 Ry
     Harris-Foulkes estimate   =     -33.52514686 Ry
     estimated scf accuracy    <      12.18141370 Ry

     iteration # 12     ecut=    30.00 Ry     beta=0.70
     Davidson diagonalization with overlap
     ethr =  1.00E-02,  avg # of iterations =  1.0

     negative rho (up, down):  2.132E-01 0.000E+00

     total cpu time spent up to now is        4.9 secs

     total energy              =     -31.23078719 Ry
     Harris-Foulkes estimate   =     -33.37288981 Ry
     estimated scf accuracy    <       9.44940213 Ry

     iteration # 13     ecut=    30.00 Ry     beta=0.70
     Davidson diagonalization with overlap
     ethr =  1.00E-02,  avg # of iterations =  2.0

     negative rho (up, down):  2.148E-01 0.000E+00

     total cpu time spent up to now is        5.0 secs

     total energy              =     -31.46003733 Ry
     Harris-Foulkes estimate   =     -31.62432767 Ry
     estimated scf accuracy    <       3.87953319 Ry

     iteration # 14     ecut=    30.00 Ry     beta=0.70
     Davidson diagonalization with overlap
     ethr =  1.00E-02,  avg # of iterations =  1.0

     negative rho (up, down):  3.999E-01 0.000E+00

     total cpu time spent up to now is        5.0 secs

     total energy              =     -31.48666752 Ry
     Harris-Foulkes estimate   =     -31.50770043 Ry
     estimated scf accuracy    <       0.68808024 Ry

     iteration # 15     ecut=    30.00 Ry     beta=0.70
     Davidson diagonalization with overlap
     ethr =  8.60E-03,  avg # of iterations =  1.0

     negative rho (up, down):  1.154E-01 0.000E+00

     total cpu time spent up to now is        5.1 secs

     total energy              =     -31.00907645 Ry
     Harris-Foulkes estimate   =     -31.58477704 Ry
     estimated scf accuracy    <       2.60588890 Ry

     iteration # 16     ecut=    30.00 Ry     beta=0.70
     Davidson diagonalization with overlap
     ethr =  8.60E-03,  avg # of iterations =  1.0

     negative rho (up, down):  1.141E-01 0.000E+00

     total cpu time spent up to now is        5.1 secs

     total energy              =     -31.81960407 Ry
     Harris-Foulkes estimate   =     -32.07092945 Ry
     estimated scf accuracy    <       4.32806552 Ry

     iteration # 17     ecut=    30.00 Ry     beta=0.70
     Davidson diagonalization with overlap
     ethr =  8.60E-03,  avg # of iterations =  1.0

     negative rho (up, down):  1.347E-01 0.000E+00

     total cpu time spent up to now is        5.2 secs

     total energy              =     -31.85297672 Ry
     Harris-Foulkes estimate   =     -31.82508777 Ry
     estimated scf accuracy    <       3.97107782 Ry

     iteration # 18     ecut=    30.00 Ry     beta=0.70
     Davidson diagonalization with overlap
     ethr =  8.60E-03,  avg # of iterations =  1.0

     negative rho (up, down):  1.307E-01 0.000E+00

     total cpu time spent up to now is        5.2 secs

     total energy              =     -31.97028604 Ry
     Harris-Foulkes estimate   =     -31.85427508 Ry
     estimated scf accuracy    <       3.98689692 Ry

     iteration # 19     ecut=    30.00 Ry     beta=0.70
     Davidson diagonalization with overlap
     ethr =  8.60E-03,  avg # of iterations =  1.0

     negative rho (up, down):  1.746E-01 0.000E+00

     total cpu time spent up to now is        5.3 secs

     total energy              =     -31.97348185 Ry
     Harris-Foulkes estimate   =     -31.97147854 Ry
     estimated scf accuracy    <       4.17710615 Ry

     iteration # 20     ecut=    30.00 Ry     beta=0.70
     Davidson diagonalization with overlap
     ethr =  8.60E-03,  avg # of iterations =  1.0

     negative rho (up, down):  1.251E-01 0.000E+00

     total cpu time spent up to now is        5.3 secs

     total energy              =     -31.74626156 Ry
     Harris-Foulkes estimate   =     -31.97385197 Ry
     estimated scf accuracy    <       4.17408101 Ry

     iteration # 21     ecut=    30.00 Ry     beta=0.70
     Davidson diagonalization with overlap
     ethr =  8.60E-03,  avg # of iterations =  1.0

     negative rho (up, down):  1.507E-02 0.000E+00

     total cpu time spent up to now is        5.4 secs

     total energy              =     -31.34968282 Ry
     Harris-Foulkes estimate   =     -31.74764786 Ry
     estimated scf accuracy    <       3.82159100 Ry

     iteration # 22     ecut=    30.00 Ry     beta=0.70
     Davidson diagonalization with overlap
     ethr =  8.60E-03,  avg # of iterations =  1.0

     negative rho (up, down):  3.934E-03 0.000E+00

     total cpu time spent up to now is        5.4 secs

     total energy              =     -31.49587301 Ry
     Harris-Foulkes estimate   =     -31.55791603 Ry
     estimated scf accuracy    <       2.33291313 Ry

     iteration # 23     ecut=    30.00 Ry     beta=0.70
     Davidson diagonalization with overlap
     ethr =  8.60E-03,  avg # of iterations =  1.0

     negative rho (up, down):  4.361E-03 0.000E+00

     total cpu time spent up to now is        5.5 secs

     total energy              =     -31.52016429 Ry
     Harris-Foulkes estimate   =     -31.50940598 Ry
     estimated scf accuracy    <       0.64774726 Ry

     iteration # 24     ecut=    30.00 Ry     beta=0.70
     Davidson diagonalization with overlap
     ethr =  8.10E-03,  avg # of iterations =  1.0

     negative rho (up, down):  3.437E-03 0.000E+00

     total cpu time spent up to now is        5.5 secs

     total energy              =     -31.49165688 Ry
     Harris-Foulkes estimate   =     -31.52449591 Ry
     estimated scf accuracy    <       1.39511469 Ry

     iteration # 25     ecut=    30.00 Ry     beta=0.70
     Davidson diagonalization with overlap
     ethr =  8.10E-03,  avg # of iterations =  1.0

     negative rho (up, down):  7.040E-03 0.000E+00

     total cpu time spent up to now is        5.6 secs

     total energy              =     -31.49121005 Ry
     Harris-Foulkes estimate   =     -31.50236476 Ry
     estimated scf accuracy    <       0.37146108 Ry

     iteration # 26     ecut=    30.00 Ry     beta=0.70
     Davidson diagonalization with overlap
     ethr =  4.64E-03,  avg # of iterations =  1.0

     negative rho (up, down):  1.193E-03 0.000E+00

     total cpu time spent up to now is        5.6 secs

     total energy              =     -31.49078989 Ry
     Harris-Foulkes estimate   =     -31.49592155 Ry
     estimated scf accuracy    <       0.17053175 Ry

     iteration # 27     ecut=    30.00 Ry     beta=0.70
     Davidson diagonalization with overlap
     ethr =  2.13E-03,  avg # of iterations =  1.0

     negative rho (up, down):  1.313E-03 0.000E+00

     total cpu time spent up to now is        5.7 secs

     total energy              =     -31.49801184 Ry
     Harris-Foulkes estimate   =     -31.49834617 Ry
     estimated scf accuracy    <       0.36698902 Ry

     iteration # 28     ecut=    30.00 Ry     beta=0.70
     Davidson diagonalization with overlap
     ethr =  2.13E-03,  avg # of iterations =  1.0

     negative rho (up, down):  1.108E-03 0.000E+00

     total cpu time spent up to now is        5.7 secs

     total energy              =     -31.49372533 Ry
     Harris-Foulkes estimate   =     -31.49841986 Ry
     estimated scf accuracy    <       0.43803311 Ry

     iteration # 29     ecut=    30.00 Ry     beta=0.70
     Davidson diagonalization with overlap
     ethr =  2.13E-03,  avg # of iterations =  1.0

     negative rho (up, down):  2.295E-04 0.000E+00

     total cpu time spent up to now is        5.8 secs

     total energy              =     -31.48918812 Ry
     Harris-Foulkes estimate   =     -31.49477735 Ry
     estimated scf accuracy    <       0.14229695 Ry

     iteration # 30     ecut=    30.00 Ry     beta=0.70
     Davidson diagonalization with overlap
     ethr =  1.78E-03,  avg # of iterations =  1.0

     negative rho (up, down):  8.410E-05 0.000E+00

     total cpu time spent up to now is        5.8 secs

     total energy              =     -31.49234468 Ry
     Harris-Foulkes estimate   =     -31.49513869 Ry
     estimated scf accuracy    <       0.16499692 Ry

     iteration # 31     ecut=    30.00 Ry     beta=0.70
     Davidson diagonalization with overlap
     ethr =  1.78E-03,  avg # of iterations =  1.0

     negative rho (up, down):  8.067E-06 0.000E+00

     total cpu time spent up to now is        5.9 secs

     total energy              =     -31.49338005 Ry
     Harris-Foulkes estimate   =     -31.49342540 Ry
     estimated scf accuracy    <       0.00791143 Ry

     iteration # 32     ecut=    30.00 Ry     beta=0.70
     Davidson diagonalization with overlap
     ethr =  9.89E-05,  avg # of iterations =  1.0

     total cpu time spent up to now is        5.9 secs

     total energy              =     -31.49329250 Ry
     Harris-Foulkes estimate   =     -31.49338702 Ry
     estimated scf accuracy    <       0.00451913 Ry

     iteration # 33     ecut=    30.00 Ry     beta=0.70
     Davidson diagonalization with overlap
     ethr =  5.65E-05,  avg # of iterations =  1.0

     total cpu time spent up to now is        6.0 secs

     total energy              =     -31.49332920 Ry
     Harris-Foulkes estimate   =     -31.49333344 Ry
     estimated scf accuracy    <       0.00012146 Ry

     iteration # 34     ecut=    30.00 Ry     beta=0.70
     Davidson diagonalization with overlap
     ethr =  1.52E-06,  avg # of iterations = 12.0

     total cpu time spent up to now is        6.1 secs

     total energy              =     -31.49333183 Ry
     Harris-Foulkes estimate   =     -31.49333193 Ry
     estimated scf accuracy    <       0.00001270 Ry

     iteration # 35     ecut=    30.00 Ry     beta=0.70
     Davidson diagonalization with overlap
     ethr =  1.59E-07,  avg # of iterations =  1.0

     total cpu time spent up to now is        6.1 secs

     total energy              =     -31.49333181 Ry
     Harris-Foulkes estimate   =     -31.49333187 Ry
     estimated scf accuracy    <       0.00000455 Ry

     iteration # 36     ecut=    30.00 Ry     beta=0.70
     Davidson diagonalization with overlap
     ethr =  5.68E-08,  avg # of iterations =  1.0

     total cpu time spent up to now is        6.2 secs

     total energy              =     -31.49333192 Ry
     Harris-Foulkes estimate   =     -31.49333192 Ry
     estimated scf accuracy    <       0.00000044 Ry

     iteration # 37     ecut=    30.00 Ry     beta=0.70
     Davidson diagonalization with overlap
     ethr =  5.48E-09,  avg # of iterations =  1.0

     total cpu time spent up to now is        6.2 secs

     total energy              =     -31.49333198 Ry
     Harris-Foulkes estimate   =     -31.49333193 Ry
     estimated scf accuracy    <       0.00000002 Ry

     iteration # 38     ecut=    30.00 Ry     beta=0.70
     Davidson diagonalization with overlap
     ethr =  2.76E-10,  avg # of iterations =  1.0

     total cpu time spent up to now is        6.3 secs

     End of self-consistent calculation

          k = 0.0000 0.0000 0.0000 ( 22119 PWs)   bands (ev):

   -23.6231  -7.0854  -7.0477  -7.0347  -6.9215  -6.8747  -0.1843   0.4880

     the Fermi energy is    -6.9006 ev

!    total energy              =     -31.49333198 Ry
     Harris-Foulkes estimate   =     -31.49333198 Ry
     estimated scf accuracy    <          1.8E-09 Ry

     convergence has been achieved in  38 iterations

     Forces acting on atoms (Ry/au):

     atom    1 type  2   force =    -0.00247149   -0.00244472   -0.00024578
     atom    2 type  1   force =     0.00067039    0.00004535    0.00020228
     atom    3 type  1   force =     0.00180109    0.00239937    0.00004351

     Total force =     0.004652     Total SCF correction =     0.000005

     Entering Dynamics:    iteration =     3
                           time      =   0.0145 pico-seconds


     Andersen thermostat:    3 collisions

ATOMIC_POSITIONS (bohr)
O        5.256777882   5.763809476   4.958860581
H       -1.213747690  10.788994971   7.521223083
H       19.584231098   2.079764788   6.510676768


     kinetic energy (Ekin) =     0.02697610 Ry
     temperature           =  1419.72802527 K 
     Ekin + Etot (const)   =   -31.46635588 Ry
     Message from routine dynamics:
     Total linear momentum <> 0

     Linear momentum :    0.1869745756   -0.1701035107   -0.2066889502

     Writing output data file pwscf.save

     second order wave-functions extrapolation
     Check: negative starting charge=   -0.340587
     second order charge density extrapolation
     Check: negative starting charge=   -0.340265

     negative rho (up, down):  7.512E-02 0.000E+00

     total cpu time spent up to now is        6.8 secs

     per-process dynamical memory:    20.4 Mb

     Self-consistent Calculation

     iteration #  1     ecut=    30.00 Ry     beta=0.70
     Davidson diagonalization with overlap
     c_bands:  1 eigenvalues not converged
     ethr =  1.00E-06,  avg # of iterations = 20.0

     negative rho (up, down):  1.722E-02 0.000E+00

     total cpu time spent up to now is        6.9 secs

     total energy              =     -30.79803698 Ry
     Harris-Foulkes estimate   =     -31.48452059 Ry
     estimated scf accuracy    <       0.83944139 Ry

     iteration #  2     ecut=    30.00 Ry     beta=0.70
     Davidson diagonalization with overlap
     ethr =  1.00E-02,  avg # of iterations =  3.0

     negative rho (up, down):  1.389E-02 0.000E+00

     total cpu time spent up to now is        6.9 secs

     total energy              =     -31.63579567 Ry
     Harris-Foulkes estimate   =     -33.38847592 Ry
     estimated scf accuracy    <       5.79970784 Ry

     iteration #  3     ecut=    30.00 Ry     beta=0.70
     Davidson diagonalization with overlap
     ethr =  1.00E-02,  avg # of iterations =  2.0

     negative rho (up, down):  1.185E-02 0.000E+00

     total cpu time spent up to now is        7.0 secs

     total energy              =     -31.66843273 Ry
     Harris-Foulkes estimate   =     -32.02240408 Ry
     estimated scf accuracy    <       1.73189061 Ry

     iteration #  4     ecut=    30.00 Ry     beta=0.70
     Davidson diagonalization with overlap
     ethr =  1.00E-02,  avg # of iterations =  1.0

     negative rho (up, down):  1.072E-02 0.000E+00

     total cpu time spent up to now is        7.0 secs

     total energy              =     -31.58968560 Ry
     Harris-Foulkes estimate   =     -31.80037288 Ry
     estimated scf accuracy    <       2.96706456 Ry

     iteration #  5     ecut=    30.00 Ry     beta=0.70
     Davidson diagonalization with overlap
     ethr =  1.00E-02,  avg # of iterations =  1.0

     negative rho (up, down):  9.786E-03 0.000E+00

     total cpu time spent up to now is        7.1 secs

     total energy              =     -31.55191858 Ry
     Harris-Foulkes estimate   =     -31.62293020 Ry
     estimated scf accuracy    <       0.78665923 Ry

     iteration #  6     ecut=    30.00 Ry     beta=0.70
     Davidson diagonalization with overlap
     ethr =  9.83E-03,  avg # of iterations =  1.0

     negative rho (up, down):  7.590E-03 0.000E+00

     total cpu time spent up to now is        7.1 secs

     total energy              =     -31.41779892 Ry
     Harris-Foulkes estimate   =     -31.55714054 Ry
     estimated scf accuracy    <       0.85720060 Ry

     iteration #  7     ecut=    30.00 Ry     beta=0.70
     Davidson diagonalization with overlap
     ethr =  9.83E-03,  avg # of iterations =  1.0

     negative rho (up, down):  3.024E-03 0.000E+00

     total cpu time spent up to now is        7.2 secs

     total energy              =     -31.45276329 Ry
     Harris-Foulkes estimate   =     -31.55042806 Ry
     estimated scf accuracy    <       1.09308790 Ry

     iteration #  8     ecut=    30.00 Ry     beta=0.70
     Davidson diagonalization with overlap
     ethr =  9.83E-03,  avg # of iterations =  1.0

     negative rho (up, down):  1.616E-03 0.000E+00

     total cpu time spent up to now is        7.2 secs

     total energy              =     -31.50728318 Ry
     Harris-Foulkes estimate   =     -31.50649679 Ry
     estimated scf accuracy    <       0.40337775 Ry

     iteration #  9     ecut=    30.00 Ry     beta=0.70
     Davidson diagonalization with overlap
     ethr =  5.04E-03,  avg # of iterations =  1.0

     negative rho (up, down):  4.378E-04 0.000E+00

     total cpu time spent up to now is        7.3 secs

     total energy              =     -31.44699274 Ry
     Harris-Foulkes estimate   =     -31.50842006 Ry
     estimated scf accuracy    <       0.57946420 Ry

     iteration # 10     ecut=    30.00 Ry     beta=0.70
     Davidson diagonalization with overlap
     ethr =  5.04E-03,  avg # of iterations =  1.0

     negative rho (up, down):  2.702E-07 0.000E+00

     total cpu time spent up to now is        7.3 secs

     total energy              =     -31.51209550 Ry
     Harris-Foulkes estimate   =     -31.54655331 Ry
     estimated scf accuracy    <       1.48239915 Ry

     iteration # 11     ecut=    30.00 Ry     beta=0.70
     Davidson diagonalization with overlap
     ethr =  5.04E-03,  avg # of iterations =  1.0

     total cpu time spent up to now is        7.4 secs

     total energy              =     -31.48925405 Ry
     Harris-Foulkes estimate   =     -31.51299175 Ry
     estimated scf accuracy    <       0.92538071 Ry

     iteration # 12     ecut=    30.00 Ry     beta=0.70
     Davidson diagonalization with overlap
     ethr =  5.04E-03,  avg # of iterations =  1.0

     negative rho (up, down):  6.969E-07 0.000E+00

     total cpu time spent up to now is        7.4 secs

     total energy              =     -31.49628278 Ry
     Harris-Foulkes estimate   =     -31.49743504 Ry
     estimated scf accuracy    <       0.04225190 Ry

     iteration # 13     ecut=    30.00 Ry     beta=0.70
     Davidson diagonalization with overlap
     ethr =  5.28E-04,  avg # of iterations =  1.0

     negative rho (up, down):  1.145E-08 0.000E+00

     total cpu time spent up to now is        7.5 secs

     total energy              =     -31.49731710 Ry
     Harris-Foulkes estimate   =     -31.49678638 Ry
     estimated scf accuracy    <       0.00426659 Ry

     iteration # 14     ecut=    30.00 Ry     beta=0.70
     Davidson diagonalization with overlap
     ethr =  5.33E-05,  avg # of iterations =  6.0

     total cpu time spent up to now is        7.6 secs

     total energy              =     -31.49992844 Ry
     Harris-Foulkes estimate   =     -31.50179337 Ry
     estimated scf accuracy    <       0.32806329 Ry

     iteration # 15     ecut=    30.00 Ry     beta=0.70
     Davidson diagonalization with overlap
     ethr =  5.33E-05,  avg # of iterations =  1.0

     negative rho (up, down):  1.199E-07 0.000E+00

     total cpu time spent up to now is        7.7 secs

     total energy              =     -31.49885644 Ry
     Harris-Foulkes estimate   =     -31.50008909 Ry
     estimated scf accuracy    <       0.22216956 Ry

     iteration # 16     ecut=    30.00 Ry     beta=0.70
     Davidson diagonalization with overlap
     ethr =  5.33E-05,  avg # of iterations =  1.0

     negative rho (up, down):  1.667E-08 0.000E+00

     total cpu time spent up to now is        7.7 secs

     total energy              =     -31.49736790 Ry
     Harris-Foulkes estimate   =     -31.49896442 Ry
     estimated scf accuracy    <       0.15008404 Ry

     iteration # 17     ecut=    30.00 Ry     beta=0.70
     Davidson diagonalization with overlap
     ethr =  5.33E-05,  avg # of iterations =  1.0

     negative rho (up, down):  1.720E-06 0.000E+00

     total cpu time spent up to now is        7.8 secs

     total energy              =     -31.49678121 Ry
     Harris-Foulkes estimate   =     -31.49764646 Ry
     estimated scf accuracy    <       0.06228793 Ry

     iteration # 18     ecut=    30.00 Ry     beta=0.70
     Davidson diagonalization with overlap
     ethr =  5.33E-05,  avg # of iterations =  1.0

     negative rho (up, down):  3.873E-08 0.000E+00

     total cpu time spent up to now is        7.8 secs

     total energy              =     -31.49625662 Ry
     Harris-Foulkes estimate   =     -31.49697731 Ry
     estimated scf accuracy    <       0.01787656 Ry

     iteration # 19     ecut=    30.00 Ry     beta=0.70
     Davidson diagonalization with overlap
     ethr =  5.33E-05,  avg # of iterations =  1.0

     total cpu time spent up to now is        7.9 secs

     total energy              =     -31.49665502 Ry
     Harris-Foulkes estimate   =     -31.49673880 Ry
     estimated scf accuracy    <       0.00186193 Ry

     iteration # 20     ecut=    30.00 Ry     beta=0.70
     Davidson diagonalization with overlap
     ethr =  2.33E-05,  avg # of iterations =  1.0

     total cpu time spent up to now is        7.9 secs

     total energy              =     -31.49670606 Ry
     Harris-Foulkes estimate   =     -31.49671493 Ry
     estimated scf accuracy    <       0.00036068 Ry

     iteration # 21     ecut=    30.00 Ry     beta=0.70
     Davidson diagonalization with overlap
     ethr =  4.51E-06,  avg # of iterations =  7.0

     total cpu time spent up to now is        8.0 secs

     total energy              =     -31.49670919 Ry
     Harris-Foulkes estimate   =     -31.49670962 Ry
     estimated scf accuracy    <       0.00001635 Ry

     iteration # 22     ecut=    30.00 Ry     beta=0.70
     Davidson diagonalization with overlap
     ethr =  2.04E-07,  avg # of iterations =  1.0

     total cpu time spent up to now is        8.0 secs

     total energy              =     -31.49670929 Ry
     Harris-Foulkes estimate   =     -31.49670933 Ry
     estimated scf accuracy    <       0.00000174 Ry

     iteration # 23     ecut=    30.00 Ry     beta=0.70
     Davidson diagonalization with overlap
     ethr =  2.18E-08,  avg # of iterations =  1.0

     total cpu time spent up to now is        8.1 secs

     total energy              =     -31.49670900 Ry
     Harris-Foulkes estimate   =     -31.49670930 Ry
     estimated scf accuracy    <       0.00000205 Ry

     iteration # 24     ecut=    30.00 Ry     beta=0.70
     Davidson diagonalization with overlap
     ethr =  2.18E-08,  avg # of iterations =  1.0

     total cpu time spent up to now is        8.2 secs

     total energy              =     -31.49670863 Ry
     Harris-Foulkes estimate   =     -31.49670903 Ry
     estimated scf accuracy    <       0.00000011 Ry

     iteration # 25     ecut=    30.00 Ry     beta=0.70
     Davidson diagonalization with overlap
     ethr =  1.33E-09,  avg # of iterations =  1.0

     total cpu time spent up to now is        8.2 secs

     total energy              =     -31.49670867 Ry
     Harris-Foulkes estimate   =     -31.49670864 Ry
     estimated scf accuracy    <       0.00000001 Ry

     iteration # 26     ecut=    30.00 Ry     beta=0.70
     Davidson diagonalization with overlap
     ethr =  1.81E-10,  avg # of iterations =  1.0

     total cpu time spent up to now is        8.3 secs

     End of self-consistent calculation

          k = 0.0000 0.0000 0.0000 ( 22119 PWs)   bands (ev):

   -23.6318  -7.1363  -7.0531  -7.0419  -6.9275  -6.8390  -0.1764   0.5088

     the Fermi energy is    -6.9077 ev

!    total energy              =     -31.49670867 Ry
     Harris-Foulkes estimate   =     -31.49670867 Ry
     estimated scf accuracy    <          1.9E-09 Ry

     convergence has been achieved in  26 iterations

     Forces acting on atoms (Ry/au):

     atom    1 type  2   force =    -0.00872141   -0.00612184    0.00134842
     atom    2 type  1   force =     0.00067448    0.00015083    0.00022864
     atom    3 type  1   force =     0.00804693    0.00597102   -0.00157707

     Total force =     0.014791     Total SCF correction =     0.000063

     Entering Dynamics:    iteration =     4
                           time      =   0.0194 pico-seconds


     Andersen thermostat:    3 collisions

ATOMIC_POSITIONS (bohr)
O        5.258456274   5.742078001   4.950206355
H       -1.308468197  10.846914573   7.463348799
H       19.652363212   2.366106168   6.705647711


     kinetic energy (Ekin) =     0.00686062 Ry
     temperature           =   361.06824984 K 
     Ekin + Etot (const)   =   -31.48984805 Ry
     Message from routine dynamics:
     Total linear momentum <> 0

     Linear momentum :    0.0317274191   -0.1249852463   -0.2296928938

     Writing output data file pwscf.save

     second order wave-functions extrapolation
     Check: negative starting charge=   -0.340265
     second order charge density extrapolation
     Check: negative starting charge=   -0.340844

     negative rho (up, down):  3.772E-02 0.000E+00

     total cpu time spent up to now is        8.7 secs

     per-process dynamical memory:    20.4 Mb

     Self-consistent Calculation

     iteration #  1     ecut=    30.00 Ry     beta=0.70
     Davidson diagonalization with overlap
     c_bands:  1 eigenvalues not converged
     ethr =  1.00E-06,  avg # of iterations = 20.0

     negative rho (up, down):  8.630E-03 0.000E+00

     total cpu time spent up to now is        8.9 secs

     total energy              =     -31.47771247 Ry
     Harris-Foulkes estimate   =     -31.46108508 Ry
     estimated scf accuracy    <       0.01671665 Ry

     iteration #  2     ecut=    30.00 Ry     beta=0.70
     Davidson diagonalization with overlap
     ethr =  2.09E-04,  avg # of iterations =  2.0

     negative rho (up, down):  8.270E-03 0.000E+00

     total cpu time spent up to now is        8.9 secs

     total energy              =     -31.44728902 Ry
     Harris-Foulkes estimate   =     -31.68062462 Ry
     estimated scf accuracy    <       4.06179967 Ry

     iteration #  3     ecut=    30.00 Ry     beta=0.70
     Davidson diagonalization with overlap
     ethr =  2.09E-04,  avg # of iterations =  2.0

     negative rho (up, down):  7.826E-03 0.000E+00

     total cpu time spent up to now is        9.0 secs

     total energy              =     -31.47526872 Ry
     Harris-Foulkes estimate   =     -31.55554643 Ry
     estimated scf accuracy    <       1.09044707 Ry

     iteration #  4     ecut=    30.00 Ry     beta=0.70
     Davidson diagonalization with overlap
     ethr =  2.09E-04,  avg # of iterations =  1.0

     negative rho (up, down):  2.478E-03 0.000E+00

     total cpu time spent up to now is        9.0 secs

     total energy              =     -31.49157187 Ry
     Harris-Foulkes estimate   =     -31.49253782 Ry
     estimated scf accuracy    <       0.07523355 Ry

     iteration #  5     ecut=    30.00 Ry     beta=0.70
     Davidson diagonalization with overlap
     ethr =  2.09E-04,  avg # of iterations =  3.0

     negative rho (up, down):  6.787E-04 0.000E+00

     total cpu time spent up to now is        9.1 secs

     total energy              =     -31.49812829 Ry
     Harris-Foulkes estimate   =     -31.50087145 Ry
     estimated scf accuracy    <       0.15593556 Ry

     iteration #  6     ecut=    30.00 Ry     beta=0.70
     Davidson diagonalization with overlap
     ethr =  2.09E-04,  avg # of iterations =  3.0

     negative rho (up, down):  1.323E-04 0.000E+00

     total cpu time spent up to now is        9.1 secs

     total energy              =     -31.49739453 Ry
     Harris-Foulkes estimate   =     -31.49925177 Ry
     estimated scf accuracy    <       0.04183897 Ry

     iteration #  7     ecut=    30.00 Ry     beta=0.70
     Davidson diagonalization with overlap
     ethr =  2.09E-04,  avg # of iterations =  1.0

     negative rho (up, down):  4.883E-06 0.000E+00

     total cpu time spent up to now is        9.2 secs

     total energy              =     -31.49857078 Ry
     Harris-Foulkes estimate   =     -31.49862094 Ry
     estimated scf accuracy    <       0.00684685 Ry

     iteration #  8     ecut=    30.00 Ry     beta=0.70
     Davidson diagonalization with overlap
     ethr =  8.56E-05,  avg # of iterations =  1.0

     total cpu time spent up to now is        9.2 secs

     total energy              =     -31.49847738 Ry
     Harris-Foulkes estimate   =     -31.49858363 Ry
     estimated scf accuracy    <       0.00294871 Ry

     iteration #  9     ecut=    30.00 Ry     beta=0.70
     Davidson diagonalization with overlap
     ethr =  3.69E-05,  avg # of iterations =  3.0

     total cpu time spent up to now is        9.3 secs

     total energy              =     -31.49853823 Ry
     Harris-Foulkes estimate   =     -31.49854297 Ry
     estimated scf accuracy    <       0.00056420 Ry

     iteration # 10     ecut=    30.00 Ry     beta=0.70
     Davidson diagonalization with overlap
     ethr =  7.05E-06,  avg # of iterations = 12.0

     total cpu time spent up to now is        9.3 secs

     total energy              =     -31.49852700 Ry
     Harris-Foulkes estimate   =     -31.49854140 Ry
     estimated scf accuracy    <       0.00040322 Ry

     iteration # 11     ecut=    30.00 Ry     beta=0.70
     Davidson diagonalization with overlap
     ethr =  5.04E-06,  avg # of iterations =  1.0

     total cpu time spent up to now is        9.4 secs

     total energy              =     -31.49853491 Ry
     Harris-Foulkes estimate   =     -31.49853698 Ry
     estimated scf accuracy    <       0.00006439 Ry

     iteration # 12     ecut=    30.00 Ry     beta=0.70
     Davidson diagonalization with overlap
     ethr =  8.05E-07,  avg # of iterations =  1.0

     total cpu time spent up to now is        9.4 secs

     total energy              =     -31.49853593 Ry
     Harris-Foulkes estimate   =     -31.49853607 Ry
     estimated scf accuracy    <       0.00000440 Ry

     iteration # 13     ecut=    30.00 Ry     beta=0.70
     Davidson diagonalization with overlap
     ethr =  5.50E-08,  avg # of iterations =  1.0

     total cpu time spent up to now is        9.5 secs

     total energy              =     -31.49853599 Ry
     Harris-Foulkes estimate   =     -31.49853598 Ry
     estimated scf accuracy    <       0.00000005 Ry

     iteration # 14     ecut=    30.00 Ry     beta=0.70
     Davidson diagonalization with overlap
     ethr =  6.77E-10,  avg # of iterations =  1.0

     total cpu time spent up to now is        9.5 secs

     End of self-consistent calculation

          k = 0.0000 0.0000 0.0000 ( 22119 PWs)   bands (ev):

   -23.6379  -7.1615  -7.0572  -7.0470  -6.9333  -6.8228  -0.1745   0.5206

     the Fermi energy is    -6.9127 ev

!    total energy              =     -31.49853603 Ry
     Harris-Foulkes estimate   =     -31.49853600 Ry
     estimated scf accuracy    <          2.2E-09 Ry

     convergence has been achieved in  14 iterations

     Forces acting on atoms (Ry/au):

     atom    1 type  2   force =    -0.01025656   -0.00675275    0.00222814
     atom    2 type  1   force =     0.00054010   -0.00001817    0.00024862
     atom    3 type  1   force =     0.00971647    0.00677092   -0.00247676

     Total force =     0.017393     Total SCF correction =     0.000306

     Entering Dynamics:    iteration =     5
                           time      =   0.0242 pico-seconds


     Andersen thermostat:    3 collisions

ATOMIC_POSITIONS (bohr)
O        5.229229369   5.761586987   4.971684262
H       -0.797178983  10.848289613   7.260131083
H       19.604074481   2.055677886   6.568621354


     kinetic energy (Ekin) =     0.02251702 Ry
     temperature           =  1185.05046597 K 
     Ekin + Etot (const)   =   -31.47601902 Ry
     Message from routine dynamics:
     Total linear momentum <> 0

     Linear momentum :    0.2173642410    0.0420134243   -0.1389993674

     Writing output data file pwscf.save

     second order wave-functions extrapolation
     Check: negative starting charge=   -0.340844
     second order charge density extrapolation
     Check: negative starting charge=   -0.339024

     negative rho (up, down):  6.044E-02 0.000E+00

     total cpu time spent up to now is       10.0 secs

     per-process dynamical memory:    20.4 Mb

     Self-consistent Calculation

     iteration #  1     ecut=    30.00 Ry     beta=0.70
     Davidson diagonalization with overlap
     c_bands:  1 eigenvalues not converged
     ethr =  1.00E-06,  avg # of iterations = 20.0

     negative rho (up, down):  1.435E-02 0.000E+00

     total cpu time spent up to now is       10.1 secs

     total energy              =     -31.44720972 Ry
     Harris-Foulkes estimate   =     -31.44686975 Ry
     estimated scf accuracy    <       0.04664368 Ry

     iteration #  2     ecut=    30.00 Ry     beta=0.70
     Davidson diagonalization with overlap
     ethr =  5.83E-04,  avg # of iterations =  2.0

     negative rho (up, down):  1.320E-02 0.000E+00

     total cpu time spent up to now is       10.2 secs

     total energy              =     -31.47717096 Ry
     Harris-Foulkes estimate   =     -31.93805666 Ry
     estimated scf accuracy    <       4.16023841 Ry

     iteration #  3     ecut=    30.00 Ry     beta=0.70
     Davidson diagonalization with overlap
     ethr =  5.83E-04,  avg # of iterations =  2.0

     negative rho (up, down):  1.280E-02 0.000E+00

     total cpu time spent up to now is       10.2 secs

     total energy              =     -31.47845006 Ry
     Harris-Foulkes estimate   =     -31.52389357 Ry
     estimated scf accuracy    <       1.14356794 Ry

     iteration #  4     ecut=    30.00 Ry     beta=0.70
     Davidson diagonalization with overlap
     ethr =  5.83E-04,  avg # of iterations =  1.0

     negative rho (up, down):  7.632E-03 0.000E+00

     total cpu time spent up to now is       10.3 secs

     total energy              =     -31.43208568 Ry
     Harris-Foulkes estimate   =     -31.49164842 Ry
     estimated scf accuracy    <       0.64993820 Ry

     iteration #  5     ecut=    30.00 Ry     beta=0.70
     Davidson diagonalization with overlap
     ethr =  5.83E-04,  avg # of iterations =  1.0

     negative rho (up, down):  3.019E-03 0.000E+00

     total cpu time spent up to now is       10.3 secs

     total energy              =     -31.48220138 Ry
     Harris-Foulkes estimate   =     -31.55805619 Ry
     estimated scf accuracy    <       2.35687573 Ry

     iteration #  6     ecut=    30.00 Ry     beta=0.70
     Davidson diagonalization with overlap
     ethr =  5.83E-04,  avg # of iterations =  1.0

     negative rho (up, down):  9.205E-04 0.000E+00

     total cpu time spent up to now is       10.3 secs

     total energy              =     -31.49502939 Ry
     Harris-Foulkes estimate   =     -31.49899813 Ry
     estimated scf accuracy    <       0.29063467 Ry

     iteration #  7     ecut=    30.00 Ry     beta=0.70
     Davidson diagonalization with overlap
     ethr =  5.83E-04,  avg # of iterations =  3.0

     negative rho (up, down):  3.655E-04 0.000E+00

     total cpu time spent up to now is       10.4 secs

     total energy              =     -31.49698010 Ry
     Harris-Foulkes estimate   =     -31.49726064 Ry
     estimated scf accuracy    <       0.01861900 Ry

     iteration #  8     ecut=    30.00 Ry     beta=0.70
     Davidson diagonalization with overlap
     ethr =  2.33E-04,  avg # of iterations =  3.0

     negative rho (up, down):  2.294E-05 0.000E+00

     total cpu time spent up to now is       10.4 secs

     total energy              =     -31.49721793 Ry
     Harris-Foulkes estimate   =     -31.49719779 Ry
     estimated scf accuracy    <       0.00007365 Ry

     iteration #  9     ecut=    30.00 Ry     beta=0.70
     Davidson diagonalization with overlap
     ethr =  9.21E-07,  avg # of iterations = 20.0

     negative rho (up, down):  4.045E-07 0.000E+00

     total cpu time spent up to now is       10.5 secs

     total energy              =     -31.49721426 Ry
     Harris-Foulkes estimate   =     -31.49723137 Ry
     estimated scf accuracy    <       0.00082214 Ry

     iteration # 10     ecut=    30.00 Ry     beta=0.70
     Davidson diagonalization with overlap
     ethr =  9.21E-07,  avg # of iterations =  1.0

     total cpu time spent up to now is       10.6 secs

     total energy              =     -31.49723013 Ry
     Harris-Foulkes estimate   =     -31.49729528 Ry
     estimated scf accuracy    <       0.00613479 Ry

     iteration # 11     ecut=    30.00 Ry     beta=0.70
     Davidson diagonalization with overlap
     ethr =  9.21E-07,  avg # of iterations =  1.0

     total cpu time spent up to now is       10.6 secs

     total energy              =     -31.49722462 Ry
     Harris-Foulkes estimate   =     -31.49724790 Ry
     estimated scf accuracy    <       0.00141386 Ry

     iteration # 12     ecut=    30.00 Ry     beta=0.70
     Davidson diagonalization with overlap
     ethr =  9.21E-07,  avg # of iterations =  1.0

     total cpu time spent up to now is       10.7 secs

     total energy              =     -31.49723380 Ry
     Harris-Foulkes estimate   =     -31.49723435 Ry
     estimated scf accuracy    <       0.00004950 Ry

     iteration # 13     ecut=    30.00 Ry     beta=0.70
     Davidson diagonalization with overlap
     ethr =  6.19E-07,  avg # of iterations =  1.0

     total cpu time spent up to now is       10.7 secs

     total energy              =     -31.49723373 Ry
     Harris-Foulkes estimate   =     -31.49723390 Ry
     estimated scf accuracy    <       0.00001827 Ry

     iteration # 14     ecut=    30.00 Ry     beta=0.70
     Davidson diagonalization with overlap
     ethr =  2.28E-07,  avg # of iterations =  1.0

     total cpu time spent up to now is       10.8 secs

     total energy              =     -31.49723331 Ry
     Harris-Foulkes estimate   =     -31.49723375 Ry
     estimated scf accuracy    <       0.00002481 Ry

     iteration # 15     ecut=    30.00 Ry     beta=0.70
     Davidson diagonalization with overlap
     ethr =  2.28E-07,  avg # of iterations =  1.0

     total cpu time spent up to now is       10.8 secs

     total energy              =     -31.49723385 Ry
     Harris-Foulkes estimate   =     -31.49723355 Ry
     estimated scf accuracy    <       0.00000011 Ry

     iteration # 16     ecut=    30.00 Ry     beta=0.70
     Davidson diagonalization with overlap
     ethr =  1.31E-09,  avg # of iterations =  1.0

     total cpu time spent up to now is       10.9 secs

     End of self-consistent calculation

          k = 0.0000 0.0000 0.0000 ( 22119 PWs)   bands (ev):

   -23.6305  -7.1388  -7.0581  -7.0410  -6.9186  -6.8371  -0.1722   0.5067

     the Fermi energy is    -6.9068 ev

!    total energy              =     -31.49723385 Ry
     Harris-Foulkes estimate   =     -31.49723385 Ry
     estimated scf accuracy    <          7.0E-10 Ry

     convergence has been achieved in  16 iterations

     Forces acting on atoms (Ry/au):

     atom    1 type  2   force =    -0.01006621   -0.00555400    0.00201375
     atom    2 type  1   force =     0.00160815   -0.00051254   -0.00011935
     atom    3 type  1   force =     0.00845807    0.00606654   -0.00189440

     Total force =     0.015844     Total SCF correction =     0.000049

     Entering Dynamics:    iteration =     6
                           time      =   0.0290 pico-seconds


     Andersen thermostat:    3 collisions

ATOMIC_POSITIONS (bohr)
O        5.186272485   5.781266908   4.958448483
H       -0.531030839  10.693789680   7.476908157
H       20.018431431   1.898416705   6.561519979


     kinetic energy (Ekin) =     0.01763673 Ry
     temperature           =   928.20535250 K 
     Ekin + Etot (const)   =   -31.47959712 Ry
     Message from routine dynamics:
     Total linear momentum <> 0

     Linear momentum :    0.2006832252   -0.2924208879    0.1536507320

     Writing output data file pwscf.save

     second order wave-functions extrapolation
     Check: negative starting charge=   -0.339024
     second order charge density extrapolation
     Check: negative starting charge=   -0.339051

     negative rho (up, down):  8.325E-02 0.000E+00

     total cpu time spent up to now is       11.3 secs

     per-process dynamical memory:    20.4 Mb

     Self-consistent Calculation

     iteration #  1     ecut=    30.00 Ry     beta=0.70
     Davidson diagonalization with overlap
     c_bands:  1 eigenvalues not converged
     ethr =  1.00E-06,  avg # of iterations = 20.0

     negative rho (up, down):  2.017E-02 0.000E+00

     total cpu time spent up to now is       11.5 secs

     total energy              =     -31.42009069 Ry
     Harris-Foulkes estimate   =     -31.43597212 Ry
     estimated scf accuracy    <       0.07836506 Ry

     iteration #  2     ecut=    30.00 Ry     beta=0.70
     Davidson diagonalization with overlap
     ethr =  9.80E-04,  avg # of iterations =  2.0

     negative rho (up, down):  1.818E-02 0.000E+00

     total cpu time spent up to now is       11.6 secs

     total energy              =     -31.49367578 Ry
     Harris-Foulkes estimate   =     -32.09926420 Ry
     estimated scf accuracy    <       4.44616759 Ry

     iteration #  3     ecut=    30.00 Ry     beta=0.70
     Davidson diagonalization with overlap
     ethr =  9.80E-04,  avg # of iterations =  2.0

     negative rho (up, down):  1.759E-02 0.000E+00

     total cpu time spent up to now is       11.6 secs

     total energy              =     -31.48962026 Ry
     Harris-Foulkes estimate   =     -31.51845039 Ry
     estimated scf accuracy    <       1.27501720 Ry

     iteration #  4     ecut=    30.00 Ry     beta=0.70
     Davidson diagonalization with overlap
     ethr =  9.80E-04,  avg # of iterations =  1.0

     negative rho (up, down):  1.352E-02 0.000E+00

     total cpu time spent up to now is       11.7 secs

     total energy              =     -31.39996520 Ry
     Harris-Foulkes estimate   =     -31.49682942 Ry
     estimated scf accuracy    <       1.24100991 Ry

     iteration #  5     ecut=    30.00 Ry     beta=0.70
     Davidson diagonalization with overlap
     ethr =  9.80E-04,  avg # of iterations =  1.0

     negative rho (up, down):  5.357E-03 0.000E+00

     total cpu time spent up to now is       11.7 secs

     total energy              =     -31.48688970 Ry
     Harris-Foulkes estimate   =     -31.56266693 Ry
     estimated scf accuracy    <       2.40507643 Ry

     iteration #  6     ecut=    30.00 Ry     beta=0.70
     Davidson diagonalization with overlap
     ethr =  9.80E-04,  avg # of iterations =  1.0

     negative rho (up, down):  1.675E-03 0.000E+00

     total cpu time spent up to now is       11.8 secs

     total energy              =     -31.49515332 Ry
     Harris-Foulkes estimate   =     -31.50150234 Ry
     estimated scf accuracy    <       0.43014390 Ry

     iteration #  7     ecut=    30.00 Ry     beta=0.70
     Davidson diagonalization with overlap
     ethr =  9.80E-04,  avg # of iterations =  1.0

     negative rho (up, down):  6.645E-04 0.000E+00

     total cpu time spent up to now is       11.8 secs

     total energy              =     -31.50064287 Ry
     Harris-Foulkes estimate   =     -31.50009128 Ry
     estimated scf accuracy    <       0.00010467 Ry

     iteration #  8     ecut=    30.00 Ry     beta=0.70
     Davidson diagonalization with overlap
     c_bands:  1 eigenvalues not converged
     ethr =  1.31E-06,  avg # of iterations = 20.0

     negative rho (up, down):  1.796E-05 0.000E+00

     total cpu time spent up to now is       11.9 secs

     total energy              =     -31.50113134 Ry
     Harris-Foulkes estimate   =     -31.50098360 Ry
     estimated scf accuracy    <       0.02814729 Ry

     iteration #  9     ecut=    30.00 Ry     beta=0.70
     Davidson diagonalization with overlap
     ethr =  1.31E-06,  avg # of iterations =  9.0

     negative rho (up, down):  1.662E-07 0.000E+00

     total cpu time spent up to now is       11.9 secs

     total energy              =     -31.50030130 Ry
     Harris-Foulkes estimate   =     -31.50115164 Ry
     estimated scf accuracy    <       0.04033543 Ry

     iteration # 10     ecut=    30.00 Ry     beta=0.70
     Davidson diagonalization with overlap
     ethr =  1.31E-06,  avg # of iterations =  1.0

     total cpu time spent up to now is       12.0 secs

     total energy              =     -31.50072173 Ry
     Harris-Foulkes estimate   =     -31.50072337 Ry
     estimated scf accuracy    <       0.00002879 Ry

     iteration # 11     ecut=    30.00 Ry     beta=0.70
     Davidson diagonalization with overlap
     ethr =  3.60E-07,  avg # of iterations =  1.0

     total cpu time spent up to now is       12.0 secs

     total energy              =     -31.50062218 Ry
     Harris-Foulkes estimate   =     -31.50077262 Ry
     estimated scf accuracy    <       0.00458669 Ry

     iteration # 12     ecut=    30.00 Ry     beta=0.70
     Davidson diagonalization with overlap
     ethr =  3.60E-07,  avg # of iterations =  1.0

     total cpu time spent up to now is       12.1 secs

     total energy              =     -31.50073160 Ry
     Harris-Foulkes estimate   =     -31.50073696 Ry
     estimated scf accuracy    <       0.00130517 Ry

     iteration # 13     ecut=    30.00 Ry     beta=0.70
     Davidson diagonalization with overlap
     ethr =  3.60E-07,  avg # of iterations =  1.0

     total cpu time spent up to now is       12.1 secs

     total energy              =     -31.50072055 Ry
     Harris-Foulkes estimate   =     -31.50073218 Ry
     estimated scf accuracy    <       0.00084530 Ry

     iteration # 14     ecut=    30.00 Ry     beta=0.70
     Davidson diagonalization with overlap
     ethr =  3.60E-07,  avg # of iterations =  1.0

     total cpu time spent up to now is       12.2 secs

     total energy              =     -31.50072168 Ry
     Harris-Foulkes estimate   =     -31.50072389 Ry
     estimated scf accuracy    <       0.00013207 Ry

     iteration # 15     ecut=    30.00 Ry     beta=0.70
     Davidson diagonalization with overlap
     ethr =  3.60E-07,  avg # of iterations =  1.0

     total cpu time spent up to now is       12.2 secs

     total energy              =     -31.50072310 Ry
[...]

     total energy              =      21.38319299 Ry
     Harris-Foulkes estimate   = -141821.74526388 Ry
     estimated scf accuracy    <      20.39836527 Ry

     iteration # 59     ecut=    30.00 Ry     beta=0.70
     Davidson diagonalization with overlap
     ethr =  1.00E-02,  avg # of iterations =  9.0

     negative rho (up, down):  9.308E-01 0.000E+00

     total cpu time spent up to now is       35.5 secs

     total energy              =      80.29828515 Ry
     Harris-Foulkes estimate   =   -1263.49327743 Ry
     estimated scf accuracy    <      25.60479147 Ry

     iteration # 60     ecut=    30.00 Ry     beta=0.70
     Davidson diagonalization with overlap
     ethr =  1.00E-02,  avg # of iterations =  8.0

     negative rho (up, down):  6.085E-01 0.000E+00

     total cpu time spent up to now is       35.6 secs

     total energy              =      75.39831420 Ry
     Harris-Foulkes estimate   =    -453.38729092 Ry
     estimated scf accuracy    <      23.44428938 Ry

     iteration # 61     ecut=    30.00 Ry     beta=0.70
     Davidson diagonalization with overlap
     ethr =  1.00E-02,  avg # of iterations = 10.0

     negative rho (up, down):  1.506E-01 0.000E+00

     total cpu time spent up to now is       35.7 secs

     total energy              =      41.99320971 Ry
     Harris-Foulkes estimate   =    -171.04831617 Ry
     estimated scf accuracy    <      21.14275401 Ry

     iteration # 62     ecut=    30.00 Ry     beta=0.70
     Davidson diagonalization with overlap
     ethr =  1.00E-02,  avg # of iterations =  5.0

     negative rho (up, down):  3.169E-01 0.000E+00

     total cpu time spent up to now is       35.8 secs

     total energy              =      59.73587665 Ry
     Harris-Foulkes estimate   =    -553.82976475 Ry
     estimated scf accuracy    <      43.24532560 Ry

     iteration # 63     ecut=    30.00 Ry     beta=0.70
     Davidson diagonalization with overlap
     ethr =  1.00E-02,  avg # of iterations =  8.0

     negative rho (up, down):  1.328E-01 0.000E+00

     total cpu time spent up to now is       35.8 secs

     total energy              =      85.61745904 Ry
     Harris-Foulkes estimate   =    -251.80792076 Ry
     estimated scf accuracy    <      26.26444090 Ry

     iteration # 64     ecut=    30.00 Ry     beta=0.70
     Davidson diagonalization with overlap
     ethr =  1.00E-02,  avg # of iterations =  9.0

     negative rho (up, down):  4.472E-02 0.000E+00

     total cpu time spent up to now is       35.9 secs

     total energy              =      -6.39151726 Ry
     Harris-Foulkes estimate   =    -232.44926982 Ry
     estimated scf accuracy    <      20.93859776 Ry

     iteration # 65     ecut=    30.00 Ry     beta=0.70
     Davidson diagonalization with overlap
     ethr =  1.00E-02,  avg # of iterations =  6.0

     negative rho (up, down):  6.457E-02 0.000E+00

     total cpu time spent up to now is       36.0 secs

     total energy              =      46.20907989 Ry
     Harris-Foulkes estimate   =    -564.55891757 Ry
     estimated scf accuracy    <      22.62173857 Ry

     iteration # 66     ecut=    30.00 Ry     beta=0.70
     Davidson diagonalization with overlap
     ethr =  1.00E-02,  avg # of iterations =  8.0

     negative rho (up, down):  1.032E-01 0.000E+00

     total cpu time spent up to now is       36.1 secs

     total energy              =    -323.67898131 Ry
     Harris-Foulkes estimate   =   -1864.09147222 Ry
     estimated scf accuracy    <      19.52188150 Ry

     iteration # 67     ecut=    30.00 Ry     beta=0.70
     Davidson diagonalization with overlap
     ethr =  1.00E-02,  avg # of iterations =  7.0

     negative rho (up, down):  1.597E-01 0.000E+00

     total cpu time spent up to now is       36.2 secs

     total energy              =     -77.18172829 Ry
     Harris-Foulkes estimate   =   -7532.09281988 Ry
     estimated scf accuracy    <      31.48777311 Ry

     iteration # 68     ecut=    30.00 Ry     beta=0.70
     Davidson diagonalization with overlap
     ethr =  1.00E-02,  avg # of iterations =  9.0

     negative rho (up, down):  1.555E-01 0.000E+00

     total cpu time spent up to now is       36.3 secs

     total energy              =      59.95048427 Ry
     Harris-Foulkes estimate   =   -1575.01646912 Ry
     estimated scf accuracy    <      27.42254286 Ry

     iteration # 69     ecut=    30.00 Ry     beta=0.70
     Davidson diagonalization with overlap
     ethr =  1.00E-02,  avg # of iterations = 10.0

     negative rho (up, down):  2.529E-01 0.000E+00

     total cpu time spent up to now is       36.4 secs

     total energy              =    -100.80697981 Ry
     Harris-Foulkes estimate   =    -680.65101285 Ry
     estimated scf accuracy    <      30.18619243 Ry

     iteration # 70     ecut=    30.00 Ry     beta=0.70
     Davidson diagonalization with overlap
     ethr =  1.00E-02,  avg # of iterations =  5.0

     negative rho (up, down):  4.623E-01 0.000E+00

     total cpu time spent up to now is       36.4 secs

     total energy              =    -776.65457882 Ry
     Harris-Foulkes estimate   =   -1629.96633410 Ry
     estimated scf accuracy    <      33.04975171 Ry

     iteration # 71     ecut=    30.00 Ry     beta=0.70
     Davidson diagonalization with overlap
     ethr =  1.00E-02,  avg # of iterations = 11.0

     negative rho (up, down):  2.741E-01 0.000E+00

     total cpu time spent up to now is       36.5 secs

     total energy              =     109.30569941 Ry
     Harris-Foulkes estimate   =   -3734.55994850 Ry
     estimated scf accuracy    <      20.33570533 Ry

     iteration # 72     ecut=    30.00 Ry     beta=0.70
     Davidson diagonalization with overlap
     ethr =  1.00E-02,  avg # of iterations =  8.0

     negative rho (up, down):  3.612E-01 0.000E+00

     total cpu time spent up to now is       36.6 secs

     total energy              =      98.25806216 Ry
     Harris-Foulkes estimate   =    -705.66125189 Ry
     estimated scf accuracy    <      26.82066045 Ry

     iteration # 73     ecut=    30.00 Ry     beta=0.70
     Davidson diagonalization with overlap
     ethr =  1.00E-02,  avg # of iterations =  8.0

     negative rho (up, down):  5.048E-01 0.000E+00

     total cpu time spent up to now is       36.7 secs

     total energy              =      84.26659399 Ry
     Harris-Foulkes estimate   =   -1378.60599040 Ry
     estimated scf accuracy    <      28.35988607 Ry

     iteration # 74     ecut=    30.00 Ry     beta=0.70
     Davidson diagonalization with overlap
     ethr =  1.00E-02,  avg # of iterations =  7.0

     negative rho (up, down):  6.171E-01 0.000E+00

     total cpu time spent up to now is       36.8 secs

     total energy              =      -4.51597131 Ry
     Harris-Foulkes estimate   =   -2784.65807120 Ry
     estimated scf accuracy    <      21.90373453 Ry

     iteration # 75     ecut=    30.00 Ry     beta=0.70
     Davidson diagonalization with overlap
     ethr =  1.00E-02,  avg # of iterations = 10.0

     negative rho (up, down):  2.052E-01 0.000E+00

     total cpu time spent up to now is       36.9 secs

     total energy              =      58.98264336 Ry
     Harris-Foulkes estimate   =    -516.63754861 Ry
     estimated scf accuracy    <      16.45532118 Ry

     iteration # 76     ecut=    30.00 Ry     beta=0.70
     Davidson diagonalization with overlap
     ethr =  1.00E-02,  avg # of iterations =  6.0

     negative rho (up, down):  7.339E-02 0.000E+00

     total cpu time spent up to now is       37.0 secs

     total energy              =     132.51826983 Ry
     Harris-Foulkes estimate   =    -872.81653415 Ry
     estimated scf accuracy    <      29.29912893 Ry

     iteration # 77     ecut=    30.00 Ry     beta=0.70
     Davidson diagonalization with overlap
     ethr =  1.00E-02,  avg # of iterations =  8.0

     negative rho (up, down):  2.514E-01 0.000E+00

     total cpu time spent up to now is       37.0 secs

     total energy              =     121.13449324 Ry
     Harris-Foulkes estimate   =   -2124.68600356 Ry
     estimated scf accuracy    <      24.95235611 Ry

     iteration # 78     ecut=    30.00 Ry     beta=0.70
     Davidson diagonalization with overlap
     ethr =  1.00E-02,  avg # of iterations = 12.0

     negative rho (up, down):  1.972E-02 0.000E+00

     total cpu time spent up to now is       37.1 secs

     total energy              =      55.43687470 Ry
     Harris-Foulkes estimate   =    -910.83981341 Ry
     estimated scf accuracy    <      35.40490000 Ry

     iteration # 79     ecut=    30.00 Ry     beta=0.70
     Davidson diagonalization with overlap
     ethr =  1.00E-02,  avg # of iterations =  9.0

     negative rho (up, down):  7.503E-04 0.000E+00

     total cpu time spent up to now is       37.2 secs

     total energy              =     -17.82737540 Ry
     Harris-Foulkes estimate   =     -85.19933431 Ry
     estimated scf accuracy    <      29.87111583 Ry

     iteration # 80     ecut=    30.00 Ry     beta=0.70
     Davidson diagonalization with overlap
     ethr =  1.00E-02,  avg # of iterations =  5.0

     total cpu time spent up to now is       37.3 secs

     total energy              =     -65.20636257 Ry
     Harris-Foulkes estimate   =     -62.93218802 Ry
     estimated scf accuracy    <      46.05060202 Ry

     iteration # 81     ecut=    30.00 Ry     beta=0.70
     Davidson diagonalization with overlap
     ethr =  1.00E-02,  avg # of iterations =  2.0

     negative rho (up, down):  1.575E-02 0.000E+00

     total cpu time spent up to now is       37.3 secs

     total energy              =     -72.13151319 Ry
     Harris-Foulkes estimate   =     -65.28581648 Ry
     estimated scf accuracy    <      48.19457206 Ry

     iteration # 82     ecut=    30.00 Ry     beta=0.70
     Davidson diagonalization with overlap
     ethr =  1.00E-02,  avg # of iterations =  5.0

     negative rho (up, down):  5.238E-03 0.000E+00

     total cpu time spent up to now is       37.4 secs

     total energy              =      -8.57589049 Ry
     Harris-Foulkes estimate   =    -121.96842732 Ry
     estimated scf accuracy    <      32.29718424 Ry

     iteration # 83     ecut=    30.00 Ry     beta=0.70
     Davidson diagonalization with overlap
     ethr =  1.00E-02,  avg # of iterations = 11.0

     negative rho (up, down):  1.128E-01 0.000E+00

     total cpu time spent up to now is       37.5 secs

     total energy              =    -220.06152502 Ry
     Harris-Foulkes estimate   =     -69.00882569 Ry
     estimated scf accuracy    <      53.57963221 Ry

     iteration # 84     ecut=    30.00 Ry     beta=0.70
     Davidson diagonalization with overlap
     ethr =  1.00E-02,  avg # of iterations =  4.0

     negative rho (up, down):  2.484E-02 0.000E+00

     total cpu time spent up to now is       37.6 secs

     total energy              =     -46.72169919 Ry
     Harris-Foulkes estimate   =    -588.83447653 Ry
     estimated scf accuracy    <      66.45003482 Ry

     iteration # 85     ecut=    30.00 Ry     beta=0.70
     Davidson diagonalization with overlap
     ethr =  1.00E-02,  avg # of iterations =  4.0

     negative rho (up, down):  1.554E-02 0.000E+00

     total cpu time spent up to now is       37.7 secs

     total energy              =     -45.38626234 Ry
     Harris-Foulkes estimate   =    -174.47828243 Ry
     estimated scf accuracy    <      59.02595035 Ry

     iteration # 86     ecut=    30.00 Ry     beta=0.70
     Davidson diagonalization with overlap
     ethr =  1.00E-02,  avg # of iterations =  5.0

     negative rho (up, down):  1.161E-01 0.000E+00

     total cpu time spent up to now is       37.8 secs

     total energy              =    -325.59815334 Ry
     Harris-Foulkes estimate   =    -329.30637773 Ry
     estimated scf accuracy    <      56.06229006 Ry

     iteration # 87     ecut=    30.00 Ry     beta=0.70
     Davidson diagonalization with overlap
     ethr =  1.00E-02,  avg # of iterations =  8.0

     negative rho (up, down):  1.130E-01 0.000E+00

     total cpu time spent up to now is       37.8 secs

     total energy              =     133.32299177 Ry
     Harris-Foulkes estimate   =   -1157.05077012 Ry
     estimated scf accuracy    <      21.18019184 Ry

     iteration # 88     ecut=    30.00 Ry     beta=0.70
     Davidson diagonalization with overlap
     ethr =  1.00E-02,  avg # of iterations =  8.0

     negative rho (up, down):  2.708E-01 0.000E+00

     total cpu time spent up to now is       37.9 secs

     total energy              =     515.34791476 Ry
     Harris-Foulkes estimate   =    -735.95227612 Ry
     estimated scf accuracy    <      44.20452642 Ry

     iteration # 89     ecut=    30.00 Ry     beta=0.70
     Davidson diagonalization with overlap
     ethr =  1.00E-02,  avg # of iterations =  9.0

     negative rho (up, down):  4.091E-01 0.000E+00

     total cpu time spent up to now is       38.0 secs

     total energy              =    -406.76338120 Ry
     Harris-Foulkes estimate   =   -4251.29599616 Ry
     estimated scf accuracy    <      45.14178786 Ry

     iteration # 90     ecut=    30.00 Ry     beta=0.70
     Davidson diagonalization with overlap
     ethr =  1.00E-02,  avg # of iterations =  6.0

     negative rho (up, down):  3.731E-01 0.000E+00

     total cpu time spent up to now is       38.1 secs

     total energy              =    -187.90300416 Ry
     Harris-Foulkes estimate   =   -1659.88107926 Ry
     estimated scf accuracy    <      41.43472541 Ry

     iteration # 91     ecut=    30.00 Ry     beta=0.70
     Davidson diagonalization with overlap
     ethr =  1.00E-02,  avg # of iterations =  7.0

     negative rho (up, down):  1.619E-01 0.000E+00

     total cpu time spent up to now is       38.2 secs

     total energy              =      99.39662160 Ry
     Harris-Foulkes estimate   =   -1888.41171168 Ry
     estimated scf accuracy    <      22.32729305 Ry

     iteration # 92     ecut=    30.00 Ry     beta=0.70
     Davidson diagonalization with overlap
     ethr =  1.00E-02,  avg # of iterations =  7.0

     negative rho (up, down):  1.072E-01 0.000E+00

     total cpu time spent up to now is       38.3 secs

     total energy              =      27.64957095 Ry
     Harris-Foulkes estimate   =    -196.84079319 Ry
     estimated scf accuracy    <      21.15157803 Ry

     iteration # 93     ecut=    30.00 Ry     beta=0.70
     Davidson diagonalization with overlap
     ethr =  1.00E-02,  avg # of iterations =  4.0

     negative rho (up, down):  1.040E-01 0.000E+00

     total cpu time spent up to now is       38.4 secs

     total energy              =    -427.01528444 Ry
     Harris-Foulkes estimate   =    -138.18965845 Ry
     estimated scf accuracy    <      40.92018265 Ry

     iteration # 94     ecut=    30.00 Ry     beta=0.70
     Davidson diagonalization with overlap
     ethr =  1.00E-02,  avg # of iterations =  4.0

     negative rho (up, down):  1.710E-01 0.000E+00

     total cpu time spent up to now is       38.5 secs

     total energy              =      78.76763358 Ry
     Harris-Foulkes estimate   =    -854.91872871 Ry
     estimated scf accuracy    <      31.51260364 Ry

     iteration # 95     ecut=    30.00 Ry     beta=0.70
     Davidson diagonalization with overlap
     ethr =  1.00E-02,  avg # of iterations =  5.0

     negative rho (up, down):  2.915E-01 0.000E+00

     total cpu time spent up to now is       38.5 secs

     total energy              =    -252.96520498 Ry
     Harris-Foulkes estimate   =    -103.79321591 Ry
     estimated scf accuracy    <      31.86484869 Ry

     iteration # 96     ecut=    30.00 Ry     beta=0.70
     Davidson diagonalization with overlap
     ethr =  1.00E-02,  avg # of iterations =  6.0

     negative rho (up, down):  6.269E-01 0.000E+00

     total cpu time spent up to now is       38.6 secs

     total energy              =    -206.16730052 Ry
     Harris-Foulkes estimate   =   -1432.57073135 Ry
     estimated scf accuracy    <      33.77935031 Ry

     iteration # 97     ecut=    30.00 Ry     beta=0.70
     Davidson diagonalization with overlap
     ethr =  1.00E-02,  avg # of iterations =  6.0

     negative rho (up, down):  3.318E-01 0.000E+00

     total cpu time spent up to now is       38.7 secs

     total energy              =   -1147.02404291 Ry
     Harris-Foulkes estimate   =   -2536.98416249 Ry
     estimated scf accuracy    <      24.75052589 Ry

     iteration # 98     ecut=    30.00 Ry     beta=0.70
     Davidson diagonalization with overlap
     ethr =  1.00E-02,  avg # of iterations =  8.0

     negative rho (up, down):  3.492E-01 0.000E+00

     total cpu time spent up to now is       38.8 secs

     total energy              =      37.99771698 Ry
     Harris-Foulkes estimate   =   -3995.22860999 Ry
     estimated scf accuracy    <      25.50742339 Ry

     iteration # 99     ecut=    30.00 Ry     beta=0.70
     Davidson diagonalization with overlap
     ethr =  1.00E-02,  avg # of iterations =  8.0

     negative rho (up, down):  6.852E-02 0.000E+00

     total cpu time spent up to now is       38.9 secs

     total energy              =      36.79853383 Ry
     Harris-Foulkes estimate   =    -177.86585015 Ry
     estimated scf accuracy    <      19.67157385 Ry

     iteration #100     ecut=    30.00 Ry     beta=0.70
     Davidson diagonalization with overlap
     ethr =  1.00E-02,  avg # of iterations =  6.0

     negative rho (up, down):  1.191E-01 0.000E+00

     total cpu time spent up to now is       39.0 secs

     total energy              =      52.32183271 Ry
     Harris-Foulkes estimate   =    -569.06560318 Ry
     estimated scf accuracy    <      38.09838541 Ry

     End of self-consistent calculation

     convergence NOT achieved after 100 iterations: stopping

     Writing output data file pwscf.save
 
     init_run     :      0.17s CPU      0.19s WALL (       1 calls)
     electrons    :     25.85s CPU     31.56s WALL (      18 calls)
     update_pot   :      3.83s CPU      4.99s WALL (      17 calls)
     forces       :      0.77s CPU      0.78s WALL (      17 calls)

     Called by init_run:
     wfcinit      :      0.01s CPU      0.02s WALL (       1 calls)
     potinit      :      0.05s CPU      0.05s WALL (       1 calls)

     Called by electrons:
     c_bands      :     12.96s CPU     13.55s WALL (     492 calls)
     sum_band     :      2.54s CPU      2.64s WALL (     492 calls)
     v_of_rho     :      6.06s CPU      6.47s WALL (     510 calls)
     mix_rho      :      3.11s CPU      6.35s WALL (     492 calls)

     Called by c_bands:
     init_us_2    :      0.08s CPU      0.09s WALL (     985 calls)
     cegterg      :     12.82s CPU     13.28s WALL (     492 calls)

     Called by sum_band:

     Called by *egterg:
     h_psi        :     10.90s CPU     11.18s WALL (    2265 calls)
     g_psi        :      0.12s CPU      0.12s WALL (    1772 calls)
     cdiaghg      :      0.75s CPU      0.81s WALL (    2247 calls)

     Called by h_psi:
     h_psi:pot    :     10.84s CPU     11.11s WALL (    2265 calls)
     h_psi:calbec :      0.10s CPU      0.16s WALL (    2265 calls)
     vloc_psi     :     10.70s CPU     10.91s WALL (    2265 calls)
     add_vuspsi   :      0.03s CPU      0.03s WALL (    2265 calls)

     General routines
     calbec       :      0.16s CPU      0.24s WALL (    2349 calls)
     fft          :      4.09s CPU      4.43s WALL (    5644 calls)
     fftw         :     11.36s CPU     11.61s WALL (   28498 calls)
     davcio       :      0.57s CPU      2.88s WALL (    8251 calls)
 
     Parallel routines
     fft_scatter  :      4.92s CPU      5.30s WALL (   34142 calls)
 
     PWSCF        :    31.41s CPU        39.11s WALL

 
   This run was terminated on:  17:36:19  13Feb2018            

=------------------------------------------------------------------------------=
   JOB DONE.
=------------------------------------------------------------------------------=
