
     Program PWSCF v.6.0 (svn rev. 13079) starts on 13Feb2018 at 17:57: 6 

     This program is part of the open-source Quantum ESPRESSO suite
     for quantum simulation of materials; please cite
         "P. Giannozzi et al., J. Phys.:Condens. Matter 21 395502 (2009);
          URL http://www.quantum-espresso.org", 
     in publications or presentations arising from this work. More details at
     http://www.quantum-espresso.org/quote

     Parallel version (MPI), running on    28 processors
     R & G space division:  proc/nbgrp/npool/nimage =      28
     Reading input from inputs/MD-H2O-round1/908.in

     Current dimensions of program PWSCF are:
     Max number of different atomic species (ntypx) = 10
     Max number of k-points (npk) =  40000
     Max angular momentum in pseudopotentials (lmaxx) =  3

     Subspace diagonalization in iterative solution of the eigenvalue problem:
     a serial algorithm will be used

 
     Parallelization info
     --------------------
     sticks:   dense  smooth     PW     G-vecs:    dense   smooth      PW
     Min         136     136     33                 6338     6338     787
     Max         137     137     34                 6341     6341     792
     Sum        3809    3809    949               177509   177509   22119
 


     bravais-lattice index     =            1
     lattice parameter (alat)  =      20.0000  a.u.
     unit-cell volume          =    8000.0000 (a.u.)^3
     number of atoms/cell      =            3
     number of atomic types    =            2
     number of electrons       =         8.00
     number of Kohn-Sham states=            8
     kinetic-energy cutoff     =      30.0000  Ry
     charge density cutoff     =     120.0000  Ry
     convergence threshold     =      1.0E-08
     mixing beta               =       0.7000
     number of iterations used =            8  plain     mixing
     Exchange-correlation      = BLYP ( 1  3  1  3 0 0)
     nstep                     =         5000


     celldm(1)=  20.000000  celldm(2)=   0.000000  celldm(3)=   0.000000
     celldm(4)=   0.000000  celldm(5)=   0.000000  celldm(6)=   0.000000

     crystal axes: (cart. coord. in units of alat)
               a(1) = (   1.000000   0.000000   0.000000 )  
               a(2) = (   0.000000   1.000000   0.000000 )  
               a(3) = (   0.000000   0.000000   1.000000 )  

     reciprocal axes: (cart. coord. in units 2 pi/alat)
               b(1) = (  1.000000  0.000000  0.000000 )  
               b(2) = (  0.000000  1.000000  0.000000 )  
               b(3) = (  0.000000  0.000000  1.000000 )  


     PseudoPot. # 1 for  H read from file:
     ./H.blyp-hgh.UPF
     MD5 check sum: c576e69559cde411e611be972c763230
     Pseudo is Norm-conserving, Zval =  1.0
     Generated in analytical, separable form
     Using radial grid of  929 points,  0 beta functions with: 

     PseudoPot. # 2 for  O read from file:
     ./O.blyp-hgh.UPF
     MD5 check sum: d0b7156309aa9befef28faac7bc56342
     Pseudo is Norm-conserving, Zval =  6.0
     Generated in analytical, separable form
     Using radial grid of 1095 points,  1 beta functions with: 
                l(1) =   0

     atomic species   valence    mass     pseudopotential
        H              1.00     1.01000      H( 1.00)
        O              6.00    16.00000      O( 1.00)

     No symmetry found



   Cartesian axes

     site n.     atom                  positions (alat units)
         1           O   tau(   1) = (  -0.0558750   0.0977186   0.2416599  )
         2           H   tau(   2) = (   0.7586710   0.6026987   0.3921398  )
         3           H   tau(   3) = (   1.0030847   0.1203910   0.1888084  )

     number of k points=     1  Marzari-Vanderbilt smearing, width (Ry)=  0.0250
                       cart. coord. in units 2pi/alat
        k(    1) = (   0.0000000   0.0000000   0.0000000), wk =   2.0000000

     Dense  grid:   177509 G-vectors     FFT dimensions: (  72,  72,  72)

     Estimated max dynamical RAM per process >       6.09Mb

     Estimated total allocated dynamical RAM >     170.64Mb

     Initial potential from superposition of free atoms
     Check: negative starting charge=   -0.348883

     starting charge    7.99998, renormalised to    8.00000

     negative rho (up, down):  3.489E-01 0.000E+00
     Starting wfc are    6 randomized atomic wfcs +    2 random wfc

     total cpu time spent up to now is        0.6 secs

     per-process dynamical memory:    18.8 Mb

     Self-consistent Calculation

     iteration #  1     ecut=    30.00 Ry     beta=0.70
     Davidson diagonalization with overlap
     ethr =  1.00E-02,  avg # of iterations =  8.0

     negative rho (up, down):  9.310E-02 0.000E+00

     total cpu time spent up to now is        0.9 secs

     total energy              =     -31.69161109 Ry
     Harris-Foulkes estimate   =     -32.09951652 Ry
     estimated scf accuracy    <       0.39918633 Ry

     iteration #  2     ecut=    30.00 Ry     beta=0.70
     Davidson diagonalization with overlap
     ethr =  4.99E-03,  avg # of iterations =  2.0

     negative rho (up, down):  7.378E-02 0.000E+00

     total cpu time spent up to now is        1.0 secs

     total energy              =     -31.61935915 Ry
     Harris-Foulkes estimate   =     -32.06643986 Ry
     estimated scf accuracy    <       1.63684478 Ry

     iteration #  3     ecut=    30.00 Ry     beta=0.70
     Davidson diagonalization with overlap
     ethr =  4.99E-03,  avg # of iterations =  1.0

     negative rho (up, down):  3.012E-02 0.000E+00

     total cpu time spent up to now is        1.1 secs

     total energy              =     -31.77775072 Ry
     Harris-Foulkes estimate   =     -31.95944112 Ry
     estimated scf accuracy    <       1.19687225 Ry

     iteration #  4     ecut=    30.00 Ry     beta=0.70
     Davidson diagonalization with overlap
     ethr =  4.99E-03,  avg # of iterations =  1.0

     negative rho (up, down):  1.099E-02 0.000E+00

     total cpu time spent up to now is        1.1 secs

     total energy              =     -31.70829077 Ry
     Harris-Foulkes estimate   =     -31.85527479 Ry
     estimated scf accuracy    <       1.22930507 Ry

     iteration #  5     ecut=    30.00 Ry     beta=0.70
     Davidson diagonalization with overlap
     ethr =  4.99E-03,  avg # of iterations =  1.0

     negative rho (up, down):  1.259E-03 0.000E+00

     total cpu time spent up to now is        1.2 secs

     total energy              =     -31.91912102 Ry
     Harris-Foulkes estimate   =     -31.96199185 Ry
     estimated scf accuracy    <       0.98537389 Ry

     iteration #  6     ecut=    30.00 Ry     beta=0.70
     Davidson diagonalization with overlap
     ethr =  4.99E-03,  avg # of iterations =  1.0

     negative rho (up, down):  7.742E-04 0.000E+00

     total cpu time spent up to now is        1.3 secs

     total energy              =     -31.85651684 Ry
     Harris-Foulkes estimate   =     -31.91954533 Ry
     estimated scf accuracy    <       0.91647915 Ry

     iteration #  7     ecut=    30.00 Ry     beta=0.70
     Davidson diagonalization with overlap
     ethr =  4.99E-03,  avg # of iterations =  1.0

     negative rho (up, down):  1.170E-04 0.000E+00

     total cpu time spent up to now is        1.4 secs

     total energy              =     -31.85623108 Ry
     Harris-Foulkes estimate   =     -31.86665049 Ry
     estimated scf accuracy    <       0.04499471 Ry

     iteration #  8     ecut=    30.00 Ry     beta=0.70
     Davidson diagonalization with overlap
     ethr =  5.62E-04,  avg # of iterations =  1.0

     negative rho (up, down):  4.876E-05 0.000E+00

     total cpu time spent up to now is        1.5 secs

     total energy              =     -31.86513956 Ry
     Harris-Foulkes estimate   =     -31.90491980 Ry
     estimated scf accuracy    <       1.63160878 Ry

     iteration #  9     ecut=    30.00 Ry     beta=0.70
     Davidson diagonalization with overlap
     ethr =  5.62E-04,  avg # of iterations =  1.0

     negative rho (up, down):  1.598E-07 0.000E+00

     total cpu time spent up to now is        1.6 secs

     total energy              =     -31.84868364 Ry
     Harris-Foulkes estimate   =     -31.87120383 Ry
     estimated scf accuracy    <       0.40716254 Ry

     iteration # 10     ecut=    30.00 Ry     beta=0.70
     Davidson diagonalization with overlap
     ethr =  5.62E-04,  avg # of iterations =  1.0

     negative rho (up, down):  4.946E-07 0.000E+00

     total cpu time spent up to now is        1.6 secs

     total energy              =     -31.86770679 Ry
     Harris-Foulkes estimate   =     -31.87268268 Ry
     estimated scf accuracy    <       0.38253992 Ry

     iteration # 11     ecut=    30.00 Ry     beta=0.70
     Davidson diagonalization with overlap
     ethr =  5.62E-04,  avg # of iterations =  1.0

     total cpu time spent up to now is        1.7 secs

     total energy              =     -31.86666396 Ry
     Harris-Foulkes estimate   =     -31.86852197 Ry
     estimated scf accuracy    <       0.16286292 Ry

     iteration # 12     ecut=    30.00 Ry     beta=0.70
     Davidson diagonalization with overlap
     ethr =  5.62E-04,  avg # of iterations =  1.0

     total cpu time spent up to now is        1.8 secs

     total energy              =     -31.86615524 Ry
     Harris-Foulkes estimate   =     -31.86699578 Ry
     estimated scf accuracy    <       0.06503769 Ry

     iteration # 13     ecut=    30.00 Ry     beta=0.70
     Davidson diagonalization with overlap
     ethr =  5.62E-04,  avg # of iterations =  1.0

     negative rho (up, down):  2.735E-08 0.000E+00

     total cpu time spent up to now is        1.9 secs

     total energy              =     -31.86564172 Ry
     Harris-Foulkes estimate   =     -31.86634155 Ry
     estimated scf accuracy    <       0.01942747 Ry

     iteration # 14     ecut=    30.00 Ry     beta=0.70
     Davidson diagonalization with overlap
     ethr =  2.43E-04,  avg # of iterations =  1.0

     negative rho (up, down):  1.464E-08 0.000E+00

     total cpu time spent up to now is        2.0 secs

     total energy              =     -31.86611542 Ry
     Harris-Foulkes estimate   =     -31.86610990 Ry
     estimated scf accuracy    <       0.00254710 Ry

     iteration # 15     ecut=    30.00 Ry     beta=0.70
     Davidson diagonalization with overlap
     ethr =  3.18E-05,  avg # of iterations = 14.0

     total cpu time spent up to now is        2.2 secs

     total energy              =     -31.86622797 Ry
     Harris-Foulkes estimate   =     -31.86611585 Ry
     estimated scf accuracy    <       0.00299036 Ry

     iteration # 16     ecut=    30.00 Ry     beta=0.70
     Davidson diagonalization with overlap
     ethr =  3.18E-05,  avg # of iterations =  1.0

     total cpu time spent up to now is        2.3 secs

     total energy              =     -31.86610307 Ry
     Harris-Foulkes estimate   =     -31.86630660 Ry
     estimated scf accuracy    <       0.01785453 Ry

     iteration # 17     ecut=    30.00 Ry     beta=0.70
     Davidson diagonalization with overlap
     ethr =  3.18E-05,  avg # of iterations =  1.0

     total cpu time spent up to now is        2.4 secs

     total energy              =     -31.86596649 Ry
     Harris-Foulkes estimate   =     -31.86614827 Ry
     estimated scf accuracy    <       0.00544912 Ry

     iteration # 18     ecut=    30.00 Ry     beta=0.70
     Davidson diagonalization with overlap
     ethr =  3.18E-05,  avg # of iterations =  1.0

     total cpu time spent up to now is        2.5 secs

     total energy              =     -31.86607376 Ry
     Harris-Foulkes estimate   =     -31.86608521 Ry
     estimated scf accuracy    <       0.00048889 Ry

     iteration # 19     ecut=    30.00 Ry     beta=0.70
     Davidson diagonalization with overlap
     ethr =  6.11E-06,  avg # of iterations =  1.0

     total cpu time spent up to now is        2.6 secs

     total energy              =     -31.86607820 Ry
     Harris-Foulkes estimate   =     -31.86607872 Ry
     estimated scf accuracy    <       0.00000708 Ry

     iteration # 20     ecut=    30.00 Ry     beta=0.70
     Davidson diagonalization with overlap
     ethr =  8.86E-08,  avg # of iterations =  3.0

     total cpu time spent up to now is        2.6 secs

     total energy              =     -31.86607843 Ry
     Harris-Foulkes estimate   =     -31.86607839 Ry
     estimated scf accuracy    <       0.00000055 Ry

     iteration # 21     ecut=    30.00 Ry     beta=0.70
     Davidson diagonalization with overlap
     ethr =  6.82E-09,  avg # of iterations =  1.0

     total cpu time spent up to now is        2.7 secs

     total energy              =     -31.86607849 Ry
     Harris-Foulkes estimate   =     -31.86607846 Ry
     estimated scf accuracy    <       0.00000068 Ry

     iteration # 22     ecut=    30.00 Ry     beta=0.70
     Davidson diagonalization with overlap
     ethr =  6.82E-09,  avg # of iterations =  1.0

     total cpu time spent up to now is        2.8 secs

     total energy              =     -31.86607848 Ry
     Harris-Foulkes estimate   =     -31.86607849 Ry
     estimated scf accuracy    <       0.00000031 Ry

     iteration # 23     ecut=    30.00 Ry     beta=0.70
     Davidson diagonalization with overlap
     ethr =  3.85E-09,  avg # of iterations =  1.0

     total cpu time spent up to now is        2.9 secs

     total energy              =     -31.86607843 Ry
     Harris-Foulkes estimate   =     -31.86607848 Ry
     estimated scf accuracy    <       0.00000013 Ry

     iteration # 24     ecut=    30.00 Ry     beta=0.70
     Davidson diagonalization with overlap
     ethr =  1.58E-09,  avg # of iterations =  1.0

     total cpu time spent up to now is        3.0 secs

     End of self-consistent calculation

          k = 0.0000 0.0000 0.0000 ( 22119 PWs)   bands (ev):

   -25.9266 -11.0022  -7.1133  -7.1128  -6.9671  -0.4532   0.5181   0.8716

     the Fermi energy is    -6.9405 ev

!    total energy              =     -31.86607838 Ry
     Harris-Foulkes estimate   =     -31.86607843 Ry
     estimated scf accuracy    <          3.3E-09 Ry

     convergence has been achieved in  24 iterations

     Forces acting on atoms (Ry/au):

     atom    1 type  2   force =    -0.37098477   -0.14200528    0.33394739
     atom    2 type  1   force =    -0.00005473   -0.00014325   -0.00075950
     atom    3 type  1   force =     0.37103950    0.14214854   -0.33318789

     Total force =     0.733626     Total SCF correction =     0.000065

     Molecular Dynamics Calculation

     Starting temperature  =  1000.00 K

     temperature is controlled by Andersen thermostat
     Collision frequency = 1.0000/timestep
     mass H                =     1.01
     mass O                =    16.00
     Time step             =   100.00 a.u.,  4.8378 femto-seconds

     Entering Dynamics:    iteration =     1
                           time      =   0.0048 pico-seconds


     Andersen thermostat:    3 collisions

ATOMIC_POSITIONS (bohr)
O       -1.231926785   1.907608512   4.903349715
H       15.126844668  12.196608688   8.054581211
H       21.920970875   3.005992048   2.453068494


     kinetic energy (Ekin) =     0.01815764 Ry
     temperature           =   955.62021600 K 
     Ekin + Etot (const)   =   -31.84792075 Ry

     Linear momentum :   -0.0000000000   -0.0000000000   -0.0000000000

     Writing output data file pwscf.save
     Check: negative starting charge=   -0.348883
     NEW-OLD atomic charge density approx. for the potential
     Check: negative starting charge=   -0.342108

     negative rho (up, down):  2.728E-01 0.000E+00

     total cpu time spent up to now is        4.2 secs

     per-process dynamical memory:    20.4 Mb

     Self-consistent Calculation

     iteration #  1     ecut=    30.00 Ry     beta=0.70
     Davidson diagonalization with overlap
     c_bands:  1 eigenvalues not converged
     ethr =  1.00E-06,  avg # of iterations = 20.0

     negative rho (up, down):  6.726E-02 0.000E+00

     total cpu time spent up to now is        4.5 secs

     total energy              =     -29.75486938 Ry
     Harris-Foulkes estimate   =     -31.91278974 Ry
     estimated scf accuracy    <       2.50918695 Ry

     iteration #  2     ecut=    30.00 Ry     beta=0.70
     Davidson diagonalization with overlap
     ethr =  1.00E-02,  avg # of iterations =  3.0

     negative rho (up, down):  5.066E-02 0.000E+00

     total cpu time spent up to now is        4.6 secs

     total energy              =     -32.02902200 Ry
     Harris-Foulkes estimate   =     -35.41699455 Ry
     estimated scf accuracy    <       8.97986282 Ry

     iteration #  3     ecut=    30.00 Ry     beta=0.70
     Davidson diagonalization with overlap
     ethr =  1.00E-02,  avg # of iterations =  2.0

     negative rho (up, down):  4.376E-02 0.000E+00

     total cpu time spent up to now is        4.7 secs

     total energy              =     -31.84688143 Ry
     Harris-Foulkes estimate   =     -32.31478610 Ry
     estimated scf accuracy    <       3.10796804 Ry

     iteration #  4     ecut=    30.00 Ry     beta=0.70
     Davidson diagonalization with overlap
     ethr =  1.00E-02,  avg # of iterations =  1.0

     negative rho (up, down):  4.154E-02 0.000E+00

     total cpu time spent up to now is        4.8 secs

     total energy              =     -31.81705039 Ry
     Harris-Foulkes estimate   =     -31.86308747 Ry
     estimated scf accuracy    <       1.84146389 Ry

     iteration #  5     ecut=    30.00 Ry     beta=0.70
     Davidson diagonalization with overlap
     ethr =  1.00E-02,  avg # of iterations =  1.0

     negative rho (up, down):  5.614E-03 0.000E+00

     total cpu time spent up to now is        4.9 secs

     total energy              =     -30.84583996 Ry
     Harris-Foulkes estimate   =     -31.81753631 Ry
     estimated scf accuracy    <       1.84736929 Ry

     iteration #  6     ecut=    30.00 Ry     beta=0.70
     Davidson diagonalization with overlap
     ethr =  1.00E-02,  avg # of iterations =  4.0

     negative rho (up, down):  6.186E-03 0.000E+00

     total cpu time spent up to now is        5.0 secs

     total energy              =     -33.22130346 Ry
     Harris-Foulkes estimate   =     -33.20484134 Ry
     estimated scf accuracy    <      11.68185181 Ry

     iteration #  7     ecut=    30.00 Ry     beta=0.70
     Davidson diagonalization with overlap
     ethr =  1.00E-02,  avg # of iterations =  1.0

     negative rho (up, down):  3.556E-02 0.000E+00

     total cpu time spent up to now is        5.1 secs

     total energy              =     -32.92663298 Ry
     Harris-Foulkes estimate   =     -33.22483475 Ry
     estimated scf accuracy    <      11.94550516 Ry

     iteration #  8     ecut=    30.00 Ry     beta=0.70
     Davidson diagonalization with overlap
     ethr =  1.00E-02,  avg # of iterations =  1.0

     negative rho (up, down):  1.039E-02 0.000E+00

     total cpu time spent up to now is        5.2 secs

     total energy              =     -32.42200293 Ry
     Harris-Foulkes estimate   =     -32.96125242 Ry
     estimated scf accuracy    <       6.48193060 Ry

     iteration #  9     ecut=    30.00 Ry     beta=0.70
     Davidson diagonalization with overlap
     ethr =  1.00E-02,  avg # of iterations =  1.0

     negative rho (up, down):  3.787E-03 0.000E+00

     total cpu time spent up to now is        5.3 secs

     total energy              =     -32.32958767 Ry
     Harris-Foulkes estimate   =     -32.48341121 Ry
     estimated scf accuracy    <       3.89924813 Ry

     iteration # 10     ecut=    30.00 Ry     beta=0.70
     Davidson diagonalization with overlap
     ethr =  1.00E-02,  avg # of iterations =  1.0

     negative rho (up, down):  6.071E-03 0.000E+00

     total cpu time spent up to now is        5.5 secs

     total energy              =     -31.36717329 Ry
     Harris-Foulkes estimate   =     -32.33266954 Ry
     estimated scf accuracy    <       3.48649558 Ry

     iteration # 11     ecut=    30.00 Ry     beta=0.70
     Davidson diagonalization with overlap
     ethr =  1.00E-02,  avg # of iterations =  1.0

     negative rho (up, down):  2.717E-03 0.000E+00

     total cpu time spent up to now is        5.6 secs

     total energy              =     -31.51599133 Ry
     Harris-Foulkes estimate   =     -31.71437504 Ry
     estimated scf accuracy    <       1.21562915 Ry

     iteration # 12     ecut=    30.00 Ry     beta=0.70
     Davidson diagonalization with overlap
     ethr =  1.00E-02,  avg # of iterations =  1.0

     negative rho (up, down):  1.309E-03 0.000E+00

     total cpu time spent up to now is        5.7 secs

     total energy              =     -31.71332192 Ry
     Harris-Foulkes estimate   =     -31.71878123 Ry
     estimated scf accuracy    <       1.24860335 Ry

     iteration # 13     ecut=    30.00 Ry     beta=0.70
     Davidson diagonalization with overlap
     ethr =  1.00E-02,  avg # of iterations =  1.0

     negative rho (up, down):  1.673E-03 0.000E+00

     total cpu time spent up to now is        5.7 secs

     total energy              =     -31.68106131 Ry
     Harris-Foulkes estimate   =     -31.71370809 Ry
     estimated scf accuracy    <       1.27277544 Ry

     iteration # 14     ecut=    30.00 Ry     beta=0.70
     Davidson diagonalization with overlap
     ethr =  1.00E-02,  avg # of iterations =  1.0

     negative rho (up, down):  3.208E-06 0.000E+00

     total cpu time spent up to now is        5.8 secs

     total energy              =     -31.75342674 Ry
     Harris-Foulkes estimate   =     -31.68080520 Ry
     estimated scf accuracy    <       1.31832591 Ry

     iteration # 15     ecut=    30.00 Ry     beta=0.70
     Davidson diagonalization with overlap
     ethr =  1.00E-02,  avg # of iterations =  1.0

     total cpu time spent up to now is        5.9 secs

     total energy              =     -31.73563788 Ry
     Harris-Foulkes estimate   =     -31.75184067 Ry
     estimated scf accuracy    <       1.38342167 Ry

     iteration # 16     ecut=    30.00 Ry     beta=0.70
     Davidson diagonalization with overlap
     ethr =  1.00E-02,  avg # of iterations =  1.0

     total cpu time spent up to now is        6.0 secs

     total energy              =     -31.71020027 Ry
     Harris-Foulkes estimate   =     -31.73566146 Ry
     estimated scf accuracy    <       1.35789638 Ry

     iteration # 17     ecut=    30.00 Ry     beta=0.70
     Davidson diagonalization with overlap
     ethr =  1.00E-02,  avg # of iterations =  1.0

     negative rho (up, down):  3.617E-05 0.000E+00

     total cpu time spent up to now is        6.1 secs

     total energy              =     -31.70960144 Ry
     Harris-Foulkes estimate   =     -31.71026250 Ry
     estimated scf accuracy    <       1.31646746 Ry

     iteration # 18     ecut=    30.00 Ry     beta=0.70
     Davidson diagonalization with overlap
     ethr =  1.00E-02,  avg # of iterations =  1.0

     negative rho (up, down):  6.210E-04 0.000E+00

     total cpu time spent up to now is        6.2 secs

     total energy              =     -31.70086149 Ry
     Harris-Foulkes estimate   =     -31.70963498 Ry
     estimated scf accuracy    <       1.30873743 Ry

     iteration # 19     ecut=    30.00 Ry     beta=0.70
     Davidson diagonalization with overlap
     ethr =  1.00E-02,  avg # of iterations =  1.0

     negative rho (up, down):  1.518E-03 0.000E+00

     total cpu time spent up to now is        6.2 secs

     total energy              =     -31.66710633 Ry
     Harris-Foulkes estimate   =     -31.70087548 Ry
     estimated scf accuracy    <       1.29456836 Ry

     iteration # 20     ecut=    30.00 Ry     beta=0.70
     Davidson diagonalization with overlap
     ethr =  1.00E-02,  avg # of iterations =  1.0

     negative rho (up, down):  1.052E-02 0.000E+00

     total cpu time spent up to now is        6.3 secs

     total energy              =     -31.77527491 Ry
     Harris-Foulkes estimate   =     -31.66592629 Ry
     estimated scf accuracy    <       1.54505609 Ry

     iteration # 21     ecut=    30.00 Ry     beta=0.70
     Davidson diagonalization with overlap
     ethr =  1.00E-02,  avg # of iterations =  1.0

     negative rho (up, down):  1.319E-02 0.000E+00

     total cpu time spent up to now is        6.4 secs

     total energy              =     -31.71434697 Ry
     Harris-Foulkes estimate   =     -31.76636375 Ry
     estimated scf accuracy    <       1.44743157 Ry

     iteration # 22     ecut=    30.00 Ry     beta=0.70
     Davidson diagonalization with overlap
     ethr =  1.00E-02,  avg # of iterations =  1.0

     negative rho (up, down):  1.458E-02 0.000E+00

     total cpu time spent up to now is        6.5 secs

     total energy              =     -32.08793078 Ry
     Harris-Foulkes estimate   =     -31.71453866 Ry
     estimated scf accuracy    <       1.36278537 Ry

     iteration # 23     ecut=    30.00 Ry     beta=0.70
     Davidson diagonalization with overlap
     ethr =  1.00E-02,  avg # of iterations =  1.0

     negative rho (up, down):  2.875E-02 0.000E+00

     total cpu time spent up to now is        6.6 secs

     total energy              =     -30.75723732 Ry
     Harris-Foulkes estimate   =     -32.09921271 Ry
     estimated scf accuracy    <       2.10643764 Ry

     iteration # 24     ecut=    30.00 Ry     beta=0.70
     Davidson diagonalization with overlap
     ethr =  1.00E-02,  avg # of iterations =  2.0

     negative rho (up, down):  1.464E-02 0.000E+00

     total cpu time spent up to now is        6.7 secs

     total energy              =     -32.81599773 Ry
     Harris-Foulkes estimate   =     -33.07131517 Ry
     estimated scf accuracy    <       3.33139664 Ry

     iteration # 25     ecut=    30.00 Ry     beta=0.70
     Davidson diagonalization with overlap
     ethr =  1.00E-02,  avg # of iterations =  1.0

     negative rho (up, down):  3.658E-03 0.000E+00

     total cpu time spent up to now is        6.8 secs

     total energy              =     -32.37445244 Ry
     Harris-Foulkes estimate   =     -32.81781323 Ry
     estimated scf accuracy    <       2.88842499 Ry

     iteration # 26     ecut=    30.00 Ry     beta=0.70
     Davidson diagonalization with overlap
     ethr =  1.00E-02,  avg # of iterations =  1.0

     negative rho (up, down):  6.764E-05 0.000E+00

     total cpu time spent up to now is        6.9 secs

     total energy              =     -31.59349394 Ry
     Harris-Foulkes estimate   =     -32.37890814 Ry
     estimated scf accuracy    <       2.14534763 Ry

     iteration # 27     ecut=    30.00 Ry     beta=0.70
     Davidson diagonalization with overlap
     ethr =  1.00E-02,  avg # of iterations =  1.0

     negative rho (up, down):  1.508E-06 0.000E+00

     total cpu time spent up to now is        7.0 secs

     total energy              =     -31.63649285 Ry
     Harris-Foulkes estimate   =     -31.62055073 Ry
     estimated scf accuracy    <       0.21733047 Ry

     iteration # 28     ecut=    30.00 Ry     beta=0.70
     Davidson diagonalization with overlap
     ethr =  2.72E-03,  avg # of iterations =  2.0

     negative rho (up, down):  7.198E-05 0.000E+00

     total cpu time spent up to now is        7.1 secs

     total energy              =     -31.57750619 Ry
     Harris-Foulkes estimate   =     -31.64715799 Ry
     estimated scf accuracy    <       0.84620723 Ry

     iteration # 29     ecut=    30.00 Ry     beta=0.70
     Davidson diagonalization with overlap
     ethr =  2.72E-03,  avg # of iterations =  1.0

     negative rho (up, down):  3.174E-05 0.000E+00

     total cpu time spent up to now is        7.2 secs

     total energy              =     -31.51053016 Ry
     Harris-Foulkes estimate   =     -31.64844694 Ry
     estimated scf accuracy    <       1.48394123 Ry

     iteration # 30     ecut=    30.00 Ry     beta=0.70
     Davidson diagonalization with overlap
     ethr =  2.72E-03,  avg # of iterations =  1.0

     negative rho (up, down):  6.427E-05 0.000E+00

     total cpu time spent up to now is        7.3 secs

     total energy              =     -31.70121802 Ry
     Harris-Foulkes estimate   =     -31.68597715 Ry
     estimated scf accuracy    <       0.99294261 Ry

     iteration # 31     ecut=    30.00 Ry     beta=0.70
     Davidson diagonalization with overlap
     ethr =  2.72E-03,  avg # of iterations =  1.0

     negative rho (up, down):  5.855E-05 0.000E+00

     total cpu time spent up to now is        7.4 secs

     total energy              =     -31.61615110 Ry
     Harris-Foulkes estimate   =     -31.70128843 Ry
     estimated scf accuracy    <       1.02302723 Ry

     iteration # 32     ecut=    30.00 Ry     beta=0.70
     Davidson diagonalization with overlap
     ethr =  2.72E-03,  avg # of iterations =  1.0

     negative rho (up, down):  3.715E-05 0.000E+00

     total cpu time spent up to now is        7.5 secs

     total energy              =     -31.63968121 Ry
     Harris-Foulkes estimate   =     -31.62473851 Ry
     estimated scf accuracy    <       0.10525614 Ry

     iteration # 33     ecut=    30.00 Ry     beta=0.70
     Davidson diagonalization with overlap
     ethr =  1.32E-03,  avg # of iterations =  1.0

     negative rho (up, down):  4.238E-05 0.000E+00

     total cpu time spent up to now is        7.6 secs

     total energy              =     -31.65203543 Ry
     Harris-Foulkes estimate   =     -31.65841928 Ry
     estimated scf accuracy    <       0.93545337 Ry

     iteration # 34     ecut=    30.00 Ry     beta=0.70
     Davidson diagonalization with overlap
     ethr =  1.32E-03,  avg # of iterations =  1.0

     negative rho (up, down):  1.115E-04 0.000E+00

     total cpu time spent up to now is        7.7 secs

     total energy              =     -31.60384830 Ry
     Harris-Foulkes estimate   =     -31.65206990 Ry
     estimated scf accuracy    <       0.90511854 Ry

     iteration # 35     ecut=    30.00 Ry     beta=0.70
     Davidson diagonalization with overlap
     ethr =  1.32E-03,  avg # of iterations =  1.0

     negative rho (up, down):  8.487E-05 0.000E+00

     total cpu time spent up to now is        7.7 secs

     total energy              =     -31.62782564 Ry
     Harris-Foulkes estimate   =     -31.62381732 Ry
     estimated scf accuracy    <       0.04819617 Ry

     iteration # 36     ecut=    30.00 Ry     beta=0.70
     Davidson diagonalization with overlap
     ethr =  6.02E-04,  avg # of iterations =  1.0

     negative rho (up, down):  1.121E-07 0.000E+00

     total cpu time spent up to now is        7.8 secs

     total energy              =     -31.56589763 Ry
     Harris-Foulkes estimate   =     -31.63405109 Ry
     estimated scf accuracy    <       0.81627947 Ry

     iteration # 37     ecut=    30.00 Ry     beta=0.70
     Davidson diagonalization with overlap
     ethr =  6.02E-04,  avg # of iterations =  1.0

     total cpu time spent up to now is        7.9 secs

     total energy              =     -31.62749565 Ry
     Harris-Foulkes estimate   =     -31.66007720 Ry
     estimated scf accuracy    <       0.94419726 Ry

     iteration # 38     ecut=    30.00 Ry     beta=0.70
     Davidson diagonalization with overlap
     ethr =  6.02E-04,  avg # of iterations =  1.0

     total cpu time spent up to now is        8.0 secs

     total energy              =     -31.62239910 Ry
     Harris-Foulkes estimate   =     -31.63042377 Ry
     estimated scf accuracy    <       0.42354808 Ry

     iteration # 39     ecut=    30.00 Ry     beta=0.70
     Davidson diagonalization with overlap
     ethr =  6.02E-04,  avg # of iterations =  1.0

     total cpu time spent up to now is        8.1 secs

     total energy              =     -31.62485714 Ry
     Harris-Foulkes estimate   =     -31.62440860 Ry
     estimated scf accuracy    <       0.08738878 Ry

     iteration # 40     ecut=    30.00 Ry     beta=0.70
     Davidson diagonalization with overlap
     ethr =  6.02E-04,  avg # of iterations =  1.0

     total cpu time spent up to now is        8.2 secs

     total energy              =     -31.62416056 Ry
     Harris-Foulkes estimate   =     -31.62489566 Ry
     estimated scf accuracy    <       0.11990259 Ry

     iteration # 41     ecut=    30.00 Ry     beta=0.70
     Davidson diagonalization with overlap
     ethr =  6.02E-04,  avg # of iterations =  1.0

     total cpu time spent up to now is        8.3 secs

     total energy              =     -31.62332186 Ry
     Harris-Foulkes estimate   =     -31.62423379 Ry
     estimated scf accuracy    <       0.07576168 Ry

     iteration # 42     ecut=    30.00 Ry     beta=0.70
     Davidson diagonalization with overlap
     ethr =  6.02E-04,  avg # of iterations =  1.0

     total cpu time spent up to now is        8.4 secs

     total energy              =     -31.62364120 Ry
     Harris-Foulkes estimate   =     -31.62351102 Ry
     estimated scf accuracy    <       0.02492501 Ry

     iteration # 43     ecut=    30.00 Ry     beta=0.70
     Davidson diagonalization with overlap
     ethr =  3.12E-04,  avg # of iterations =  1.0

     total cpu time spent up to now is        8.5 secs

     total energy              =     -31.62295161 Ry
     Harris-Foulkes estimate   =     -31.62365322 Ry
     estimated scf accuracy    <       0.03516105 Ry

     iteration # 44     ecut=    30.00 Ry     beta=0.70
     Davidson diagonalization with overlap
     ethr =  3.12E-04,  avg # of iterations =  1.0

     total cpu time spent up to now is        8.6 secs

     total energy              =     -31.62316408 Ry
     Harris-Foulkes estimate   =     -31.62320713 Ry
     estimated scf accuracy    <       0.00229544 Ry

     iteration # 45     ecut=    30.00 Ry     beta=0.70
     Davidson diagonalization with overlap
     ethr =  2.87E-05,  avg # of iterations =  9.0

     total cpu time spent up to now is        8.7 secs

     total energy              =     -31.62317524 Ry
     Harris-Foulkes estimate   =     -31.62317972 Ry
     estimated scf accuracy    <       0.00016895 Ry

     iteration # 46     ecut=    30.00 Ry     beta=0.70
     Davidson diagonalization with overlap
     ethr =  2.11E-06,  avg # of iterations = 18.0

     total cpu time spent up to now is        8.9 secs

     total energy              =     -31.62317757 Ry
     Harris-Foulkes estimate   =     -31.62317757 Ry
     estimated scf accuracy    <       0.00000029 Ry

     iteration # 47     ecut=    30.00 Ry     beta=0.70
     Davidson diagonalization with overlap
     ethr =  3.64E-09,  avg # of iterations =  2.0

     total cpu time spent up to now is        8.9 secs

     total energy              =     -31.62317633 Ry
     Harris-Foulkes estimate   =     -31.62317819 Ry
     estimated scf accuracy    <       0.00005603 Ry

     iteration # 48     ecut=    30.00 Ry     beta=0.70
     Davidson diagonalization with overlap
     ethr =  3.64E-09,  avg # of iterations =  2.0

     total cpu time spent up to now is        9.0 secs

     total energy              =     -31.62317727 Ry
     Harris-Foulkes estimate   =     -31.62317730 Ry
     estimated scf accuracy    <       0.00000152 Ry

     iteration # 49     ecut=    30.00 Ry     beta=0.70
     Davidson diagonalization with overlap
     ethr =  3.64E-09,  avg # of iterations =  1.0

     total cpu time spent up to now is        9.0 secs

     total energy              =     -31.62317732 Ry
     Harris-Foulkes estimate   =     -31.62317730 Ry
     estimated scf accuracy    <       0.00000006 Ry

     iteration # 50     ecut=    30.00 Ry     beta=0.70
     Davidson diagonalization with overlap
     ethr =  7.84E-10,  avg # of iterations =  1.0

     total cpu time spent up to now is        9.1 secs

     total energy              =     -31.62317736 Ry
     Harris-Foulkes estimate   =     -31.62317733 Ry
     estimated scf accuracy    <       0.00000051 Ry

     iteration # 51     ecut=    30.00 Ry     beta=0.70
     Davidson diagonalization with overlap
     ethr =  7.84E-10,  avg # of iterations =  1.0

     total cpu time spent up to now is        9.1 secs

     total energy              =     -31.62317741 Ry
     Harris-Foulkes estimate   =     -31.62317736 Ry
     estimated scf accuracy    <       0.00000004 Ry

     iteration # 52     ecut=    30.00 Ry     beta=0.70
     Davidson diagonalization with overlap
     ethr =  5.31E-10,  avg # of iterations =  1.0

     total cpu time spent up to now is        9.2 secs

     total energy              =     -31.62317741 Ry
     Harris-Foulkes estimate   =     -31.62317741 Ry
     estimated scf accuracy    <       0.00000003 Ry

     iteration # 53     ecut=    30.00 Ry     beta=0.70
     Davidson diagonalization with overlap
     ethr =  3.44E-10,  avg # of iterations =  1.0

     total cpu time spent up to now is        9.2 secs

     End of self-consistent calculation

          k = 0.0000 0.0000 0.0000 ( 22119 PWs)   bands (ev):

   -23.5553  -8.0664  -6.8806  -6.8805  -6.7435  -5.7463  -0.1311   0.7841

     the Fermi energy is    -6.7110 ev

!    total energy              =     -31.62317744 Ry
     Harris-Foulkes estimate   =     -31.62317741 Ry
     estimated scf accuracy    <          2.4E-10 Ry

     convergence has been achieved in  53 iterations

     Forces acting on atoms (Ry/au):

     atom    1 type  2   force =     0.07589015    0.02594912   -0.05907500
     atom    2 type  1   force =     0.00014370    0.00027798    0.00013324
     atom    3 type  1   force =    -0.07603384   -0.02622710    0.05894176

     Total force =     0.140946     Total SCF correction =     0.000015

     Entering Dynamics:    iteration =     2
                           time      =   0.0097 pico-seconds


     Andersen thermostat:    3 collisions

ATOMIC_POSITIONS (bohr)
O       -1.202401521   1.924603501   4.856350565
H       15.555247622  12.044389820   8.374693634
H       21.024840976   2.888983367   2.877497062


     kinetic energy (Ekin) =     0.03197637 Ry
     temperature           =  1682.88806542 K 
     Ekin + Etot (const)   =   -31.59120106 Ry
     Message from routine dynamics:
     Total linear momentum <> 0

     Linear momentum :   -0.1521914361    0.4793476698   -0.4832096412

     Writing output data file pwscf.save

     first order wave-functions extrapolation
     Check: negative starting charge=   -0.342108
     first order charge density extrapolation
     Check: negative starting charge=   -0.343888

     negative rho (up, down):  4.887E-01 0.000E+00

     total cpu time spent up to now is        9.7 secs

     per-process dynamical memory:    20.4 Mb

     Self-consistent Calculation

     iteration #  1     ecut=    30.00 Ry     beta=0.70
     Davidson diagonalization with overlap
     ethr =  1.00E-06,  avg # of iterations = 19.0

     negative rho (up, down):  9.472E-02 0.000E+00

     total cpu time spent up to now is        9.9 secs

     total energy              =      43.73991650 Ry
     Harris-Foulkes estimate   =    -266.52387280 Ry
     estimated scf accuracy    <      24.13861065 Ry

     iteration #  2     ecut=    30.00 Ry     beta=0.70
     Davidson diagonalization with overlap
     ethr =  1.00E-02,  avg # of iterations =  5.0

     negative rho (up, down):  6.045E-02 0.000E+00

     total cpu time spent up to now is       10.0 secs

     total energy              =     -34.37597260 Ry
     Harris-Foulkes estimate   =     -46.34749031 Ry
     estimated scf accuracy    <      23.30422458 Ry

     iteration #  3     ecut=    30.00 Ry     beta=0.70
     Davidson diagonalization with overlap
     ethr =  1.00E-02,  avg # of iterations =  3.0

     negative rho (up, down):  4.838E-02 0.000E+00

     total cpu time spent up to now is       10.1 secs

     total energy              =     -34.21181385 Ry
     Harris-Foulkes estimate   =     -36.45761279 Ry
     estimated scf accuracy    <       8.24486122 Ry

     iteration #  4     ecut=    30.00 Ry     beta=0.70
     Davidson diagonalization with overlap
     ethr =  1.00E-02,  avg # of iterations =  2.0

     negative rho (up, down):  3.263E-02 0.000E+00

     total cpu time spent up to now is       10.1 secs

     total energy              =     -32.34807309 Ry
     Harris-Foulkes estimate   =     -34.42583287 Ry
     estimated scf accuracy    <       6.33340856 Ry

     iteration #  5     ecut=    30.00 Ry     beta=0.70
     Davidson diagonalization with overlap
     ethr =  1.00E-02,  avg # of iterations =  2.0

     negative rho (up, down):  2.813E-02 0.000E+00

     total cpu time spent up to now is       10.2 secs

     total energy              =     -32.43804722 Ry
     Harris-Foulkes estimate   =     -32.82519027 Ry
     estimated scf accuracy    <       3.05354731 Ry

     iteration #  6     ecut=    30.00 Ry     beta=0.70
     Davidson diagonalization with overlap
     ethr =  1.00E-02,  avg # of iterations =  1.0

     negative rho (up, down):  2.737E-02 0.000E+00

     total cpu time spent up to now is       10.2 secs

     total energy              =     -32.40813130 Ry
     Harris-Foulkes estimate   =     -32.44640616 Ry
     estimated scf accuracy    <       2.34746685 Ry

     iteration #  7     ecut=    30.00 Ry     beta=0.70
     Davidson diagonalization with overlap
     ethr =  1.00E-02,  avg # of iterations =  1.0

     negative rho (up, down):  1.027E-02 0.000E+00

     total cpu time spent up to now is       10.3 secs

     total energy              =     -31.31226625 Ry
     Harris-Foulkes estimate   =     -32.40911009 Ry
     estimated scf accuracy    <       2.34666279 Ry

     iteration #  8     ecut=    30.00 Ry     beta=0.70
     Davidson diagonalization with overlap
     ethr =  1.00E-02,  avg # of iterations =  5.0

     negative rho (up, down):  1.058E-02 0.000E+00

     total cpu time spent up to now is       10.4 secs

     total energy              =     -32.08792360 Ry
     Harris-Foulkes estimate   =     -32.24833367 Ry
     estimated scf accuracy    <       2.06553726 Ry

     iteration #  9     ecut=    30.00 Ry     beta=0.70
     Davidson diagonalization with overlap
     ethr =  1.00E-02,  avg # of iterations =  1.0

     negative rho (up, down):  9.869E-03 0.000E+00

     total cpu time spent up to now is       10.4 secs

     total energy              =     -31.78887860 Ry
     Harris-Foulkes estimate   =     -32.08085085 Ry
     estimated scf accuracy    <       1.84156321 Ry

     iteration # 10     ecut=    30.00 Ry     beta=0.70
     Davidson diagonalization with overlap
     ethr =  1.00E-02,  avg # of iterations =  1.0

     negative rho (up, down):  3.235E-04 0.000E+00

     total cpu time spent up to now is       10.4 secs

     total energy              =     -31.80488940 Ry
     Harris-Foulkes estimate   =     -31.79535622 Ry
     estimated scf accuracy    <       1.15260594 Ry

     iteration # 11     ecut=    30.00 Ry     beta=0.70
     Davidson diagonalization with overlap
     ethr =  1.00E-02,  avg # of iterations =  2.0

     negative rho (up, down):  9.548E-06 0.000E+00

     total cpu time spent up to now is       10.5 secs

     total energy              =     -31.88673647 Ry
     Harris-Foulkes estimate   =     -32.01537920 Ry
     estimated scf accuracy    <       1.40456336 Ry

     iteration # 12     ecut=    30.00 Ry     beta=0.70
     Davidson diagonalization with overlap
     ethr =  1.00E-02,  avg # of iterations =  1.0

     negative rho (up, down):  1.386E-05 0.000E+00

     total cpu time spent up to now is       10.5 secs

     total energy              =     -32.47883697 Ry
     Harris-Foulkes estimate   =     -31.93093099 Ry
     estimated scf accuracy    <       1.78010080 Ry

     iteration # 13     ecut=    30.00 Ry     beta=0.70
     Davidson diagonalization with overlap
     ethr =  1.00E-02,  avg # of iterations =  2.0

     negative rho (up, down):  4.291E-05 0.000E+00

     total cpu time spent up to now is       10.6 secs

     total energy              =     -32.91210074 Ry
     Harris-Foulkes estimate   =     -32.71306697 Ry
     estimated scf accuracy    <       3.64594439 Ry

     iteration # 14     ecut=    30.00 Ry     beta=0.70
     Davidson diagonalization with overlap
     ethr =  1.00E-02,  avg # of iterations =  1.0

     negative rho (up, down):  1.161E-05 0.000E+00

     total cpu time spent up to now is       10.6 secs

     total energy              =     -32.77360426 Ry
     Harris-Foulkes estimate   =     -32.92733826 Ry
     estimated scf accuracy    <       3.67536827 Ry

     iteration # 15     ecut=    30.00 Ry     beta=0.70
     Davidson diagonalization with overlap
     ethr =  1.00E-02,  avg # of iterations =  1.0

     negative rho (up, down):  1.279E-02 0.000E+00

     total cpu time spent up to now is       10.7 secs

     total energy              =     -32.52716555 Ry
     Harris-Foulkes estimate   =     -32.77681058 Ry
     estimated scf accuracy    <       3.24455728 Ry

     iteration # 16     ecut=    30.00 Ry     beta=0.70
     Davidson diagonalization with overlap
     ethr =  1.00E-02,  avg # of iterations =  1.0

     negative rho (up, down):  9.311E-06 0.000E+00

     total cpu time spent up to now is       10.7 secs

     total energy              =     -32.39789737 Ry
     Harris-Foulkes estimate   =     -32.54321074 Ry
     estimated scf accuracy    <       2.53607524 Ry

     iteration # 17     ecut=    30.00 Ry     beta=0.70
     Davidson diagonalization with overlap
     ethr =  1.00E-02,  avg # of iterations =  1.0

     negative rho (up, down):  1.691E-03 0.000E+00

     total cpu time spent up to now is       10.8 secs

     total energy              =     -32.25846501 Ry
     Harris-Foulkes estimate   =     -32.40109871 Ry
     estimated scf accuracy    <       2.31751917 Ry

     iteration # 18     ecut=    30.00 Ry     beta=0.70
     Davidson diagonalization with overlap
     ethr =  1.00E-02,  avg # of iterations =  1.0

     negative rho (up, down):  1.047E-02 0.000E+00

     total cpu time spent up to now is       10.9 secs

     total energy              =     -32.05489249 Ry
     Harris-Foulkes estimate   =     -32.26038268 Ry
     estimated scf accuracy    <       2.03352964 Ry

     iteration # 19     ecut=    30.00 Ry     beta=0.70
     Davidson diagonalization with overlap
     ethr =  1.00E-02,  avg # of iterations =  1.0

     negative rho (up, down):  5.815E-03 0.000E+00

     total cpu time spent up to now is       10.9 secs

     total energy              =     -32.04275236 Ry
     Harris-Foulkes estimate   =     -32.05805829 Ry
     estimated scf accuracy    <       1.66208410 Ry

     iteration # 20     ecut=    30.00 Ry     beta=0.70
     Davidson diagonalization with overlap
     ethr =  1.00E-02,  avg # of iterations =  1.0

     negative rho (up, down):  9.604E-03 0.000E+00

     total cpu time spent up to now is       11.0 secs

     total energy              =     -31.00596321 Ry
     Harris-Foulkes estimate   =     -32.04306064 Ry
     estimated scf accuracy    <       1.62268999 Ry

     iteration # 21     ecut=    30.00 Ry     beta=0.70
     Davidson diagonalization with overlap
     ethr =  1.00E-02,  avg # of iterations =  2.0

     negative rho (up, down):  9.774E-05 0.000E+00

     total cpu time spent up to now is       11.0 secs

     total energy              =     -32.13205186 Ry
     Harris-Foulkes estimate   =     -32.94895630 Ry
     estimated scf accuracy    <       2.72438942 Ry

     iteration # 22     ecut=    30.00 Ry     beta=0.70
     Davidson diagonalization with overlap
     ethr =  1.00E-02,  avg # of iterations =  1.0

     negative rho (up, down):  1.879E-07 0.000E+00

     total cpu time spent up to now is       11.1 secs

     total energy              =     -31.85139393 Ry
     Harris-Foulkes estimate   =     -32.14186176 Ry
     estimated scf accuracy    <       1.48445247 Ry

     iteration # 23     ecut=    30.00 Ry     beta=0.70
     Davidson diagonalization with overlap
     ethr =  1.00E-02,  avg # of iterations =  1.0

     negative rho (up, down):  5.077E-07 0.000E+00

     total cpu time spent up to now is       11.1 secs

     total energy              =     -31.56153648 Ry
     Harris-Foulkes estimate   =     -31.85602614 Ry
     estimated scf accuracy    <       1.02147300 Ry

     iteration # 24     ecut=    30.00 Ry     beta=0.70
     Davidson diagonalization with overlap
     ethr =  1.00E-02,  avg # of iterations =  1.0

     negative rho (up, down):  4.699E-08 0.000E+00

     total cpu time spent up to now is       11.2 secs

     total energy              =     -31.81340572 Ry
     Harris-Foulkes estimate   =     -32.00633477 Ry
     estimated scf accuracy    <       1.54498913 Ry

     iteration # 25     ecut=    30.00 Ry     beta=0.70
     Davidson diagonalization with overlap
     ethr =  1.00E-02,  avg # of iterations =  1.0

     negative rho (up, down):  3.481E-08 0.000E+00

     total cpu time spent up to now is       11.2 secs

     total energy              =     -31.75330294 Ry
     Harris-Foulkes estimate   =     -31.81551406 Ry
     estimated scf accuracy    <       1.44042180 Ry

     iteration # 26     ecut=    30.00 Ry     beta=0.70
     Davidson diagonalization with overlap
     ethr =  1.00E-02,  avg # of iterations =  1.0

     negative rho (up, down):  2.868E-08 0.000E+00

     total cpu time spent up to now is       11.3 secs

     total energy              =     -31.75818143 Ry
     Harris-Foulkes estimate   =     -31.76594692 Ry
     estimated scf accuracy    <       0.02878030 Ry

     iteration # 27     ecut=    30.00 Ry     beta=0.70
     Davidson diagonalization with overlap
     ethr =  3.60E-04,  avg # of iterations =  1.0

     total cpu time spent up to now is       11.3 secs

     total energy              =     -31.72175862 Ry
     Harris-Foulkes estimate   =     -31.79505040 Ry
     estimated scf accuracy    <       0.90542126 Ry

     iteration # 28     ecut=    30.00 Ry     beta=0.70
     Davidson diagonalization with overlap
     ethr =  3.60E-04,  avg # of iterations =  1.0

     total cpu time spent up to now is       11.4 secs

     total energy              =     -31.72522954 Ry
     Harris-Foulkes estimate   =     -31.78553761 Ry
     estimated scf accuracy    <       1.29294916 Ry

     iteration # 29     ecut=    30.00 Ry     beta=0.70
     Davidson diagonalization with overlap
     ethr =  3.60E-04,  avg # of iterations =  1.0

     total cpu time spent up to now is       11.4 secs

     total energy              =     -31.76073787 Ry
     Harris-Foulkes estimate   =     -31.77342439 Ry
     estimated scf accuracy    <       0.44594361 Ry

     iteration # 30     ecut=    30.00 Ry     beta=0.70
     Davidson diagonalization with overlap
     ethr =  3.60E-04,  avg # of iterations =  1.0

     total cpu time spent up to now is       11.4 secs

     total energy              =     -31.76512981 Ry
     Harris-Foulkes estimate   =     -31.76569932 Ry
     estimated scf accuracy    <       0.00777744 Ry

     iteration # 31     ecut=    30.00 Ry     beta=0.70
     Davidson diagonalization with overlap
     ethr =  9.72E-05,  avg # of iterations =  1.0

     total cpu time spent up to now is       11.5 secs

     total energy              =     -31.76398199 Ry
     Harris-Foulkes estimate   =     -31.76596037 Ry
     estimated scf accuracy    <       0.02856370 Ry

     iteration # 32     ecut=    30.00 Ry     beta=0.70
     Davidson diagonalization with overlap
     ethr =  9.72E-05,  avg # of iterations =  1.0

     total cpu time spent up to now is       11.5 secs

     total energy              =     -31.76537139 Ry
     Harris-Foulkes estimate   =     -31.76669003 Ry
     estimated scf accuracy    <       0.07782910 Ry

     iteration # 33     ecut=    30.00 Ry     beta=0.70
     Davidson diagonalization with overlap
     ethr =  9.72E-05,  avg # of iterations =  1.0

     total cpu time spent up to now is       11.6 secs

     total energy              =     -31.76572733 Ry
     Harris-Foulkes estimate   =     -31.76575906 Ry
     estimated scf accuracy    <       0.01219446 Ry

     iteration # 34     ecut=    30.00 Ry     beta=0.70
     Davidson diagonalization with overlap
     ethr =  9.72E-05,  avg # of iterations =  1.0

     total cpu time spent up to now is       11.6 secs

     total energy              =     -31.76566361 Ry
     Harris-Foulkes estimate   =     -31.76572895 Ry
     estimated scf accuracy    <       0.00993181 Ry

     iteration # 35     ecut=    30.00 Ry     beta=0.70
     Davidson diagonalization with overlap
     ethr =  9.72E-05,  avg # of iterations =  1.0

     total cpu time spent up to now is       11.7 secs

     total energy              =     -31.76554845 Ry
     Harris-Foulkes estimate   =     -31.76567159 Ry
     estimated scf accuracy    <       0.00563284 Ry

     iteration # 36     ecut=    30.00 Ry     beta=0.70
     Davidson diagonalization with overlap
     ethr =  7.04E-05,  avg # of iterations =  1.0

     total cpu time spent up to now is       11.7 secs

     total energy              =     -31.76559799 Ry
     Harris-Foulkes estimate   =     -31.76559956 Ry
     estimated scf accuracy    <       0.00014801 Ry

     iteration # 37     ecut=    30.00 Ry     beta=0.70
     Davidson diagonalization with overlap
     c_bands:  1 eigenvalues not converged
     ethr =  1.85E-06,  avg # of iterations = 20.0

     total cpu time spent up to now is       11.8 secs

     total energy              =     -31.76559859 Ry
     Harris-Foulkes estimate   =     -31.76559839 Ry
     estimated scf accuracy    <       0.00004463 Ry

     iteration # 38     ecut=    30.00 Ry     beta=0.70
     Davidson diagonalization with overlap
     ethr =  5.58E-07,  avg # of iterations =  1.0

     total cpu time spent up to now is       11.9 secs

     total energy              =     -31.76559713 Ry
     Harris-Foulkes estimate   =     -31.76559864 Ry
     estimated scf accuracy    <       0.00007387 Ry

     iteration # 39     ecut=    30.00 Ry     beta=0.70
     Davidson diagonalization with overlap
     ethr =  5.58E-07,  avg # of iterations =  1.0

     total cpu time spent up to now is       11.9 secs

     total energy              =     -31.76559800 Ry
     Harris-Foulkes estimate   =     -31.76559791 Ry
     estimated scf accuracy    <       0.00000060 Ry

     iteration # 40     ecut=    30.00 Ry     beta=0.70
     Davidson diagonalization with overlap
     ethr =  7.53E-09,  avg # of iterations =  1.0

     total cpu time spent up to now is       12.0 secs

     total energy              =     -31.76559805 Ry
     Harris-Foulkes estimate   =     -31.76559800 Ry
     estimated scf accuracy    <       0.00000001 Ry

     iteration # 41     ecut=    30.00 Ry     beta=0.70
     Davidson diagonalization with overlap
     ethr =  1.56E-10,  avg # of iterations =  1.0

     total cpu time spent up to now is       12.0 secs

     total energy              =     -31.76559805 Ry
     Harris-Foulkes estimate   =     -31.76559805 Ry
     estimated scf accuracy    <       0.00000003 Ry

     iteration # 42     ecut=    30.00 Ry     beta=0.70
     Davidson diagonalization with overlap
     ethr =  1.56E-10,  avg # of iterations =  1.0

     total cpu time spent up to now is       12.0 secs

     End of self-consistent calculation

          k = 0.0000 0.0000 0.0000 ( 22119 PWs)   bands (ev):

   -23.6017  -8.9427  -6.8773  -6.8771  -6.7405  -3.8260  -0.0750   0.8218

     the Fermi energy is    -6.7077 ev

!    total energy              =     -31.76559805 Ry
     Harris-Foulkes estimate   =     -31.76559805 Ry
     estimated scf accuracy    <          1.3E-10 Ry

     convergence has been achieved in  42 iterations

     Forces acting on atoms (Ry/au):

     atom    1 type  2   force =     0.12068954    0.05240536   -0.10758358
     atom    2 type  1   force =     0.00031683    0.00008728   -0.00031315
     atom    3 type  1   force =    -0.12100637   -0.05249264    0.10789673

     Total force =     0.240679     Total SCF correction =     0.000002

     Entering Dynamics:    iteration =     3
                           time      =   0.0145 pico-seconds


     Andersen thermostat:    3 collisions

ATOMIC_POSITIONS (bohr)
O       -1.106793079   1.966587296   4.771545880
H       15.614586246  11.548552093   8.353095910
H       19.450913169   2.719731271   4.242535341


     kinetic energy (Ekin) =     0.08586646 Ry
     temperature           =  4519.07500536 K 
     Ekin + Etot (const)   =   -31.67973159 Ry
     Message from routine dynamics:
     Total linear momentum <> 0

     Linear momentum :   -0.3468705923   -0.0576326163    0.3373499520

     Writing output data file pwscf.save

     second order wave-functions extrapolation
     Check: negative starting charge=   -0.343888
     second order charge density extrapolation
     Check: negative starting charge=   -0.350768

     negative rho (up, down):  3.695E-01 0.000E+00

     total cpu time spent up to now is       12.5 secs

     per-process dynamical memory:    20.4 Mb

     Self-consistent Calculation

     iteration #  1     ecut=    30.00 Ry     beta=0.70
     Davidson diagonalization with overlap
     ethr =  1.00E-06,  avg # of iterations =  9.0

     negative rho (up, down):  5.537E-02 0.000E+00

     total cpu time spent up to now is       12.7 secs

     total energy              =      17.36471927 Ry
     Harris-Foulkes estimate   =     -64.41401031 Ry
     estimated scf accuracy    <      17.94317899 Ry

     iteration #  2     ecut=    30.00 Ry     beta=0.70
     Davidson diagonalization with overlap
     ethr =  1.00E-02,  avg # of iterations =  3.0

     negative rho (up, down):  3.418E-02 0.000E+00

     total cpu time spent up to now is       12.8 secs

     total energy              =     -32.43891961 Ry
     Harris-Foulkes estimate   =     -39.94303925 Ry
     estimated scf accuracy    <      14.18122130 Ry

     iteration #  3     ecut=    30.00 Ry     beta=0.70
     Davidson diagonalization with overlap
     ethr =  1.00E-02,  avg # of iterations =  3.0

     negative rho (up, down):  2.808E-02 0.000E+00

     total cpu time spent up to now is       12.8 secs

     total energy              =     -31.88266427 Ry
     Harris-Foulkes estimate   =     -34.45099750 Ry
     estimated scf accuracy    <       6.18960235 Ry

     iteration #  4     ecut=    30.00 Ry     beta=0.70
     Davidson diagonalization with overlap
     ethr =  1.00E-02,  avg # of iterations =  2.0

     negative rho (up, down):  1.780E-02 0.000E+00

     total cpu time spent up to now is       12.9 secs

     total energy              =     -31.35140490 Ry
     Harris-Foulkes estimate   =     -32.74568856 Ry
     estimated scf accuracy    <       4.03778013 Ry

     iteration #  5     ecut=    30.00 Ry     beta=0.70
     Davidson diagonalization with overlap
     ethr =  1.00E-02,  avg # of iterations =  1.0

     negative rho (up, down):  1.566E-02 0.000E+00

     total cpu time spent up to now is       12.9 secs

     total energy              =     -31.28736404 Ry
     Harris-Foulkes estimate   =     -31.51142503 Ry
     estimated scf accuracy    <       2.46885947 Ry

     iteration #  6     ecut=    30.00 Ry     beta=0.70
     Davidson diagonalization with overlap
     ethr =  1.00E-02,  avg # of iterations =  1.0

     negative rho (up, down):  4.460E-03 0.000E+00

     total cpu time spent up to now is       13.0 secs

     total energy              =     -30.69109397 Ry
     Harris-Foulkes estimate   =     -31.33921027 Ry
     estimated scf accuracy    <       1.50300272 Ry

     iteration #  7     ecut=    30.00 Ry     beta=0.70
     Davidson diagonalization with overlap
     ethr =  1.00E-02,  avg # of iterations =  1.0

     negative rho (up, down):  3.224E-03 0.000E+00

     total cpu time spent up to now is       13.0 secs

     total energy              =     -30.96233498 Ry
     Harris-Foulkes estimate   =     -31.02150128 Ry
     estimated scf accuracy    <       1.61692879 Ry

     iteration #  8     ecut=    30.00 Ry     beta=0.70
     Davidson diagonalization with overlap
     ethr =  1.00E-02,  avg # of iterations =  1.0

     negative rho (up, down):  4.940E-04 0.000E+00

     total cpu time spent up to now is       13.1 secs

     total energy              =     -30.85610746 Ry
     Harris-Foulkes estimate   =     -30.96394975 Ry
     estimated scf accuracy    <       1.52453510 Ry

     iteration #  9     ecut=    30.00 Ry     beta=0.70
     Davidson diagonalization with overlap
     ethr =  1.00E-02,  avg # of iterations =  1.0

     negative rho (up, down):  6.673E-05 0.000E+00

     total cpu time spent up to now is       13.1 secs

     total energy              =     -30.72178311 Ry
     Harris-Foulkes estimate   =     -30.85760037 Ry
     estimated scf accuracy    <       1.59775568 Ry

     iteration # 10     ecut=    30.00 Ry     beta=0.70
     Davidson diagonalization with overlap
     ethr =  1.00E-02,  avg # of iterations =  1.0

     negative rho (up, down):  5.011E-08 0.000E+00

     total cpu time spent up to now is       13.2 secs

     total energy              =     -30.88300355 Ry
     Harris-Foulkes estimate   =     -30.85333420 Ry
     estimated scf accuracy    <       0.86856521 Ry

     iteration # 11     ecut=    30.00 Ry     beta=0.70
     Davidson diagonalization with overlap
     ethr =  1.00E-02,  avg # of iterations =  1.0

     total cpu time spent up to now is       13.2 secs

     total energy              =     -30.86853345 Ry
     Harris-Foulkes estimate   =     -30.88317390 Ry
     estimated scf accuracy    <       0.91335800 Ry

     iteration # 12     ecut=    30.00 Ry     beta=0.70
     Davidson diagonalization with overlap
     ethr =  1.00E-02,  avg # of iterations =  1.0

     negative rho (up, down):  2.521E-06 0.000E+00

     total cpu time spent up to now is       13.3 secs

     total energy              =     -30.82030160 Ry
     Harris-Foulkes estimate   =     -30.86856262 Ry
     estimated scf accuracy    <       0.89182715 Ry

     iteration # 13     ecut=    30.00 Ry     beta=0.70
     Davidson diagonalization with overlap
     ethr =  1.00E-02,  avg # of iterations =  1.0

     total cpu time spent up to now is       13.3 secs

     total energy              =     -30.81637697 Ry
     Harris-Foulkes estimate   =     -30.82291427 Ry
     estimated scf accuracy    <       0.44099987 Ry

     iteration # 14     ecut=    30.00 Ry     beta=0.70
     Davidson diagonalization with overlap
     ethr =  5.51E-03,  avg # of iterations =  1.0

     total cpu time spent up to now is       13.4 secs

     total energy              =     -30.80321122 Ry
     Harris-Foulkes estimate   =     -30.81746986 Ry
     estimated scf accuracy    <       0.17759115 Ry

     iteration # 15     ecut=    30.00 Ry     beta=0.70
     Davidson diagonalization with overlap
     ethr =  2.22E-03,  avg # of iterations =  1.0

     total cpu time spent up to now is       13.4 secs

     total energy              =     -30.79798683 Ry
     Harris-Foulkes estimate   =     -30.82463729 Ry
     estimated scf accuracy    <       0.76736620 Ry

     iteration # 16     ecut=    30.00 Ry     beta=0.70
     Davidson diagonalization with overlap
     ethr =  2.22E-03,  avg # of iterations =  1.0

     total cpu time spent up to now is       13.5 secs

     total energy              =     -30.81425157 Ry
     Harris-Foulkes estimate   =     -30.81597907 Ry
     estimated scf accuracy    <       0.08976292 Ry

     iteration # 17     ecut=    30.00 Ry     beta=0.70
     Davidson diagonalization with overlap
     ethr =  1.12E-03,  avg # of iterations =  1.0

     total cpu time spent up to now is       13.5 secs

     total energy              =     -30.81462641 Ry
     Harris-Foulkes estimate   =     -30.81482153 Ry
     estimated scf accuracy    <       0.00939938 Ry

     iteration # 18     ecut=    30.00 Ry     beta=0.70
     Davidson diagonalization with overlap
     ethr =  1.17E-04,  avg # of iterations =  8.0

     total cpu time spent up to now is       13.6 secs

     total energy              =     -30.81469608 Ry
     Harris-Foulkes estimate   =     -30.81470377 Ry
     estimated scf accuracy    <       0.00040562 Ry

     iteration # 19     ecut=    30.00 Ry     beta=0.70
     Davidson diagonalization with overlap
     ethr =  5.07E-06,  avg # of iterations = 13.0

     total cpu time spent up to now is       13.6 secs

     total energy              =     -30.81469247 Ry
     Harris-Foulkes estimate   =     -30.81469740 Ry
     estimated scf accuracy    <       0.00015931 Ry

     iteration # 20     ecut=    30.00 Ry     beta=0.70
     Davidson diagonalization with overlap
     ethr =  1.99E-06,  avg # of iterations =  1.0

     total cpu time spent up to now is       13.7 secs

     total energy              =     -30.81469579 Ry
     Harris-Foulkes estimate   =     -30.81469639 Ry
     estimated scf accuracy    <       0.00002200 Ry

     iteration # 21     ecut=    30.00 Ry     beta=0.70
     Davidson diagonalization with overlap
     ethr =  2.75E-07,  avg # of iterations =  1.0

     total cpu time spent up to now is       13.7 secs

     total energy              =     -30.81469615 Ry
     Harris-Foulkes estimate   =     -30.81469615 Ry
     estimated scf accuracy    <       0.00000034 Ry

     iteration # 22     ecut=    30.00 Ry     beta=0.70
     Davidson diagonalization with overlap
     ethr =  4.27E-09,  avg # of iterations =  1.0

     total cpu time spent up to now is       13.8 secs

     total energy              =     -30.81469617 Ry
     Harris-Foulkes estimate   =     -30.81469615 Ry
     estimated scf accuracy    <       0.00000002 Ry

     iteration # 23     ecut=    30.00 Ry     beta=0.70
     Davidson diagonalization with overlap
     ethr =  3.06E-10,  avg # of iterations =  1.0

     total cpu time spent up to now is       13.8 secs

     End of self-consistent calculation

          k = 0.0000 0.0000 0.0000 ( 22119 PWs)   bands (ev):

   -29.5427 -11.7152  -7.3243  -7.3231  -7.1704  -0.3395   0.5631   0.8321

     the Fermi energy is    -7.1486 ev

!    total energy              =     -30.81469617 Ry
     Harris-Foulkes estimate   =     -30.81469617 Ry
     estimated scf accuracy    <          4.4E-10 Ry

     convergence has been achieved in  23 iterations

     Forces acting on atoms (Ry/au):

     atom    1 type  2   force =    -2.36893705   -3.19732437    2.24958237
     atom    2 type  1   force =     0.00003259   -0.00032536   -0.00121004
     atom    3 type  1   force =     2.36890446    3.19764973   -2.24837233

     Total force =     6.464303     Total SCF correction =     0.000008

     Entering Dynamics:    iteration =     4
                           time      =   0.0194 pico-seconds


     Andersen thermostat:    3 collisions

ATOMIC_POSITIONS (bohr)
O       -2.686835856  -0.218446594   6.333916749
H       15.327438898  11.693962790   8.095821173
H       44.768441142  37.188718835 -20.250619535


     kinetic energy (Ekin) =    29.29714618 Ry
     temperature           = ************** K 
     Ekin + Etot (const)   =    -1.51754999 Ry
     Message from routine dynamics:
     Total linear momentum <> 0

     Linear momentum :    0.2219928869    0.0150083212    0.0048585773

     Writing output data file pwscf.save

     second order wave-functions extrapolation
     Check: negative starting charge=   -0.350768
     second order charge density extrapolation
     Check: negative starting charge=   -0.345643

     negative rho (up, down):  1.436E+01 0.000E+00

     total cpu time spent up to now is       14.4 secs

     per-process dynamical memory:    20.4 Mb

     Self-consistent Calculation

     iteration #  1     ecut=    30.00 Ry     beta=0.70
     Davidson diagonalization with overlap
     ethr =  1.00E-06,  avg # of iterations = 20.0

     negative rho (up, down):  3.575E+00 0.000E+00

     total cpu time spent up to now is       14.6 secs

     total energy              =       9.67155855 Ry
     Harris-Foulkes estimate   =   -4306.79433279 Ry
     estimated scf accuracy    <     123.62143765 Ry

     iteration #  2     ecut=    30.00 Ry     beta=0.70
     Davidson diagonalization with overlap
     ethr =  1.00E-02,  avg # of iterations =  9.0

     negative rho (up, down):  1.069E+00 0.000E+00

     total cpu time spent up to now is       14.7 secs

     total energy              =    -292.52688270 Ry
     Harris-Foulkes estimate   =   -4370.97565622 Ry
     estimated scf accuracy    <      36.64543495 Ry

     iteration #  3     ecut=    30.00 Ry     beta=0.70
     Davidson diagonalization with overlap
     ethr =  1.00E-02,  avg # of iterations =  6.0

     negative rho (up, down):  6.362E-02 0.000E+00

     total cpu time spent up to now is       14.7 secs

     total energy              =     128.54508021 Ry
     Harris-Foulkes estimate   =   -9942.58346943 Ry
     estimated scf accuracy    <      27.06818236 Ry

     iteration #  4     ecut=    30.00 Ry     beta=0.70
     Davidson diagonalization with overlap
     ethr =  1.00E-02,  avg # of iterations = 12.0

     negative rho (up, down):  1.007E-01 0.000E+00

     total cpu time spent up to now is       14.9 secs

     total energy              =      67.22402018 Ry
     Harris-Foulkes estimate   =   -1186.45368549 Ry
     estimated scf accuracy    <      34.37135006 Ry

     iteration #  5     ecut=    30.00 Ry     beta=0.70
     Davidson diagonalization with overlap
     ethr =  1.00E-02,  avg # of iterations =  8.0

     negative rho (up, down):  2.328E-01 0.000E+00

     total cpu time spent up to now is       14.9 secs

     total energy              =     -27.81130222 Ry
     Harris-Foulkes estimate   =     -86.16556649 Ry
     estimated scf accuracy    <      42.51073126 Ry

     iteration #  6     ecut=    30.00 Ry     beta=0.70
     Davidson diagonalization with overlap
     ethr =  1.00E-02,  avg # of iterations =  8.0

     negative rho (up, down):  1.209E-01 0.000E+00

     total cpu time spent up to now is       15.0 secs

     total energy              =      -7.95342383 Ry
     Harris-Foulkes estimate   =   -4528.46180441 Ry
     estimated scf accuracy    <      12.89263692 Ry

     iteration #  7     ecut=    30.00 Ry     beta=0.70
     Davidson diagonalization with overlap
     ethr =  1.00E-02,  avg # of iterations =  7.0

     negative rho (up, down):  1.313E-01 0.000E+00

     total cpu time spent up to now is       15.1 secs

     total energy              =      -7.24563843 Ry
     Harris-Foulkes estimate   =   -1591.09848851 Ry
     estimated scf accuracy    <      25.08128860 Ry

     iteration #  8     ecut=    30.00 Ry     beta=0.70
     Davidson diagonalization with overlap
     ethr =  1.00E-02,  avg # of iterations =  6.0

     negative rho (up, down):  1.959E-01 0.000E+00

     total cpu time spent up to now is       15.1 secs

     total energy              =     -56.28648434 Ry
     Harris-Foulkes estimate   =     -59.34368856 Ry
     estimated scf accuracy    <      40.59294450 Ry

     iteration #  9     ecut=    30.00 Ry     beta=0.70
     Davidson diagonalization with overlap
     ethr =  1.00E-02,  avg # of iterations =  5.0

     negative rho (up, down):  2.460E-01 0.000E+00

     total cpu time spent up to now is       15.2 secs

     total energy              =     -31.90188987 Ry
     Harris-Foulkes estimate   =    -110.71363721 Ry
     estimated scf accuracy    <      25.70783585 Ry

     iteration # 10     ecut=    30.00 Ry     beta=0.70
     Davidson diagonalization with overlap
     ethr =  1.00E-02,  avg # of iterations =  5.0

     negative rho (up, down):  2.595E-01 0.000E+00

     total cpu time spent up to now is       15.3 secs

     total energy              =    -557.29352856 Ry
     Harris-Foulkes estimate   =    -161.82909256 Ry
     estimated scf accuracy    <      21.68933176 Ry

     iteration # 11     ecut=    30.00 Ry     beta=0.70
     Davidson diagonalization with overlap
     ethr =  1.00E-02,  avg # of iterations =  5.0

     negative rho (up, down):  3.856E-01 0.000E+00

     total cpu time spent up to now is       15.3 secs

     total energy              =      26.35545009 Ry
     Harris-Foulkes estimate   =   -2318.70719723 Ry
     estimated scf accuracy    <      29.96921639 Ry

     iteration # 12     ecut=    30.00 Ry     beta=0.70
     Davidson diagonalization with overlap
     ethr =  1.00E-02,  avg # of iterations = 11.0

     negative rho (up, down):  5.589E-01 0.000E+00

     total cpu time spent up to now is       15.4 secs

     total energy              =      -1.58537241 Ry
     Harris-Foulkes estimate   =    -124.31645980 Ry
     estimated scf accuracy    <      15.58576991 Ry

     iteration # 13     ecut=    30.00 Ry     beta=0.70
     Davidson diagonalization with overlap
     ethr =  1.00E-02,  avg # of iterations =  5.0

     negative rho (up, down):  2.520E-01 0.000E+00

     total cpu time spent up to now is       15.5 secs

     total energy              =     101.13544356 Ry
     Harris-Foulkes estimate   =    -752.93656229 Ry
     estimated scf accuracy    <      47.60542685 Ry

     iteration # 14     ecut=    30.00 Ry     beta=0.70
     Davidson diagonalization with overlap
     ethr =  1.00E-02,  avg # of iterations =  9.0

     negative rho (up, down):  6.652E-02 0.000E+00

     total cpu time spent up to now is       15.6 secs

     total energy              =     -24.28565107 Ry
     Harris-Foulkes estimate   =    -299.96760497 Ry
     estimated scf accuracy    <      16.30257996 Ry

     iteration # 15     ecut=    30.00 Ry     beta=0.70
     Davidson diagonalization with overlap
     ethr =  1.00E-02,  avg # of iterations =  5.0

     negative rho (up, down):  2.520E-01 0.000E+00

     total cpu time spent up to now is       15.7 secs

     total energy              =      33.62801907 Ry
     Harris-Foulkes estimate   =    -405.84081242 Ry
     estimated scf accuracy    <      19.82860081 Ry

     iteration # 16     ecut=    30.00 Ry     beta=0.70
     Davidson diagonalization with overlap
     ethr =  1.00E-02,  avg # of iterations =  5.0

     negative rho (up, down):  4.861E-01 0.000E+00

     total cpu time spent up to now is       15.8 secs

     total energy              =     -28.12537275 Ry
     Harris-Foulkes estimate   =    -128.49169652 Ry
     estimated scf accuracy    <      11.89087267 Ry

     iteration # 17     ecut=    30.00 Ry     beta=0.70
     Davidson diagonalization with overlap
     ethr =  1.00E-02,  avg # of iterations =  7.0

     negative rho (up, down):  2.047E-01 0.000E+00

     total cpu time spent up to now is       15.9 secs

     total energy              =      90.10459620 Ry
     Harris-Foulkes estimate   =    -896.10679528 Ry
     estimated scf accuracy    <      27.73002417 Ry

     iteration # 18     ecut=    30.00 Ry     beta=0.70
     Davidson diagonalization with overlap
     ethr =  1.00E-02,  avg # of iterations = 13.0

     negative rho (up, down):  1.320E-01 0.000E+00

     total cpu time spent up to now is       16.0 secs

     total energy              =    -435.21114979 Ry
     Harris-Foulkes estimate   =    -461.99859119 Ry
     estimated scf accuracy    <       9.04915146 Ry

     iteration # 19     ecut=    30.00 Ry     beta=0.70
     Davidson diagonalization with overlap
     ethr =  1.00E-02,  avg # of iterations =  9.0

     negative rho (up, down):  1.297E-01 0.000E+00

     total cpu time spent up to now is       16.1 secs

     total energy              =      90.50811819 Ry
     Harris-Foulkes estimate   =   -4695.11750652 Ry
     estimated scf accuracy    <      30.22785736 Ry

     iteration # 20     ecut=    30.00 Ry     beta=0.70
     Davidson diagonalization with overlap
     ethr =  1.00E-02,  avg # of iterations = 10.0

     negative rho (up, down):  2.711E-02 0.000E+00

     total cpu time spent up to now is       16.2 secs

     total energy              =     -18.38675217 Ry
     Harris-Foulkes estimate   =     -40.86097810 Ry
     estimated scf accuracy    <       6.58124814 Ry

     iteration # 21     ecut=    30.00 Ry     beta=0.70
     Davidson diagonalization with overlap
     ethr =  1.00E-02,  avg # of iterations =  7.0

     negative rho (up, down):  3.160E-03 0.000E+00

     total cpu time spent up to now is       16.2 secs

     total energy              =     -10.76842802 Ry
     Harris-Foulkes estimate   =     -43.93581891 Ry
     estimated scf accuracy    <      10.16409221 Ry

     iteration # 22     ecut=    30.00 Ry     beta=0.70
     Davidson diagonalization with overlap
     ethr =  1.00E-02,  avg # of iterations =  4.0

     negative rho (up, down):  1.835E-03 0.000E+00

     total cpu time spent up to now is       16.3 secs

     total energy              =     -37.07255066 Ry
     Harris-Foulkes estimate   =     -37.66262318 Ry
     estimated scf accuracy    <      10.44594578 Ry

     iteration # 23     ecut=    30.00 Ry     beta=0.70
     Davidson diagonalization with overlap
     ethr =  1.00E-02,  avg # of iterations =  1.0

     negative rho (up, down):  1.583E-02 0.000E+00

     total cpu time spent up to now is       16.4 secs

     total energy              =     -35.95110282 Ry
     Harris-Foulkes estimate   =     -37.08601903 Ry
     estimated scf accuracy    <       8.89362495 Ry

     iteration # 24     ecut=    30.00 Ry     beta=0.70
     Davidson diagonalization with overlap
     ethr =  1.00E-02,  avg # of iterations =  4.0

     negative rho (up, down):  4.447E-02 0.000E+00

     total cpu time spent up to now is       16.4 secs

     total energy              =       6.41310687 Ry
     Harris-Foulkes estimate   =    -234.44303871 Ry
     estimated scf accuracy    <      11.54395726 Ry

     iteration # 25     ecut=    30.00 Ry     beta=0.70
     Davidson diagonalization with overlap
     ethr =  1.00E-02,  avg # of iterations =  4.0

     negative rho (up, down):  2.107E-03 0.000E+00

     total cpu time spent up to now is       16.5 secs

     total energy              =     -21.90171899 Ry
     Harris-Foulkes estimate   =     -57.44513085 Ry
     estimated scf accuracy    <       8.71980226 Ry

     iteration # 26     ecut=    30.00 Ry     beta=0.70
     Davidson diagonalization with overlap
     ethr =  1.00E-02,  avg # of iterations =  6.0

     negative rho (up, down):  4.290E-02 0.000E+00

     total cpu time spent up to now is       16.5 secs

     total energy              =     -97.04293694 Ry
     Harris-Foulkes estimate   =    -121.09489098 Ry
     estimated scf accuracy    <       7.10667811 Ry

     iteration # 27     ecut=    30.00 Ry     beta=0.70
     Davidson diagonalization with overlap
     ethr =  1.00E-02,  avg # of iterations =  4.0

     negative rho (up, down):  8.100E-05 0.000E+00

     total cpu time spent up to now is       16.6 secs

     total energy              =     111.00351104 Ry
     Harris-Foulkes estimate   =    -621.72586992 Ry
     estimated scf accuracy    <      42.23081985 Ry

     iteration # 28     ecut=    30.00 Ry     beta=0.70
     Davidson diagonalization with overlap
     ethr =  1.00E-02,  avg # of iterations = 10.0

     negative rho (up, down):  6.219E-01 0.000E+00

     total cpu time spent up to now is       16.7 secs

     total energy              =     -37.19394041 Ry
     Harris-Foulkes estimate   =     -35.83219797 Ry
     estimated scf accuracy    <      10.17880505 Ry

     iteration # 29     ecut=    30.00 Ry     beta=0.70
     Davidson diagonalization with overlap
     ethr =  1.00E-02,  avg # of iterations =  5.0

     negative rho (up, down):  2.299E-01 0.000E+00

     total cpu time spent up to now is       16.8 secs

     total energy              =     -10.31178230 Ry
     Harris-Foulkes estimate   =     -78.44597070 Ry
     estimated scf accuracy    <      21.20833194 Ry

[...]
     Harris-Foulkes estimate   =  -18266.45781388 Ry
     estimated scf accuracy    <      24.58101144 Ry

     iteration # 59     ecut=    30.00 Ry     beta=0.70
     Davidson diagonalization with overlap
     ethr =  1.00E-02,  avg # of iterations = 12.0

     negative rho (up, down):  4.331E-02 0.000E+00

     total cpu time spent up to now is       19.0 secs

     total energy              =      39.23140654 Ry
     Harris-Foulkes estimate   =   -1795.27228033 Ry
     estimated scf accuracy    <      23.75848101 Ry

     iteration # 60     ecut=    30.00 Ry     beta=0.70
     Davidson diagonalization with overlap
     ethr =  1.00E-02,  avg # of iterations =  7.0

     negative rho (up, down):  1.222E-02 0.000E+00

     total cpu time spent up to now is       19.1 secs

     total energy              =     121.31135440 Ry
     Harris-Foulkes estimate   =    -648.24297019 Ry
     estimated scf accuracy    <      18.27692019 Ry

     iteration # 61     ecut=    30.00 Ry     beta=0.70
     Davidson diagonalization with overlap
     ethr =  1.00E-02,  avg # of iterations = 13.0

     negative rho (up, down):  1.499E-03 0.000E+00

     total cpu time spent up to now is       19.2 secs

     total energy              =     -63.85886580 Ry
     Harris-Foulkes estimate   =     -73.47014509 Ry
     estimated scf accuracy    <      62.33258783 Ry

     iteration # 62     ecut=    30.00 Ry     beta=0.70
     Davidson diagonalization with overlap
     ethr =  1.00E-02,  avg # of iterations =  1.0

     negative rho (up, down):  3.540E-02 0.000E+00

     total cpu time spent up to now is       19.2 secs

     total energy              =     -40.82561419 Ry
     Harris-Foulkes estimate   =     -63.89285405 Ry
     estimated scf accuracy    <      47.76725013 Ry

     iteration # 63     ecut=    30.00 Ry     beta=0.70
     Davidson diagonalization with overlap
     ethr =  1.00E-02,  avg # of iterations =  5.0

     negative rho (up, down):  1.086E-02 0.000E+00

     total cpu time spent up to now is       19.3 secs

     total energy              =     -11.98978657 Ry
     Harris-Foulkes estimate   =     -74.83098022 Ry
     estimated scf accuracy    <      10.27466061 Ry

     iteration # 64     ecut=    30.00 Ry     beta=0.70
     Davidson diagonalization with overlap
     ethr =  1.00E-02,  avg # of iterations =  7.0

     negative rho (up, down):  5.531E-02 0.000E+00

     total cpu time spent up to now is       19.4 secs

     total energy              =     116.46884472 Ry
     Harris-Foulkes estimate   =     -60.98245399 Ry
     estimated scf accuracy    <      19.57460286 Ry

     iteration # 65     ecut=    30.00 Ry     beta=0.70
     Davidson diagonalization with overlap
     ethr =  1.00E-02,  avg # of iterations =  4.0

     negative rho (up, down):  1.296E-01 0.000E+00

     total cpu time spent up to now is       19.5 secs

     total energy              =       0.18273786 Ry
     Harris-Foulkes estimate   =   -4076.53952501 Ry
     estimated scf accuracy    <      11.50560690 Ry

     iteration # 66     ecut=    30.00 Ry     beta=0.70
     Davidson diagonalization with overlap
     ethr =  1.00E-02,  avg # of iterations =  7.0

     negative rho (up, down):  6.755E-02 0.000E+00

     total cpu time spent up to now is       19.6 secs

     total energy              =      72.94149019 Ry
     Harris-Foulkes estimate   =    -260.43743749 Ry
     estimated scf accuracy    <      21.93639827 Ry

     iteration # 67     ecut=    30.00 Ry     beta=0.70
     Davidson diagonalization with overlap
     ethr =  1.00E-02,  avg # of iterations =  9.0

     negative rho (up, down):  8.734E-04 0.000E+00

     total cpu time spent up to now is       19.8 secs

     total energy              =      23.64087740 Ry
     Harris-Foulkes estimate   =    -176.04540558 Ry
     estimated scf accuracy    <      17.06967362 Ry

     iteration # 68     ecut=    30.00 Ry     beta=0.70
     Davidson diagonalization with overlap
     ethr =  1.00E-02,  avg # of iterations =  7.0

     negative rho (up, down):  1.690E-02 0.000E+00

     total cpu time spent up to now is       19.9 secs

     total energy              =     -37.13659355 Ry
     Harris-Foulkes estimate   =     -55.72511146 Ry
     estimated scf accuracy    <      27.88405444 Ry

     iteration # 69     ecut=    30.00 Ry     beta=0.70
     Davidson diagonalization with overlap
     ethr =  1.00E-02,  avg # of iterations =  8.0

     negative rho (up, down):  2.413E-02 0.000E+00

     total cpu time spent up to now is       20.0 secs

     total energy              =      73.30781444 Ry
     Harris-Foulkes estimate   =    -199.61105939 Ry
     estimated scf accuracy    <      26.14290561 Ry

     iteration # 70     ecut=    30.00 Ry     beta=0.70
     Davidson diagonalization with overlap
     ethr =  1.00E-02,  avg # of iterations = 11.0

     negative rho (up, down):  1.256E-02 0.000E+00

     total cpu time spent up to now is       20.1 secs

     total energy              =     -15.91596380 Ry
     Harris-Foulkes estimate   =     -60.47478906 Ry
     estimated scf accuracy    <      16.33093971 Ry

     iteration # 71     ecut=    30.00 Ry     beta=0.70
     Davidson diagonalization with overlap
     ethr =  1.00E-02,  avg # of iterations =  4.0

     negative rho (up, down):  5.606E-08 0.000E+00

     total cpu time spent up to now is       20.1 secs

     total energy              =       0.81040080 Ry
     Harris-Foulkes estimate   =    -114.69968180 Ry
     estimated scf accuracy    <      13.70663079 Ry

     iteration # 72     ecut=    30.00 Ry     beta=0.70
     Davidson diagonalization with overlap
     ethr =  1.00E-02,  avg # of iterations =  4.0

     negative rho (up, down):  6.980E-02 0.000E+00

     total cpu time spent up to now is       20.2 secs

     total energy              =     -39.86316677 Ry
     Harris-Foulkes estimate   =     -39.28907223 Ry
     estimated scf accuracy    <      14.66472739 Ry

     iteration # 73     ecut=    30.00 Ry     beta=0.70
     Davidson diagonalization with overlap
     ethr =  1.00E-02,  avg # of iterations =  4.0

     negative rho (up, down):  5.520E-02 0.000E+00

     total cpu time spent up to now is       20.2 secs

     total energy              =      -6.43885445 Ry
     Harris-Foulkes estimate   =    -161.84245133 Ry
     estimated scf accuracy    <       7.33500039 Ry

     iteration # 74     ecut=    30.00 Ry     beta=0.70
     Davidson diagonalization with overlap
     ethr =  1.00E-02,  avg # of iterations =  4.0

     negative rho (up, down):  5.660E-02 0.000E+00

     total cpu time spent up to now is       20.3 secs

     total energy              =       8.82920979 Ry
     Harris-Foulkes estimate   =    -131.25663066 Ry
     estimated scf accuracy    <       9.06110423 Ry

     iteration # 75     ecut=    30.00 Ry     beta=0.70
     Davidson diagonalization with overlap
     ethr =  1.00E-02,  avg # of iterations =  7.0

     negative rho (up, down):  6.066E-02 0.000E+00

     total cpu time spent up to now is       20.4 secs

     total energy              =      46.50365415 Ry
     Harris-Foulkes estimate   =    -147.81813943 Ry
     estimated scf accuracy    <      22.41020335 Ry

     iteration # 76     ecut=    30.00 Ry     beta=0.70
     Davidson diagonalization with overlap
     ethr =  1.00E-02,  avg # of iterations =  8.0

     negative rho (up, down):  1.298E-02 0.000E+00

     total cpu time spent up to now is       20.5 secs

     total energy              =     283.15966478 Ry
     Harris-Foulkes estimate   =    -726.88408905 Ry
     estimated scf accuracy    <      32.52390499 Ry

     iteration # 77     ecut=    30.00 Ry     beta=0.70
     Davidson diagonalization with overlap
     ethr =  1.00E-02,  avg # of iterations =  7.0

     negative rho (up, down):  1.065E-01 0.000E+00

     total cpu time spent up to now is       20.6 secs

     total energy              =     -44.59161651 Ry
     Harris-Foulkes estimate   =     -43.49436644 Ry
     estimated scf accuracy    <       9.93577432 Ry

     iteration # 78     ecut=    30.00 Ry     beta=0.70
     Davidson diagonalization with overlap
     ethr =  1.00E-02,  avg # of iterations =  6.0

     negative rho (up, down):  7.887E-02 0.000E+00

     total cpu time spent up to now is       20.7 secs

     total energy              =    -389.97593386 Ry
     Harris-Foulkes estimate   =   -1639.85907292 Ry
     estimated scf accuracy    <      18.24560555 Ry

     iteration # 79     ecut=    30.00 Ry     beta=0.70
     Davidson diagonalization with overlap
     ethr =  1.00E-02,  avg # of iterations =  4.0

     negative rho (up, down):  2.166E-07 0.000E+00

     total cpu time spent up to now is       20.7 secs

     total energy              =      49.17137712 Ry
     Harris-Foulkes estimate   =   -2246.22245958 Ry
     estimated scf accuracy    <      19.50899440 Ry

     iteration # 80     ecut=    30.00 Ry     beta=0.70
     Davidson diagonalization with overlap
     ethr =  1.00E-02,  avg # of iterations =  5.0

     negative rho (up, down):  1.836E-02 0.000E+00

     total cpu time spent up to now is       20.8 secs

     total energy              =     -33.94126115 Ry
     Harris-Foulkes estimate   =     -35.34695683 Ry
     estimated scf accuracy    <       7.01204154 Ry

     iteration # 81     ecut=    30.00 Ry     beta=0.70
     Davidson diagonalization with overlap
     ethr =  1.00E-02,  avg # of iterations =  4.0

     negative rho (up, down):  1.917E-02 0.000E+00

     total cpu time spent up to now is       20.9 secs

     total energy              =     -10.55856319 Ry
     Harris-Foulkes estimate   =     -48.42291413 Ry
     estimated scf accuracy    <       7.16596771 Ry

     iteration # 82     ecut=    30.00 Ry     beta=0.70
     Davidson diagonalization with overlap
     ethr =  1.00E-02,  avg # of iterations =  4.0

     negative rho (up, down):  2.995E-02 0.000E+00

     total cpu time spent up to now is       20.9 secs

     total energy              =     -13.62999368 Ry
     Harris-Foulkes estimate   =    -252.86515129 Ry
     estimated scf accuracy    <       8.70091971 Ry

     iteration # 83     ecut=    30.00 Ry     beta=0.70
     Davidson diagonalization with overlap
     ethr =  1.00E-02,  avg # of iterations =  4.0

     negative rho (up, down):  1.220E-01 0.000E+00

     total cpu time spent up to now is       21.0 secs

     total energy              =      -6.59043477 Ry
     Harris-Foulkes estimate   =     -92.92185603 Ry
     estimated scf accuracy    <       8.74273394 Ry

     iteration # 84     ecut=    30.00 Ry     beta=0.70
     Davidson diagonalization with overlap
     ethr =  1.00E-02,  avg # of iterations =  4.0

     negative rho (up, down):  1.005E-01 0.000E+00

     total cpu time spent up to now is       21.1 secs

     total energy              =     -44.68734391 Ry
     Harris-Foulkes estimate   =     -34.54925480 Ry
     estimated scf accuracy    <       4.28903263 Ry

     iteration # 85     ecut=    30.00 Ry     beta=0.70
     Davidson diagonalization with overlap
     ethr =  1.00E-02,  avg # of iterations =  4.0

     negative rho (up, down):  1.345E-01 0.000E+00

     total cpu time spent up to now is       21.1 secs

     total energy              =      79.64742242 Ry
     Harris-Foulkes estimate   =    -684.81023093 Ry
     estimated scf accuracy    <      23.56234309 Ry

     iteration # 86     ecut=    30.00 Ry     beta=0.70
     Davidson diagonalization with overlap
     ethr =  1.00E-02,  avg # of iterations =  7.0

     negative rho (up, down):  1.599E-01 0.000E+00

     total cpu time spent up to now is       21.2 secs

     total energy              =    -856.69955183 Ry
     Harris-Foulkes estimate   =   -1137.59294165 Ry
     estimated scf accuracy    <      24.26194810 Ry

     iteration # 87     ecut=    30.00 Ry     beta=0.70
     Davidson diagonalization with overlap
     ethr =  1.00E-02,  avg # of iterations =  4.0

     negative rho (up, down):  1.138E-01 0.000E+00

     total cpu time spent up to now is       21.3 secs

     total energy              =     105.68982135 Ry
     Harris-Foulkes estimate   =   -2429.48761767 Ry
     estimated scf accuracy    <      35.43798048 Ry

     iteration # 88     ecut=    30.00 Ry     beta=0.70
     Davidson diagonalization with overlap
     ethr =  1.00E-02,  avg # of iterations =  8.0

     negative rho (up, down):  8.675E-02 0.000E+00

     total cpu time spent up to now is       21.4 secs

     total energy              =     -32.84878309 Ry
     Harris-Foulkes estimate   =     -33.16067537 Ry
     estimated scf accuracy    <       3.50616651 Ry

     iteration # 89     ecut=    30.00 Ry     beta=0.70
     Davidson diagonalization with overlap
     ethr =  1.00E-02,  avg # of iterations =  3.0

     negative rho (up, down):  7.130E-02 0.000E+00

     total cpu time spent up to now is       21.4 secs

     total energy              =     -76.31583916 Ry
     Harris-Foulkes estimate   =     -34.33666115 Ry
     estimated scf accuracy    <       3.02773644 Ry

     iteration # 90     ecut=    30.00 Ry     beta=0.70
     Davidson diagonalization with overlap
     ethr =  1.00E-02,  avg # of iterations =  4.0

     negative rho (up, down):  4.718E-02 0.000E+00

     total cpu time spent up to now is       21.5 secs

     total energy              =    -156.78858300 Ry
     Harris-Foulkes estimate   =    -598.45251495 Ry
     estimated scf accuracy    <      25.02292935 Ry

     iteration # 91     ecut=    30.00 Ry     beta=0.70
     Davidson diagonalization with overlap
     ethr =  1.00E-02,  avg # of iterations =  6.0

     negative rho (up, down):  6.620E-02 0.000E+00

     total cpu time spent up to now is       21.5 secs

     total energy              =    -628.49117209 Ry
     Harris-Foulkes estimate   =    -285.81070921 Ry
     estimated scf accuracy    <      15.25485497 Ry

     iteration # 92     ecut=    30.00 Ry     beta=0.70
     Davidson diagonalization with overlap
     ethr =  1.00E-02,  avg # of iterations =  4.0

     negative rho (up, down):  1.096E-01 0.000E+00

     total cpu time spent up to now is       21.6 secs

     total energy              =      53.12555542 Ry
     Harris-Foulkes estimate   =   -6203.84482466 Ry
     estimated scf accuracy    <      19.19451702 Ry

     iteration # 93     ecut=    30.00 Ry     beta=0.70
     Davidson diagonalization with overlap
     ethr =  1.00E-02,  avg # of iterations =  5.0

     negative rho (up, down):  1.423E-01 0.000E+00

     total cpu time spent up to now is       21.7 secs

     total energy              =       3.38920376 Ry
     Harris-Foulkes estimate   =    -132.24176284 Ry
     estimated scf accuracy    <       4.13728752 Ry

     iteration # 94     ecut=    30.00 Ry     beta=0.70
     Davidson diagonalization with overlap
     ethr =  1.00E-02,  avg # of iterations =  6.0

     negative rho (up, down):  1.462E-01 0.000E+00

     total cpu time spent up to now is       21.8 secs

     total energy              =    -102.92554771 Ry
     Harris-Foulkes estimate   =    -481.69964090 Ry
     estimated scf accuracy    <      31.69978201 Ry

     iteration # 95     ecut=    30.00 Ry     beta=0.70
     Davidson diagonalization with overlap
     ethr =  1.00E-02,  avg # of iterations =  9.0

     negative rho (up, down):  1.261E-01 0.000E+00

     total cpu time spent up to now is       21.8 secs

     total energy              =      33.35594928 Ry
     Harris-Foulkes estimate   =    -353.03109156 Ry
     estimated scf accuracy    <      17.71956133 Ry

     iteration # 96     ecut=    30.00 Ry     beta=0.70
     Davidson diagonalization with overlap
     ethr =  1.00E-02,  avg # of iterations =  5.0

     negative rho (up, down):  3.292E-02 0.000E+00

     total cpu time spent up to now is       21.9 secs

     total energy              =     -32.81601287 Ry
     Harris-Foulkes estimate   =     -32.83071047 Ry
     estimated scf accuracy    <       2.15989358 Ry

     iteration # 97     ecut=    30.00 Ry     beta=0.70
     Davidson diagonalization with overlap
     ethr =  1.00E-02,  avg # of iterations =  4.0

     negative rho (up, down):  4.280E-02 0.000E+00

     total cpu time spent up to now is       22.0 secs

     total energy              =     -47.17192525 Ry
     Harris-Foulkes estimate   =     -57.26382855 Ry
     estimated scf accuracy    <       4.41632814 Ry

     iteration # 98     ecut=    30.00 Ry     beta=0.70
     Davidson diagonalization with overlap
     ethr =  1.00E-02,  avg # of iterations =  4.0

     negative rho (up, down):  4.081E-02 0.000E+00

     total cpu time spent up to now is       22.0 secs

     total energy              =      56.71312191 Ry
     Harris-Foulkes estimate   =    -758.68019736 Ry
     estimated scf accuracy    <      20.57105118 Ry

     iteration # 99     ecut=    30.00 Ry     beta=0.70
     Davidson diagonalization with overlap
     ethr =  1.00E-02,  avg # of iterations =  6.0

     negative rho (up, down):  3.469E-03 0.000E+00

     total cpu time spent up to now is       22.1 secs

     total energy              =     127.79020223 Ry
     Harris-Foulkes estimate   =    -165.46958056 Ry
     estimated scf accuracy    <       5.07820236 Ry

     iteration #100     ecut=    30.00 Ry     beta=0.70
     Davidson diagonalization with overlap
     ethr =  1.00E-02,  avg # of iterations =  4.0

     negative rho (up, down):  2.189E-05 0.000E+00

     total cpu time spent up to now is       22.1 secs

     total energy              =     -32.21379518 Ry
     Harris-Foulkes estimate   =     -32.77935081 Ry
     estimated scf accuracy    <       2.89377744 Ry

     End of self-consistent calculation

     convergence NOT achieved after 100 iterations: stopping

     Writing output data file pwscf.save
 
     init_run     :      0.32s CPU      0.37s WALL (       1 calls)
     electrons    :     16.12s CPU     19.36s WALL (       5 calls)
     update_pot   :      0.84s CPU      1.13s WALL (       4 calls)
     forces       :      0.18s CPU      0.20s WALL (       4 calls)

     Called by init_run:
     wfcinit      :      0.04s CPU      0.07s WALL (       1 calls)
     potinit      :      0.09s CPU      0.10s WALL (       1 calls)

     Called by electrons:
     c_bands      :      8.20s CPU      8.72s WALL (     242 calls)
     sum_band     :      1.54s CPU      1.63s WALL (     242 calls)
     v_of_rho     :      3.58s CPU      3.78s WALL (     247 calls)
     mix_rho      :      2.23s CPU      3.89s WALL (     242 calls)

     Called by c_bands:
     init_us_2    :      0.04s CPU      0.05s WALL (     485 calls)
     cegterg      :      8.11s CPU      8.53s WALL (     242 calls)

     Called by sum_band:

     Called by *egterg:
     h_psi        :      6.72s CPU      7.01s WALL (    1167 calls)
     g_psi        :      0.06s CPU      0.07s WALL (     924 calls)
     cdiaghg      :      0.55s CPU      0.61s WALL (    1162 calls)

     Called by h_psi:
     h_psi:pot    :      6.69s CPU      6.97s WALL (    1167 calls)
     h_psi:calbec :      0.22s CPU      0.26s WALL (    1167 calls)
     vloc_psi     :      6.45s CPU      6.68s WALL (    1167 calls)
     add_vuspsi   :      0.02s CPU      0.02s WALL (    1167 calls)

     General routines
     calbec       :      0.23s CPU      0.28s WALL (    1186 calls)
     fft          :      2.39s CPU      2.52s WALL (    2725 calls)
     fftw         :      7.00s CPU      7.28s WALL (   14674 calls)
     davcio       :      0.30s CPU      1.41s WALL (    4408 calls)
 
     Parallel routines
     fft_scatter  :      4.05s CPU      4.35s WALL (   17399 calls)
 
     PWSCF        :    17.89s CPU        22.30s WALL

 
   This run was terminated on:  17:57:29  13Feb2018            

=------------------------------------------------------------------------------=
   JOB DONE.
=------------------------------------------------------------------------------=
