
     Program PWSCF v.6.0 (svn rev. 13079) starts on 13Feb2018 at 13:26:25 

     This program is part of the open-source Quantum ESPRESSO suite
     for quantum simulation of materials; please cite
         "P. Giannozzi et al., J. Phys.:Condens. Matter 21 395502 (2009);
          URL http://www.quantum-espresso.org", 
     in publications or presentations arising from this work. More details at
     http://www.quantum-espresso.org/quote

     Parallel version (MPI), running on    28 processors
     R & G space division:  proc/nbgrp/npool/nimage =      28
     Reading input from inputs/MD-H2O-round1/91.in

     Current dimensions of program PWSCF are:
     Max number of different atomic species (ntypx) = 10
     Max number of k-points (npk) =  40000
     Max angular momentum in pseudopotentials (lmaxx) =  3

     Subspace diagonalization in iterative solution of the eigenvalue problem:
     a serial algorithm will be used

 
     Parallelization info
     --------------------
     sticks:   dense  smooth     PW     G-vecs:    dense   smooth      PW
     Min         136     136     33                 6338     6338     787
     Max         137     137     34                 6341     6341     792
     Sum        3809    3809    949               177509   177509   22119
 


     bravais-lattice index     =            1
     lattice parameter (alat)  =      20.0000  a.u.
     unit-cell volume          =    8000.0000 (a.u.)^3
     number of atoms/cell      =            3
     number of atomic types    =            2
     number of electrons       =         8.00
     number of Kohn-Sham states=            8
     kinetic-energy cutoff     =      30.0000  Ry
     charge density cutoff     =     120.0000  Ry
     convergence threshold     =      1.0E-08
     mixing beta               =       0.7000
     number of iterations used =            8  plain     mixing
     Exchange-correlation      = BLYP ( 1  3  1  3 0 0)
     nstep                     =         5000


     celldm(1)=  20.000000  celldm(2)=   0.000000  celldm(3)=   0.000000
     celldm(4)=   0.000000  celldm(5)=   0.000000  celldm(6)=   0.000000

     crystal axes: (cart. coord. in units of alat)
               a(1) = (   1.000000   0.000000   0.000000 )  
               a(2) = (   0.000000   1.000000   0.000000 )  
               a(3) = (   0.000000   0.000000   1.000000 )  

     reciprocal axes: (cart. coord. in units 2 pi/alat)
               b(1) = (  1.000000  0.000000  0.000000 )  
               b(2) = (  0.000000  1.000000  0.000000 )  
               b(3) = (  0.000000  0.000000  1.000000 )  


     PseudoPot. # 1 for  H read from file:
     ./H.blyp-hgh.UPF
     MD5 check sum: c576e69559cde411e611be972c763230
     Pseudo is Norm-conserving, Zval =  1.0
     Generated in analytical, separable form
     Using radial grid of  929 points,  0 beta functions with: 

     PseudoPot. # 2 for  O read from file:
     ./O.blyp-hgh.UPF
     MD5 check sum: d0b7156309aa9befef28faac7bc56342
     Pseudo is Norm-conserving, Zval =  6.0
     Generated in analytical, separable form
     Using radial grid of 1095 points,  1 beta functions with: 
                l(1) =   0

     atomic species   valence    mass     pseudopotential
        H              1.00     1.01000      H( 1.00)
        O              6.00    16.00000      O( 1.00)

     No symmetry found



   Cartesian axes

     site n.     atom                  positions (alat units)
         1           O   tau(   1) = (   0.5108075   0.9780020   0.8018629  )
         2           H   tau(   2) = (   0.8951883   0.4386975   0.4490256  )
         3           H   tau(   3) = (   0.4796088   0.9031189   0.7987929  )

     number of k points=     1  Marzari-Vanderbilt smearing, width (Ry)=  0.0250
                       cart. coord. in units 2pi/alat
        k(    1) = (   0.0000000   0.0000000   0.0000000), wk =   2.0000000

     Dense  grid:   177509 G-vectors     FFT dimensions: (  72,  72,  72)

     Estimated max dynamical RAM per process >       6.09Mb

     Estimated total allocated dynamical RAM >     170.64Mb

     Initial potential from superposition of free atoms
     Check: negative starting charge=   -0.353515

     starting charge    7.99998, renormalised to    8.00000

     negative rho (up, down):  3.535E-01 0.000E+00
     Starting wfc are    6 randomized atomic wfcs +    2 random wfc

     total cpu time spent up to now is        0.4 secs

     per-process dynamical memory:    18.8 Mb

     Self-consistent Calculation

     iteration #  1     ecut=    30.00 Ry     beta=0.70
     Davidson diagonalization with overlap
     ethr =  1.00E-02,  avg # of iterations =  8.0

     negative rho (up, down):  9.512E-02 0.000E+00

     total cpu time spent up to now is        0.5 secs

     total energy              =     -31.62586023 Ry
     Harris-Foulkes estimate   =     -32.08764122 Ry
     estimated scf accuracy    <       0.46773140 Ry

     iteration #  2     ecut=    30.00 Ry     beta=0.70
     Davidson diagonalization with overlap
     ethr =  5.85E-03,  avg # of iterations =  3.0

     negative rho (up, down):  7.488E-02 0.000E+00

     total cpu time spent up to now is        0.5 secs

     total energy              =     -31.67001233 Ry
     Harris-Foulkes estimate   =     -32.24814268 Ry
     estimated scf accuracy    <       2.02651941 Ry

     iteration #  3     ecut=    30.00 Ry     beta=0.70
     Davidson diagonalization with overlap
     ethr =  5.85E-03,  avg # of iterations =  2.0

     negative rho (up, down):  2.860E-02 0.000E+00

     total cpu time spent up to now is        0.6 secs

     total energy              =     -31.69017082 Ry
     Harris-Foulkes estimate   =     -31.86351903 Ry
     estimated scf accuracy    <       1.11196120 Ry

     iteration #  4     ecut=    30.00 Ry     beta=0.70
     Davidson diagonalization with overlap
     ethr =  5.85E-03,  avg # of iterations =  1.0

     negative rho (up, down):  9.320E-03 0.000E+00

     total cpu time spent up to now is        0.6 secs

     total energy              =     -31.71161742 Ry
     Harris-Foulkes estimate   =     -31.94851120 Ry
     estimated scf accuracy    <       1.39820207 Ry

     iteration #  5     ecut=    30.00 Ry     beta=0.70
     Davidson diagonalization with overlap
     ethr =  5.85E-03,  avg # of iterations =  1.0

     negative rho (up, down):  9.062E-04 0.000E+00

     total cpu time spent up to now is        0.7 secs

     total energy              =     -31.86273715 Ry
     Harris-Foulkes estimate   =     -31.93972371 Ry
     estimated scf accuracy    <       1.00235811 Ry

     iteration #  6     ecut=    30.00 Ry     beta=0.70
     Davidson diagonalization with overlap
     ethr =  5.85E-03,  avg # of iterations =  1.0

     negative rho (up, down):  6.185E-04 0.000E+00

     total cpu time spent up to now is        0.7 secs

     total energy              =     -31.81722806 Ry
     Harris-Foulkes estimate   =     -31.86457073 Ry
     estimated scf accuracy    <       0.60592425 Ry

     iteration #  7     ecut=    30.00 Ry     beta=0.70
     Davidson diagonalization with overlap
     ethr =  5.85E-03,  avg # of iterations =  1.0

     negative rho (up, down):  1.770E-04 0.000E+00

     total cpu time spent up to now is        0.8 secs

     total energy              =     -31.85677182 Ry
     Harris-Foulkes estimate   =     -31.87722944 Ry
     estimated scf accuracy    <       1.52350299 Ry

     iteration #  8     ecut=    30.00 Ry     beta=0.70
     Davidson diagonalization with overlap
     ethr =  5.85E-03,  avg # of iterations =  1.0

     total cpu time spent up to now is        0.8 secs

     total energy              =     -31.83397014 Ry
     Harris-Foulkes estimate   =     -31.86008014 Ry
     estimated scf accuracy    <       0.58793462 Ry

     iteration #  9     ecut=    30.00 Ry     beta=0.70
     Davidson diagonalization with overlap
     ethr =  5.85E-03,  avg # of iterations =  1.0

     negative rho (up, down):  3.446E-07 0.000E+00

     total cpu time spent up to now is        0.8 secs

     total energy              =     -31.84884372 Ry
     Harris-Foulkes estimate   =     -31.85727294 Ry
     estimated scf accuracy    <       0.28771077 Ry

     iteration # 10     ecut=    30.00 Ry     beta=0.70
     Davidson diagonalization with overlap
     ethr =  3.60E-03,  avg # of iterations =  1.0

     negative rho (up, down):  1.389E-07 0.000E+00

     total cpu time spent up to now is        0.9 secs

     total energy              =     -31.85280929 Ry
     Harris-Foulkes estimate   =     -31.85282664 Ry
     estimated scf accuracy    <       0.00005693 Ry

     iteration # 11     ecut=    30.00 Ry     beta=0.70
     Davidson diagonalization with overlap
     ethr =  7.12E-07,  avg # of iterations = 19.0

     total cpu time spent up to now is        1.0 secs

     total energy              =     -31.85314858 Ry
     Harris-Foulkes estimate   =     -31.85290465 Ry
     estimated scf accuracy    <       0.00623908 Ry

     iteration # 12     ecut=    30.00 Ry     beta=0.70
     Davidson diagonalization with overlap
     ethr =  7.12E-07,  avg # of iterations =  1.0

     total cpu time spent up to now is        1.0 secs

     total energy              =     -31.85251604 Ry
     Harris-Foulkes estimate   =     -31.85332598 Ry
     estimated scf accuracy    <       0.03780357 Ry

     iteration # 13     ecut=    30.00 Ry     beta=0.70
     Davidson diagonalization with overlap
     ethr =  7.12E-07,  avg # of iterations =  1.0

     total cpu time spent up to now is        1.1 secs

     total energy              =     -31.85282777 Ry
     Harris-Foulkes estimate   =     -31.85283940 Ry
     estimated scf accuracy    <       0.00127764 Ry

     iteration # 14     ecut=    30.00 Ry     beta=0.70
     Davidson diagonalization with overlap
     ethr =  7.12E-07,  avg # of iterations =  1.0

     total cpu time spent up to now is        1.1 secs

     total energy              =     -31.85281797 Ry
     Harris-Foulkes estimate   =     -31.85283017 Ry
     estimated scf accuracy    <       0.00049285 Ry

     iteration # 15     ecut=    30.00 Ry     beta=0.70
     Davidson diagonalization with overlap
     ethr =  7.12E-07,  avg # of iterations =  1.0

     total cpu time spent up to now is        1.2 secs

     total energy              =     -31.85282441 Ry
     Harris-Foulkes estimate   =     -31.85282433 Ry
     estimated scf accuracy    <       0.00000013 Ry

     iteration # 16     ecut=    30.00 Ry     beta=0.70
     Davidson diagonalization with overlap
     ethr =  1.60E-09,  avg # of iterations =  1.0

     total cpu time spent up to now is        1.2 secs

     total energy              =     -31.85282401 Ry
     Harris-Foulkes estimate   =     -31.85282462 Ry
     estimated scf accuracy    <       0.00001342 Ry

     iteration # 17     ecut=    30.00 Ry     beta=0.70
     Davidson diagonalization with overlap
     ethr =  1.60E-09,  avg # of iterations =  1.0

     total cpu time spent up to now is        1.3 secs

     total energy              =     -31.85282429 Ry
     Harris-Foulkes estimate   =     -31.85282434 Ry
     estimated scf accuracy    <       0.00000208 Ry

     iteration # 18     ecut=    30.00 Ry     beta=0.70
     Davidson diagonalization with overlap
     ethr =  1.60E-09,  avg # of iterations =  1.0

     total cpu time spent up to now is        1.3 secs

     total energy              =     -31.85282435 Ry
     Harris-Foulkes estimate   =     -31.85282440 Ry
     estimated scf accuracy    <       0.00000226 Ry

     iteration # 19     ecut=    30.00 Ry     beta=0.70
     Davidson diagonalization with overlap
     ethr =  1.60E-09,  avg # of iterations =  1.0

     total cpu time spent up to now is        1.3 secs

     End of self-consistent calculation

          k = 0.0000 0.0000 0.0000 ( 22119 PWs)   bands (ev):

   -26.0654 -11.0481  -7.1453  -7.1452  -7.0018  -0.4491   0.5509   0.8261

     the Fermi energy is    -6.9735 ev

!    total energy              =     -31.85282436 Ry
     Harris-Foulkes estimate   =     -31.85282438 Ry
     estimated scf accuracy    <          1.6E-09 Ry

     convergence has been achieved in  19 iterations

     Forces acting on atoms (Ry/au):

     atom    1 type  2   force =     0.21831247    0.52634448    0.02089225
     atom    2 type  1   force =     0.00031684   -0.00045165    0.00035966
     atom    3 type  1   force =    -0.21862931   -0.52589283   -0.02125191

     Total force =     0.806194     Total SCF correction =     0.000019

     Molecular Dynamics Calculation

     Starting temperature  =  1000.00 K

     temperature is controlled by Andersen thermostat
     Collision frequency = 1.0000/timestep
     mass H                =     1.01
     mass O                =    16.00
     Time step             =   100.00 a.u.,  4.8378 femto-seconds

     Entering Dynamics:    iteration =     1
                           time      =   0.0048 pico-seconds


     Andersen thermostat:    3 collisions

ATOMIC_POSITIONS (bohr)
O       10.318791035  19.738405065  16.031565966
H       17.574875244   8.698698817   9.099030921
H        8.295085997  15.312059837  15.947526761


     kinetic energy (Ekin) =     0.00800707 Ry
     temperature           =   421.40499991 K 
     Ekin + Etot (const)   =   -31.84481729 Ry

     Linear momentum :   -0.0000000000    0.0000000000    0.0000000000

     Writing output data file pwscf.save
     Check: negative starting charge=   -0.353515
     NEW-OLD atomic charge density approx. for the potential
     Check: negative starting charge=   -0.344208

     negative rho (up, down):  4.038E-01 0.000E+00

     total cpu time spent up to now is        1.7 secs

     per-process dynamical memory:    20.4 Mb

     Self-consistent Calculation

     iteration #  1     ecut=    30.00 Ry     beta=0.70
     Davidson diagonalization with overlap
     ethr =  1.00E-06,  avg # of iterations = 17.0

     negative rho (up, down):  9.840E-02 0.000E+00

     total cpu time spent up to now is        1.9 secs

     total energy              =     -24.41460354 Ry
     Harris-Foulkes estimate   =     -33.10610400 Ry
     estimated scf accuracy    <       4.75544907 Ry

     iteration #  2     ecut=    30.00 Ry     beta=0.70
     Davidson diagonalization with overlap
     ethr =  1.00E-02,  avg # of iterations =  3.0

     negative rho (up, down):  7.146E-02 0.000E+00

     total cpu time spent up to now is        2.0 secs

     total energy              =     -32.16244483 Ry
     Harris-Foulkes estimate   =     -37.10551436 Ry
     estimated scf accuracy    <      12.11403807 Ry

     iteration #  3     ecut=    30.00 Ry     beta=0.70
     Davidson diagonalization with overlap
     ethr =  1.00E-02,  avg # of iterations =  2.0

     negative rho (up, down):  5.491E-02 0.000E+00

     total cpu time spent up to now is        2.0 secs

     total energy              =     -31.46979497 Ry
     Harris-Foulkes estimate   =     -32.53988296 Ry
     estimated scf accuracy    <       4.22463942 Ry

     iteration #  4     ecut=    30.00 Ry     beta=0.70
     Davidson diagonalization with overlap
     ethr =  1.00E-02,  avg # of iterations =  1.0

     negative rho (up, down):  4.288E-02 0.000E+00

     total cpu time spent up to now is        2.1 secs

     total energy              =     -31.39518215 Ry
     Harris-Foulkes estimate   =     -31.63948168 Ry
     estimated scf accuracy    <       0.93439658 Ry

     iteration #  5     ecut=    30.00 Ry     beta=0.70
     Davidson diagonalization with overlap
     ethr =  1.00E-02,  avg # of iterations =  1.0

     negative rho (up, down):  4.054E-02 0.000E+00

     total cpu time spent up to now is        2.1 secs

     total energy              =     -31.86944248 Ry
     Harris-Foulkes estimate   =     -31.92907177 Ry
     estimated scf accuracy    <       3.10130594 Ry

     iteration #  6     ecut=    30.00 Ry     beta=0.70
     Davidson diagonalization with overlap
     ethr =  1.00E-02,  avg # of iterations =  1.0

     negative rho (up, down):  1.333E-02 0.000E+00

     total cpu time spent up to now is        2.2 secs

     total energy              =     -30.95496613 Ry
     Harris-Foulkes estimate   =     -31.87010924 Ry
     estimated scf accuracy    <       2.99964985 Ry

     iteration #  7     ecut=    30.00 Ry     beta=0.70
     Davidson diagonalization with overlap
     ethr =  1.00E-02,  avg # of iterations =  1.0

     negative rho (up, down):  9.563E-03 0.000E+00

     total cpu time spent up to now is        2.2 secs

     total energy              =     -32.05506792 Ry
     Harris-Foulkes estimate   =     -32.16511296 Ry
     estimated scf accuracy    <       4.14202530 Ry

     iteration #  8     ecut=    30.00 Ry     beta=0.70
     Davidson diagonalization with overlap
     ethr =  1.00E-02,  avg # of iterations =  1.0

     negative rho (up, down):  9.346E-03 0.000E+00

     total cpu time spent up to now is        2.3 secs

     total energy              =     -31.93951840 Ry
     Harris-Foulkes estimate   =     -32.05782188 Ry
     estimated scf accuracy    <       3.91366689 Ry

     iteration #  9     ecut=    30.00 Ry     beta=0.70
     Davidson diagonalization with overlap
     ethr =  1.00E-02,  avg # of iterations =  1.0

     negative rho (up, down):  8.811E-03 0.000E+00

     total cpu time spent up to now is        2.3 secs

     total energy              =     -32.04472878 Ry
     Harris-Foulkes estimate   =     -31.94125860 Ry
     estimated scf accuracy    <       3.52054187 Ry

     iteration # 10     ecut=    30.00 Ry     beta=0.70
     Davidson diagonalization with overlap
     ethr =  1.00E-02,  avg # of iterations =  1.0

     negative rho (up, down):  4.156E-04 0.000E+00

     total cpu time spent up to now is        2.4 secs

     total energy              =     -32.56379943 Ry
     Harris-Foulkes estimate   =     -32.04572146 Ry
     estimated scf accuracy    <       3.83233414 Ry

     iteration # 11     ecut=    30.00 Ry     beta=0.70
     Davidson diagonalization with overlap
     ethr =  1.00E-02,  avg # of iterations =  1.0

     negative rho (up, down):  3.009E-04 0.000E+00

     total cpu time spent up to now is        2.4 secs

     total energy              =     -31.80781001 Ry
     Harris-Foulkes estimate   =     -32.59686236 Ry
     estimated scf accuracy    <       5.29923909 Ry

     iteration # 12     ecut=    30.00 Ry     beta=0.70
     Davidson diagonalization with overlap
     ethr =  1.00E-02,  avg # of iterations =  1.0

     negative rho (up, down):  6.049E-03 0.000E+00

     total cpu time spent up to now is        2.5 secs

     total energy              =     -31.04094001 Ry
     Harris-Foulkes estimate   =     -31.83358362 Ry
     estimated scf accuracy    <       3.52076064 Ry

     iteration # 13     ecut=    30.00 Ry     beta=0.70
     Davidson diagonalization with overlap
     ethr =  1.00E-02,  avg # of iterations =  1.0

     negative rho (up, down):  2.382E-03 0.000E+00

     total cpu time spent up to now is        2.5 secs

     total energy              =     -31.70708856 Ry
     Harris-Foulkes estimate   =     -31.99759478 Ry
     estimated scf accuracy    <       2.33370814 Ry

     iteration # 14     ecut=    30.00 Ry     beta=0.70
     Davidson diagonalization with overlap
     ethr =  1.00E-02,  avg # of iterations =  1.0

     negative rho (up, down):  2.930E-03 0.000E+00

     total cpu time spent up to now is        2.6 secs

     total energy              =     -31.96952564 Ry
     Harris-Foulkes estimate   =     -31.72955024 Ry
     estimated scf accuracy    <       1.08890892 Ry

     iteration # 15     ecut=    30.00 Ry     beta=0.70
     Davidson diagonalization with overlap
     ethr =  1.00E-02,  avg # of iterations =  1.0

     negative rho (up, down):  1.270E-03 0.000E+00

     total cpu time spent up to now is        2.6 secs

     total energy              =     -31.99033787 Ry
     Harris-Foulkes estimate   =     -32.00757864 Ry
     estimated scf accuracy    <       2.37912229 Ry

     iteration # 16     ecut=    30.00 Ry     beta=0.70
     Davidson diagonalization with overlap
     ethr =  1.00E-02,  avg # of iterations =  1.0

     negative rho (up, down):  2.012E-04 0.000E+00

     total cpu time spent up to now is        2.6 secs

     total energy              =     -32.01076848 Ry
     Harris-Foulkes estimate   =     -31.99069576 Ry
     estimated scf accuracy    <       2.27093165 Ry

     iteration # 17     ecut=    30.00 Ry     beta=0.70
     Davidson diagonalization with overlap
     ethr =  1.00E-02,  avg # of iterations =  1.0

     negative rho (up, down):  1.497E-04 0.000E+00

     total cpu time spent up to now is        2.7 secs

     total energy              =     -32.03724431 Ry
     Harris-Foulkes estimate   =     -32.01153633 Ry
     estimated scf accuracy    <       2.12716974 Ry

     iteration # 18     ecut=    30.00 Ry     beta=0.70
     Davidson diagonalization with overlap
     ethr =  1.00E-02,  avg # of iterations =  1.0

     negative rho (up, down):  8.846E-05 0.000E+00

     total cpu time spent up to now is        2.7 secs

     total energy              =     -32.08534927 Ry
     Harris-Foulkes estimate   =     -32.03724887 Ry
     estimated scf accuracy    <       2.17058544 Ry

     iteration # 19     ecut=    30.00 Ry     beta=0.70
     Davidson diagonalization with overlap
     ethr =  1.00E-02,  avg # of iterations =  1.0

     negative rho (up, down):  3.530E-04 0.000E+00

     total cpu time spent up to now is        2.8 secs

     total energy              =     -32.22340020 Ry
     Harris-Foulkes estimate   =     -32.08528705 Ry
     estimated scf accuracy    <       2.16207489 Ry

     iteration # 20     ecut=    30.00 Ry     beta=0.70
     Davidson diagonalization with overlap
     ethr =  1.00E-02,  avg # of iterations =  1.0

     negative rho (up, down):  2.883E-04 0.000E+00

     total cpu time spent up to now is        2.8 secs

     total energy              =     -32.01894082 Ry
     Harris-Foulkes estimate   =     -32.22882483 Ry
     estimated scf accuracy    <       2.77942290 Ry

     iteration # 21     ecut=    30.00 Ry     beta=0.70
     Davidson diagonalization with overlap
     ethr =  1.00E-02,  avg # of iterations =  1.0

     negative rho (up, down):  3.397E-02 0.000E+00

     total cpu time spent up to now is        2.9 secs

     total energy              =     -30.88658140 Ry
     Harris-Foulkes estimate   =     -32.04696172 Ry
     estimated scf accuracy    <       1.57608199 Ry

     iteration # 22     ecut=    30.00 Ry     beta=0.70
     Davidson diagonalization with overlap
     ethr =  1.00E-02,  avg # of iterations =  3.0

     negative rho (up, down):  3.785E-06 0.000E+00

     total cpu time spent up to now is        2.9 secs

     total energy              =     -31.58431882 Ry
     Harris-Foulkes estimate   =     -33.67411165 Ry
     estimated scf accuracy    <      14.87518418 Ry

     iteration # 23     ecut=    30.00 Ry     beta=0.70
     Davidson diagonalization with overlap
     ethr =  1.00E-02,  avg # of iterations =  2.0

     total cpu time spent up to now is        3.0 secs

     total energy              =     -31.27663635 Ry
     Harris-Foulkes estimate   =     -32.25807806 Ry
     estimated scf accuracy    <       4.94245412 Ry

     iteration # 24     ecut=    30.00 Ry     beta=0.70
     Davidson diagonalization with overlap
     ethr =  1.00E-02,  avg # of iterations =  2.0

     total cpu time spent up to now is        3.0 secs

     total energy              =     -31.50571231 Ry
     Harris-Foulkes estimate   =     -31.60360115 Ry
     estimated scf accuracy    <       1.34490591 Ry

     iteration # 25     ecut=    30.00 Ry     beta=0.70
     Davidson diagonalization with overlap
     ethr =  1.00E-02,  avg # of iterations =  1.0

     total cpu time spent up to now is        3.1 secs

     total energy              =     -31.43785535 Ry
     Harris-Foulkes estimate   =     -31.65904793 Ry
     estimated scf accuracy    <       1.12509704 Ry

     iteration # 26     ecut=    30.00 Ry     beta=0.70
     Davidson diagonalization with overlap
     ethr =  1.00E-02,  avg # of iterations =  1.0

     total cpu time spent up to now is        3.1 secs

     total energy              =     -31.56323583 Ry
     Harris-Foulkes estimate   =     -31.62675617 Ry
     estimated scf accuracy    <       1.06722081 Ry

     iteration # 27     ecut=    30.00 Ry     beta=0.70
     Davidson diagonalization with overlap
     ethr =  1.00E-02,  avg # of iterations =  1.0

     total cpu time spent up to now is        3.2 secs

     total energy              =     -31.61257980 Ry
     Harris-Foulkes estimate   =     -31.57351358 Ry
     estimated scf accuracy    <       0.43486748 Ry

     iteration # 28     ecut=    30.00 Ry     beta=0.70
     Davidson diagonalization with overlap
     ethr =  5.44E-03,  avg # of iterations =  1.0

     total cpu time spent up to now is        3.2 secs

     total energy              =     -31.55472425 Ry
     Harris-Foulkes estimate   =     -31.64639477 Ry
     estimated scf accuracy    <       1.23428070 Ry

     iteration # 29     ecut=    30.00 Ry     beta=0.70
     Davidson diagonalization with overlap
     ethr =  5.44E-03,  avg # of iterations =  1.0

     total cpu time spent up to now is        3.3 secs

     total energy              =     -31.54742590 Ry
     Harris-Foulkes estimate   =     -31.56307258 Ry
     estimated scf accuracy    <       0.17094162 Ry

     iteration # 30     ecut=    30.00 Ry     beta=0.70
     Davidson diagonalization with overlap
     ethr =  2.14E-03,  avg # of iterations =  1.0

     total cpu time spent up to now is        3.3 secs

     total energy              =     -31.59957961 Ry
     Harris-Foulkes estimate   =     -31.57982645 Ry
     estimated scf accuracy    <       1.30329228 Ry

     iteration # 31     ecut=    30.00 Ry     beta=0.70
     Davidson diagonalization with overlap
     ethr =  2.14E-03,  avg # of iterations =  1.0

     total cpu time spent up to now is        3.4 secs

     total energy              =     -31.63532477 Ry
     Harris-Foulkes estimate   =     -31.60128050 Ry
     estimated scf accuracy    <       1.59542503 Ry

     iteration # 32     ecut=    30.00 Ry     beta=0.70
     Davidson diagonalization with overlap
     ethr =  2.14E-03,  avg # of iterations =  1.0

     total cpu time spent up to now is        3.4 secs

     total energy              =     -31.55246859 Ry
     Harris-Foulkes estimate   =     -31.63346884 Ry
     estimated scf accuracy    <       1.25002860 Ry

     iteration # 33     ecut=    30.00 Ry     beta=0.70
     Davidson diagonalization with overlap
     ethr =  2.14E-03,  avg # of iterations =  1.0

     total cpu time spent up to now is        3.5 secs

     total energy              =     -31.57718929 Ry
     Harris-Foulkes estimate   =     -31.56093615 Ry
     estimated scf accuracy    <       0.01777693 Ry

     iteration # 34     ecut=    30.00 Ry     beta=0.70
     Davidson diagonalization with overlap
     ethr =  2.22E-04,  avg # of iterations =  2.0

     negative rho (up, down):  8.205E-05 0.000E+00

     total cpu time spent up to now is        3.5 secs

     total energy              =     -31.52440620 Ry
     Harris-Foulkes estimate   =     -31.65502299 Ry
     estimated scf accuracy    <       1.30181587 Ry

     iteration # 35     ecut=    30.00 Ry     beta=0.70
     Davidson diagonalization with overlap
     ethr =  2.22E-04,  avg # of iterations =  2.0

     negative rho (up, down):  4.531E-06 0.000E+00

     total cpu time spent up to now is        3.6 secs

     total energy              =     -31.54646166 Ry
     Harris-Foulkes estimate   =     -31.56946973 Ry
     estimated scf accuracy    <       0.53094932 Ry

     iteration # 36     ecut=    30.00 Ry     beta=0.70
     Davidson diagonalization with overlap
     ethr =  2.22E-04,  avg # of iterations =  1.0

     negative rho (up, down):  6.825E-07 0.000E+00

     total cpu time spent up to now is        3.6 secs

     total energy              =     -31.57471331 Ry
     Harris-Foulkes estimate   =     -31.56256346 Ry
     estimated scf accuracy    <       0.16245596 Ry

     iteration # 37     ecut=    30.00 Ry     beta=0.70
     Davidson diagonalization with overlap
     ethr =  2.22E-04,  avg # of iterations =  1.0

     negative rho (up, down):  1.704E-07 0.000E+00

     total cpu time spent up to now is        3.7 secs

     total energy              =     -31.55682077 Ry
     Harris-Foulkes estimate   =     -31.58911038 Ry
     estimated scf accuracy    <       1.59195973 Ry

     iteration # 38     ecut=    30.00 Ry     beta=0.70
     Davidson diagonalization with overlap
     ethr =  2.22E-04,  avg # of iterations =  1.0

     negative rho (up, down):  5.829E-07 0.000E+00

     total cpu time spent up to now is        3.7 secs

     total energy              =     -31.56252960 Ry
     Harris-Foulkes estimate   =     -31.56406695 Ry
     estimated scf accuracy    <       0.28542874 Ry

     iteration # 39     ecut=    30.00 Ry     beta=0.70
     Davidson diagonalization with overlap
     ethr =  2.22E-04,  avg # of iterations =  1.0

     total cpu time spent up to now is        3.8 secs

     total energy              =     -31.55985346 Ry
     Harris-Foulkes estimate   =     -31.56269723 Ry
     estimated scf accuracy    <       0.17318468 Ry

     iteration # 40     ecut=    30.00 Ry     beta=0.70
     Davidson diagonalization with overlap
     ethr =  2.22E-04,  avg # of iterations =  1.0

     total cpu time spent up to now is        3.8 secs

     total energy              =     -31.56043537 Ry
     Harris-Foulkes estimate   =     -31.56079125 Ry
     estimated scf accuracy    <       0.01829817 Ry

     iteration # 41     ecut=    30.00 Ry     beta=0.70
     Davidson diagonalization with overlap
     ethr =  2.22E-04,  avg # of iterations =  1.0

     total cpu time spent up to now is        3.9 secs

     total energy              =     -31.56056779 Ry
     Harris-Foulkes estimate   =     -31.56056281 Ry
     estimated scf accuracy    <       0.00136270 Ry

     iteration # 42     ecut=    30.00 Ry     beta=0.70
     Davidson diagonalization with overlap
     ethr =  1.70E-05,  avg # of iterations =  1.0

     negative rho (up, down):  1.372E-07 0.000E+00

     total cpu time spent up to now is        3.9 secs

     total energy              =     -31.56064131 Ry
     Harris-Foulkes estimate   =     -31.56056991 Ry
     estimated scf accuracy    <       0.00230544 Ry

     iteration # 43     ecut=    30.00 Ry     beta=0.70
     Davidson diagonalization with overlap
     ethr =  1.70E-05,  avg # of iterations =  1.0

     negative rho (up, down):  2.399E-08 0.000E+00

     total cpu time spent up to now is        4.0 secs

     total energy              =     -31.56082830 Ry
     Harris-Foulkes estimate   =     -31.56069991 Ry
     estimated scf accuracy    <       0.01345288 Ry

     iteration # 44     ecut=    30.00 Ry     beta=0.70
     Davidson diagonalization with overlap
     ethr =  1.70E-05,  avg # of iterations =  1.0

     total cpu time spent up to now is        4.0 secs

     total energy              =     -31.55990376 Ry
     Harris-Foulkes estimate   =     -31.56085792 Ry
     estimated scf accuracy    <       0.02754924 Ry

     iteration # 45     ecut=    30.00 Ry     beta=0.70
     Davidson diagonalization with overlap
     ethr =  1.70E-05,  avg # of iterations =  1.0

     total cpu time spent up to now is        4.1 secs

     total energy              =     -31.56039763 Ry
     Harris-Foulkes estimate   =     -31.56052923 Ry
     estimated scf accuracy    <       0.00293255 Ry

     iteration # 46     ecut=    30.00 Ry     beta=0.70
     Davidson diagonalization with overlap
     ethr =  1.70E-05,  avg # of iterations =  1.0

     total cpu time spent up to now is        4.1 secs

     total energy              =     -31.56046984 Ry
     Harris-Foulkes estimate   =     -31.56050801 Ry
     estimated scf accuracy    <       0.00156034 Ry

     iteration # 47     ecut=    30.00 Ry     beta=0.70
     Davidson diagonalization with overlap
     ethr =  1.70E-05,  avg # of iterations =  1.0

     total cpu time spent up to now is        4.2 secs

     total energy              =     -31.56048859 Ry
     Harris-Foulkes estimate   =     -31.56048868 Ry
     estimated scf accuracy    <       0.00000014 Ry

     iteration # 48     ecut=    30.00 Ry     beta=0.70
     Davidson diagonalization with overlap
     ethr =  1.74E-09,  avg # of iterations = 13.0

     total cpu time spent up to now is        4.2 secs

     End of self-consistent calculation

          k = 0.0000 0.0000 0.0000 ( 22119 PWs)   bands (ev):

   -23.6136  -7.7016  -6.9439  -6.9434  -6.8137  -6.4024  -0.1662   0.7014

     the Fermi energy is    -6.7804 ev

!    total energy              =     -31.56048855 Ry
     Harris-Foulkes estimate   =     -31.56048860 Ry
     estimated scf accuracy    <          3.8E-09 Ry

     convergence has been achieved in  48 iterations

     Forces acting on atoms (Ry/au):

     atom    1 type  2   force =    -0.02618072   -0.05878974   -0.00291421
     atom    2 type  1   force =    -0.00044200   -0.00006934    0.00083022
     atom    3 type  1   force =     0.02662272    0.05885908    0.00208399

     Total force =     0.091261     Total SCF correction =     0.000094

     Entering Dynamics:    iteration =     2
                           time      =   0.0097 pico-seconds


     Andersen thermostat:    3 collisions

ATOMIC_POSITIONS (bohr)
O       10.314709841  19.717456918  16.055637157
H       17.395411728   8.092792201   8.613121099
H        8.539202095  16.249818290  16.052110773


     kinetic energy (Ekin) =     0.04874060 Ry
     temperature           =  2565.17429204 K 
     Ekin + Etot (const)   =   -31.51174795 Ry
     Message from routine dynamics:
     Total linear momentum <> 0

     Linear momentum :    0.0950338544    0.1559706444    0.0486952627

     Writing output data file pwscf.save

     first order wave-functions extrapolation
     Check: negative starting charge=   -0.344208
     first order charge density extrapolation
     Check: negative starting charge=   -0.345169

     negative rho (up, down):  4.987E-01 0.000E+00

     total cpu time spent up to now is        4.7 secs

     per-process dynamical memory:    20.4 Mb

     Self-consistent Calculation

     iteration #  1     ecut=    30.00 Ry     beta=0.70
     Davidson diagonalization with overlap
     ethr =  1.00E-06,  avg # of iterations = 10.0

     negative rho (up, down):  1.218E-01 0.000E+00

     total cpu time spent up to now is        4.9 secs

     total energy              =      37.24713060 Ry
     Harris-Foulkes estimate   =    -186.89148853 Ry
     estimated scf accuracy    <      19.09257975 Ry

     iteration #  2     ecut=    30.00 Ry     beta=0.70
     Davidson diagonalization with overlap
     ethr =  1.00E-02,  avg # of iterations =  7.0

     negative rho (up, down):  7.814E-02 0.000E+00

     total cpu time spent up to now is        5.0 secs

     total energy              =     -33.28136754 Ry
     Harris-Foulkes estimate   =     -43.36728358 Ry
     estimated scf accuracy    <      20.91420494 Ry

     iteration #  3     ecut=    30.00 Ry     beta=0.70
     Davidson diagonalization with overlap
     ethr =  1.00E-02,  avg # of iterations =  3.0

     negative rho (up, down):  5.560E-02 0.000E+00

     total cpu time spent up to now is        5.0 secs

     total energy              =     -31.33758464 Ry
     Harris-Foulkes estimate   =     -36.01758592 Ry
     estimated scf accuracy    <       7.79880246 Ry

     iteration #  4     ecut=    30.00 Ry     beta=0.70
     Davidson diagonalization with overlap
     ethr =  1.00E-02,  avg # of iterations =  4.0

     negative rho (up, down):  3.400E-02 0.000E+00

     total cpu time spent up to now is        5.1 secs

     total energy              =     -32.38536373 Ry
     Harris-Foulkes estimate   =     -33.49389736 Ry
     estimated scf accuracy    <       3.83872232 Ry

     iteration #  5     ecut=    30.00 Ry     beta=0.70
     Davidson diagonalization with overlap
     ethr =  1.00E-02,  avg # of iterations =  1.0

     negative rho (up, down):  2.443E-02 0.000E+00

     total cpu time spent up to now is        5.1 secs

     total energy              =     -31.91987324 Ry
     Harris-Foulkes estimate   =     -32.52944237 Ry
     estimated scf accuracy    <       2.64297358 Ry

     iteration #  6     ecut=    30.00 Ry     beta=0.70
     Davidson diagonalization with overlap
     ethr =  1.00E-02,  avg # of iterations =  1.0

     negative rho (up, down):  2.172E-02 0.000E+00

     total cpu time spent up to now is        5.2 secs

     total energy              =     -31.79976224 Ry
     Harris-Foulkes estimate   =     -32.04140704 Ry
     estimated scf accuracy    <       2.30742472 Ry

     iteration #  7     ecut=    30.00 Ry     beta=0.70
     Davidson diagonalization with overlap
     ethr =  1.00E-02,  avg # of iterations =  1.0

     negative rho (up, down):  1.408E-02 0.000E+00

     total cpu time spent up to now is        5.2 secs

     total energy              =     -31.61534655 Ry
     Harris-Foulkes estimate   =     -31.91241496 Ry
     estimated scf accuracy    <       1.51474447 Ry

     iteration #  8     ecut=    30.00 Ry     beta=0.70
     Davidson diagonalization with overlap
     ethr =  1.00E-02,  avg # of iterations =  1.0

     negative rho (up, down):  1.182E-02 0.000E+00

     total cpu time spent up to now is        5.3 secs

     total energy              =     -31.71838739 Ry
     Harris-Foulkes estimate   =     -31.75714693 Ry
     estimated scf accuracy    <       1.87498329 Ry

     iteration #  9     ecut=    30.00 Ry     beta=0.70
     Davidson diagonalization with overlap
     ethr =  1.00E-02,  avg # of iterations =  1.0

     negative rho (up, down):  1.008E-02 0.000E+00

     total cpu time spent up to now is        5.3 secs

     total energy              =     -31.74794976 Ry
     Harris-Foulkes estimate   =     -31.72297374 Ry
     estimated scf accuracy    <       1.81931386 Ry

     iteration # 10     ecut=    30.00 Ry     beta=0.70
     Davidson diagonalization with overlap
     ethr =  1.00E-02,  avg # of iterations =  1.0

     negative rho (up, down):  8.334E-04 0.000E+00

     total cpu time spent up to now is        5.3 secs

     total energy              =     -32.07635215 Ry
     Harris-Foulkes estimate   =     -31.74554127 Ry
     estimated scf accuracy    <       1.49959945 Ry

     iteration # 11     ecut=    30.00 Ry     beta=0.70
     Davidson diagonalization with overlap
     ethr =  1.00E-02,  avg # of iterations =  3.0

     negative rho (up, down):  1.277E-02 0.000E+00

     total cpu time spent up to now is        5.4 secs

     total energy              =     -36.11789229 Ry
     Harris-Foulkes estimate   =     -32.94362460 Ry
     estimated scf accuracy    <       5.22356326 Ry

     iteration # 12     ecut=    30.00 Ry     beta=0.70
     Davidson diagonalization with overlap
     ethr =  1.00E-02,  avg # of iterations =  4.0

     negative rho (up, down):  1.146E-02 0.000E+00

     total cpu time spent up to now is        5.5 secs

     total energy              =     -30.18476995 Ry
     Harris-Foulkes estimate   =     -42.50594415 Ry
     estimated scf accuracy    <       8.52891121 Ry

     iteration # 13     ecut=    30.00 Ry     beta=0.70
     Davidson diagonalization with overlap
     ethr =  1.00E-02,  avg # of iterations =  3.0

     negative rho (up, down):  1.212E-02 0.000E+00

     total cpu time spent up to now is        5.5 secs

     total energy              =     -30.83799509 Ry
     Harris-Foulkes estimate   =     -35.46818520 Ry
     estimated scf accuracy    <       7.05566565 Ry

     iteration # 14     ecut=    30.00 Ry     beta=0.70
     Davidson diagonalization with overlap
     ethr =  1.00E-02,  avg # of iterations =  3.0

     negative rho (up, down):  4.574E-03 0.000E+00

     total cpu time spent up to now is        5.6 secs

     total energy              =     -33.00532993 Ry
     Harris-Foulkes estimate   =     -33.14242338 Ry
     estimated scf accuracy    <       5.23700428 Ry

     iteration # 15     ecut=    30.00 Ry     beta=0.70
     Davidson diagonalization with overlap
     ethr =  1.00E-02,  avg # of iterations =  3.0

     negative rho (up, down):  3.298E-02 0.000E+00

     total cpu time spent up to now is        5.6 secs

     total energy              =     839.69307588 Ry
     Harris-Foulkes estimate   =     -33.82961013 Ry
     estimated scf accuracy    <       5.48430201 Ry

     iteration # 16     ecut=    30.00 Ry     beta=0.70
     Davidson diagonalization with overlap
     ethr =  1.00E-02,  avg # of iterations =  4.0

     negative rho (up, down):  1.002E-02 0.000E+00

     total cpu time spent up to now is        5.7 secs

     total energy              =     -22.87687354 Ry
     Harris-Foulkes estimate   =     -48.47872200 Ry
     estimated scf accuracy    <       9.31528589 Ry

     iteration # 17     ecut=    30.00 Ry     beta=0.70
     Davidson diagonalization with overlap
     ethr =  1.00E-02,  avg # of iterations =  4.0

     negative rho (up, down):  3.879E-02 0.000E+00

     total cpu time spent up to now is        5.7 secs

     total energy              =     -50.93462867 Ry
     Harris-Foulkes estimate   =     -48.05166970 Ry
     estimated scf accuracy    <       6.38919925 Ry

     iteration # 18     ecut=    30.00 Ry     beta=0.70
     Davidson diagonalization with overlap
     ethr =  1.00E-02,  avg # of iterations =  5.0

     negative rho (up, down):  1.443E-01 0.000E+00

     total cpu time spent up to now is        5.8 secs

     total energy              =     -24.40037043 Ry
     Harris-Foulkes estimate   =    -189.38340594 Ry
     estimated scf accuracy    <      43.21641485 Ry

     iteration # 19     ecut=    30.00 Ry     beta=0.70
     Davidson diagonalization with overlap
     ethr =  1.00E-02,  avg # of iterations =  6.0

     negative rho (up, down):  5.555E-01 0.000E+00

     total cpu time spent up to now is        5.9 secs

     total energy              =    -254.25901920 Ry
     Harris-Foulkes estimate   =    -168.96335696 Ry
     estimated scf accuracy    <      64.42047736 Ry

     iteration # 20     ecut=    30.00 Ry     beta=0.70
     Davidson diagonalization with overlap
     ethr =  1.00E-02,  avg # of iterations =  7.0

     negative rho (up, down):  5.111E-01 0.000E+00

     total cpu time spent up to now is        6.0 secs

     total energy              =     -40.69992893 Ry
     Harris-Foulkes estimate   =   -1414.01022255 Ry
     estimated scf accuracy    <      68.96336459 Ry

     iteration # 21     ecut=    30.00 Ry     beta=0.70
     Davidson diagonalization with overlap
     ethr =  1.00E-02,  avg # of iterations =  6.0

     negative rho (up, down):  5.844E-01 0.000E+00

     total cpu time spent up to now is        6.1 secs

     total energy              =   -2691.87296081 Ry
     Harris-Foulkes estimate   =   -1493.68859219 Ry
     estimated scf accuracy    <      64.43744721 Ry

     iteration # 22     ecut=    30.00 Ry     beta=0.70
     Davidson diagonalization with overlap
     ethr =  1.00E-02,  avg # of iterations = 11.0

     negative rho (up, down):  5.306E-01 0.000E+00

     total cpu time spent up to now is        6.2 secs

     total energy              =    -280.61377478 Ry
     Harris-Foulkes estimate   =  -10948.34110976 Ry
     estimated scf accuracy    <      62.59648478 Ry

     iteration # 23     ecut=    30.00 Ry     beta=0.70
     Davidson diagonalization with overlap
     ethr =  1.00E-02,  avg # of iterations =  7.0

     negative rho (up, down):  6.208E-01 0.000E+00

     total cpu time spent up to now is        6.3 secs

     total energy              =      23.53451302 Ry
     Harris-Foulkes estimate   =   -8389.72640754 Ry
     estimated scf accuracy    <      62.80266481 Ry

     iteration # 24     ecut=    30.00 Ry     beta=0.70
     Davidson diagonalization with overlap
     ethr =  1.00E-02,  avg # of iterations =  9.0

     negative rho (up, down):  9.535E-01 0.000E+00

     total cpu time spent up to now is        6.4 secs

     total energy              =     -74.40015291 Ry
     Harris-Foulkes estimate   =    -588.28865296 Ry
     estimated scf accuracy    <      60.73892651 Ry

     iteration # 25     ecut=    30.00 Ry     beta=0.70
     Davidson diagonalization with overlap
     ethr =  1.00E-02,  avg # of iterations =  6.0

     negative rho (up, down):  1.135E+00 0.000E+00

     total cpu time spent up to now is        6.4 secs

     total energy              =    -185.62437117 Ry
     Harris-Foulkes estimate   =   -1376.60784675 Ry
     estimated scf accuracy    <      51.37249005 Ry

     iteration # 26     ecut=    30.00 Ry     beta=0.70
     Davidson diagonalization with overlap
     ethr =  1.00E-02,  avg # of iterations =  6.0

     negative rho (up, down):  2.445E+00 0.000E+00

     total cpu time spent up to now is        6.5 secs

     total energy              =      67.03961493 Ry
     Harris-Foulkes estimate   =   -3068.18950708 Ry
     estimated scf accuracy    <      54.08248123 Ry

     iteration # 27     ecut=    30.00 Ry     beta=0.70
     Davidson diagonalization with overlap
     ethr =  1.00E-02,  avg # of iterations =  9.0

     negative rho (up, down):  1.731E+00 0.000E+00

     total cpu time spent up to now is        6.6 secs

     total energy              =    -494.00609314 Ry
     Harris-Foulkes estimate   =   -4777.57826075 Ry
     estimated scf accuracy    <      35.56422829 Ry

     iteration # 28     ecut=    30.00 Ry     beta=0.70
     Davidson diagonalization with overlap
     ethr =  1.00E-02,  avg # of iterations =  7.0

     negative rho (up, down):  1.053E+00 0.000E+00

     total cpu time spent up to now is        6.7 secs

     total energy              =      23.46062016 Ry
     Harris-Foulkes estimate   =  -11377.09258781 Ry
     estimated scf accuracy    <      24.26302243 Ry

     iteration # 29     ecut=    30.00 Ry     beta=0.70
     Davidson diagonalization with overlap
     ethr =  1.00E-02,  avg # of iterations =  8.0

     negative rho (up, down):  1.057E+00 0.000E+00

     total cpu time spent up to now is        6.8 secs

     total energy              =    -758.60808027 Ry
     Harris-Foulkes estimate   =   -3459.53616692 Ry
     estimated scf accuracy    <      20.73502722 Ry

     iteration # 30     ecut=    30.00 Ry     beta=0.70
     Davidson diagonalization with overlap
     ethr =  1.00E-02,  avg # of iterations =  7.0

     negative rho (up, down):  7.595E-01 0.000E+00

     total cpu time spent up to now is        6.9 secs

     total energy              =    -383.49272025 Ry
     Harris-Foulkes estimate   =   -9523.53649293 Ry
     estimated scf accuracy    <      20.99241567 Ry

     iteration # 31     ecut=    30.00 Ry     beta=0.70
     Davidson diagonalization with overlap
     ethr =  1.00E-02,  avg # of iterations = 12.0

     negative rho (up, down):  6.084E-01 0.000E+00

     total cpu time spent up to now is        7.0 secs

     total energy              =   -1966.73952296 Ry
     Harris-Foulkes estimate   =   -2792.31942794 Ry
     estimated scf accuracy    <      21.80031356 Ry

     iteration # 32     ecut=    30.00 Ry     beta=0.70
     Davidson diagonalization with overlap
     ethr =  1.00E-02,  avg # of iterations =  6.0

     negative rho (up, down):  3.177E-01 0.000E+00

     total cpu time spent up to now is        7.0 secs

     total energy              =      32.28804149 Ry
     Harris-Foulkes estimate   =  -14585.24491875 Ry
     estimated scf accuracy    <      18.94074365 Ry

     iteration # 33     ecut=    30.00 Ry     beta=0.70
     Davidson diagonalization with overlap
     ethr =  1.00E-02,  avg # of iterations =  6.0

     negative rho (up, down):  2.560E-02 0.000E+00

     total cpu time spent up to now is        7.1 secs

     total energy              =     158.13136013 Ry
     Harris-Foulkes estimate   =   -4727.68112791 Ry
     estimated scf accuracy    <      23.10256662 Ry

     iteration # 34     ecut=    30.00 Ry     beta=0.70
     Davidson diagonalization with overlap
     ethr =  1.00E-02,  avg # of iterations = 11.0

     negative rho (up, down):  3.193E-03 0.000E+00

     total cpu time spent up to now is        7.2 secs

     total energy              =     -25.24369896 Ry
     Harris-Foulkes estimate   =     -96.80860875 Ry
     estimated scf accuracy    <      50.27707027 Ry

     iteration # 35     ecut=    30.00 Ry     beta=0.70
     Davidson diagonalization with overlap
     ethr =  1.00E-02,  avg # of iterations =  5.0

     negative rho (up, down):  1.742E-02 0.000E+00

     total cpu time spent up to now is        7.3 secs

     total energy              =     -68.50810983 Ry
     Harris-Foulkes estimate   =     -65.10569845 Ry
     estimated scf accuracy    <      47.02357840 Ry

     iteration # 36     ecut=    30.00 Ry     beta=0.70
     Davidson diagonalization with overlap
     ethr =  1.00E-02,  avg # of iterations =  1.0

     negative rho (up, down):  2.849E-02 0.000E+00

     total cpu time spent up to now is        7.4 secs

     total energy              =     -76.85451443 Ry
     Harris-Foulkes estimate   =     -68.51351682 Ry
     estimated scf accuracy    <      51.03160543 Ry

     iteration # 37     ecut=    30.00 Ry     beta=0.70
     Davidson diagonalization with overlap
     ethr =  1.00E-02,  avg # of iterations =  2.0

     negative rho (up, down):  2.311E-02 0.000E+00

     total cpu time spent up to now is        7.4 secs

     total energy              =     -71.20359818 Ry
     Harris-Foulkes estimate   =     -76.88946935 Ry
     estimated scf accuracy    <      61.96244159 Ry

     iteration # 38     ecut=    30.00 Ry     beta=0.70
     Davidson diagonalization with overlap
     ethr =  1.00E-02,  avg # of iterations =  1.0

     negative rho (up, down):  8.226E-02 0.000E+00

     total cpu time spent up to now is        7.5 secs

     total energy              =    -105.95454333 Ry
     Harris-Foulkes estimate   =     -71.21718282 Ry
     estimated scf accuracy    <      54.67317733 Ry

     iteration # 39     ecut=    30.00 Ry     beta=0.70
     Davidson diagonalization with overlap
     ethr =  1.00E-02,  avg # of iterations =  6.0

     negative rho (up, down):  4.135E-02 0.000E+00

     total cpu time spent up to now is        7.5 secs

     total energy              =      31.50761204 Ry
     Harris-Foulkes estimate   =    -291.29543695 Ry
     estimated scf accuracy    <      31.22421017 Ry

     iteration # 40     ecut=    30.00 Ry     beta=0.70
     Davidson diagonalization with overlap
     ethr =  1.00E-02,  avg # of iterations =  7.0

     negative rho (up, down):  1.685E-02 0.000E+00

     total cpu time spent up to now is        7.6 secs

     total energy              =     126.32154563 Ry
     Harris-Foulkes estimate   =    -763.28903590 Ry
     estimated scf accuracy    <      15.61994427 Ry

     iteration # 41     ecut=    30.00 Ry     beta=0.70
     Davidson diagonalization with overlap
     ethr =  1.00E-02,  avg # of iterations =  6.0

     negative rho (up, down):  1.021E-01 0.000E+00

     total cpu time spent up to now is        7.7 secs

     total energy              =     -71.13929393 Ry
     Harris-Foulkes estimate   =     -72.98283709 Ry
     estimated scf accuracy    <      57.05747069 Ry

     iteration # 42     ecut=    30.00 Ry     beta=0.70
     Davidson diagonalization with overlap
     ethr =  1.00E-02,  avg # of iterations = 11.0

     negative rho (up, down):  9.688E-02 0.000E+00

     total cpu time spent up to now is        7.8 secs

     total energy              =      82.75250873 Ry
     Harris-Foulkes estimate   =    -211.07530691 Ry
     estimated scf accuracy    <      30.48460999 Ry

     iteration # 43     ecut=    30.00 Ry     beta=0.70
     Davidson diagonalization with overlap
     ethr =  1.00E-02,  avg # of iterations =  6.0

     negative rho (up, down):  7.632E-03 0.000E+00

     total cpu time spent up to now is        7.9 secs

     total energy              =      66.10145343 Ry
     Harris-Foulkes estimate   =    -699.14501063 Ry
     estimated scf accuracy    <      17.34964584 Ry

     iteration # 44     ecut=    30.00 Ry     beta=0.70
     Davidson diagonalization with overlap
     ethr =  1.00E-02,  avg # of iterations =  5.0

     negative rho (up, down):  1.251E-05 0.000E+00

     total cpu time spent up to now is        7.9 secs

     total energy              =     -13.87073015 Ry
     Harris-Foulkes estimate   =    -448.52542885 Ry
     estimated scf accuracy    <      27.37413673 Ry

     iteration # 45     ecut=    30.00 Ry     beta=0.70
     Davidson diagonalization with overlap
     ethr =  1.00E-02,  avg # of iterations =  8.0

     negative rho (up, down):  4.114E-03 0.000E+00

     total cpu time spent up to now is        8.0 secs

     total energy              =     -63.43358218 Ry
     Harris-Foulkes estimate   =     -62.09867782 Ry
     estimated scf accuracy    <      43.33657883 Ry

     iteration # 46     ecut=    30.00 Ry     beta=0.70
     Davidson diagonalization with overlap
     ethr =  1.00E-02,  avg # of iterations =  1.0

     negative rho (up, down):  7.481E-03 0.000E+00

     total cpu time spent up to now is        8.1 secs

     total energy              =     -60.53766062 Ry
     Harris-Foulkes estimate   =     -63.43458614 Ry
     estimated scf accuracy    <      45.08666025 Ry

     iteration # 47     ecut=    30.00 Ry     beta=0.70
     Davidson diagonalization with overlap
     ethr =  1.00E-02,  avg # of iterations =  4.0

     negative rho (up, down):  8.422E-02 0.000E+00

     total cpu time spent up to now is        8.1 secs

     total energy              =     -47.62092653 Ry
     Harris-Foulkes estimate   =    -165.91975231 Ry
     estimated scf accuracy    <      26.66583557 Ry

     iteration # 48     ecut=    30.00 Ry     beta=0.70
     Davidson diagonalization with overlap
     ethr =  1.00E-02,  avg # of iterations =  5.0

     negative rho (up, down):  1.206E-01 0.000E+00

     total cpu time spent up to now is        8.2 secs

     total energy              =      31.05013058 Ry
     Harris-Foulkes estimate   =    -410.58735808 Ry
     estimated scf accuracy    <      27.42408179 Ry

     iteration # 49     ecut=    30.00 Ry     beta=0.70
     Davidson diagonalization with overlap
     ethr =  1.00E-02,  avg # of iterations =  5.0

     negative rho (up, down):  3.464E-01 0.000E+00

     total cpu time spent up to now is        8.3 secs

     total energy              =      -6.12380111 Ry
     Harris-Foulkes estimate   =    -157.34341673 Ry
     estimated scf accuracy    <      15.49629511 Ry

     iteration # 50     ecut=    30.00 Ry     beta=0.70
     Davidson diagonalization with overlap
     ethr =  1.00E-02,  avg # of iterations =  9.0

     negative rho (up, down):  3.144E-02 0.000E+00

     total cpu time spent up to now is        8.4 secs

     total energy              =     130.93057856 Ry
     Harris-Foulkes estimate   =    -926.55771811 Ry
     estimated scf accuracy    <      41.45519028 Ry

     iteration # 51     ecut=    30.00 Ry     beta=0.70
     Davidson diagonalization with overlap
     ethr =  1.00E-02,  avg # of iterations = 13.0

     negative rho (up, down):  4.848E-02 0.000E+00

     total cpu time spent up to now is        8.5 secs

     total energy              =     -19.03530709 Ry
     Harris-Foulkes estimate   =     -53.01491008 Ry
     estimated scf accuracy    <      16.38456280 Ry

     iteration # 52     ecut=    30.00 Ry     beta=0.70
     Davidson diagonalization with overlap
     ethr =  1.00E-02,  avg # of iterations =  6.0

     negative rho (up, down):  7.764E-02 0.000E+00

     total cpu time spent up to now is        8.6 secs

     total energy              =      49.18141795 Ry
     Harris-Foulkes estimate   =    -587.13338152 Ry
     estimated scf accuracy    <      23.77632001 Ry

     iteration # 53     ecut=    30.00 Ry     beta=0.70
     Davidson diagonalization with overlap
     ethr =  1.00E-02,  avg # of iterations =  5.0

     negative rho (up, down):  1.409E-01 0.000E+00

     total cpu time spent up to now is        8.6 secs

     total energy              =   -1620.07899554 Ry
     Harris-Foulkes estimate   =    -153.95017399 Ry
     estimated scf accuracy    <      28.56116980 Ry

     iteration # 54     ecut=    30.00 Ry     beta=0.70
     Davidson diagonalization with overlap
     ethr =  1.00E-02,  avg # of iterations =  7.0

     negative rho (up, down):  1.484E-01 0.000E+00

     total cpu time spent up to now is        8.7 secs

     total energy              =      43.23476195 Ry
     Harris-Foulkes estimate   =   -6701.08890329 Ry
     estimated scf accuracy    <      16.34882186 Ry

     iteration # 55     ecut=    30.00 Ry     beta=0.70
     Davidson diagonalization with overlap
     ethr =  1.00E-02,  avg # of iterations =  5.0

     negative rho (up, down):  2.902E-01 0.000E+00

     total cpu time spent up to now is        8.8 secs

     total energy              =       1.74620862 Ry
     Harris-Foulkes estimate   =    -339.14360380 Ry
     estimated scf accuracy    <      10.39464753 Ry

     iteration # 56     ecut=    30.00 Ry     beta=0.70
     Davidson diagonalization with overlap
     ethr =  1.00E-02,  avg # of iterations =  6.0

     negative rho (up, down):  3.880E-01 0.000E+00

     total cpu time spent up to now is        8.9 secs

     total energy              =      59.05562084 Ry
     Harris-Foulkes estimate   =    -883.14873454 Ry
     estimated scf accuracy    <      22.80412317 Ry

     iteration # 57     ecut=    30.00 Ry     beta=0.70
     Davidson diagonalization with overlap
     ethr =  1.00E-02,  avg # of iterations =  9.0

     negative rho (up, down):  2.526E-01 0.000E+00

     total cpu time spent up to now is        8.9 secs

     total energy              =     -39.50010649 Ry
     Harris-Foulkes estimate   =    -394.11415079 Ry
     estimated scf accuracy    <      48.27279457 Ry

     iteration # 58     ecut=    30.00 Ry     beta=0.70
     Davidson diagonalization with overlap
     ethr =  1.00E-02,  avg # of iterations =  5.0

     negative rho (up, down):  1.881E-01 0.000E+00

     total cpu time spent up to now is        9.0 secs

     total energy              =     108.80446540 Ry
     Harris-Foulkes estimate   =   -1831.48798257 Ry
     estimated scf accuracy    <      46.31905283 Ry

     iteration # 59     ecut=    30.00 Ry     beta=0.70
     Davidson diagonalization with overlap
     ethr =  1.00E-02,  avg # of iterations =  8.0

     negative rho (up, down):  3.514E-01 0.000E+00

     total cpu time spent up to now is        9.1 secs

     total energy              =      -3.43420600 Ry
     Harris-Foulkes estimate   =    -512.84152269 Ry
     estimated scf accuracy    <      13.13194342 Ry

     iteration # 60     ecut=    30.00 Ry     beta=0.70
     Davidson diagonalization with overlap
     ethr =  1.00E-02,  avg # of iterations =  6.0

     negative rho (up, down):  4.563E-01 0.000E+00

     total cpu time spent up to now is        9.2 secs

     total energy              =   -7769.80978837 Ry
     Harris-Foulkes estimate   =    -857.39870105 Ry
     estimated scf accuracy    <      41.82866610 Ry

     iteration # 61     ecut=    30.00 Ry     beta=0.70
     Davidson diagonalization with overlap
     ethr =  1.00E-02,  avg # of iterations = 11.0

     negative rho (up, down):  4.475E-01 0.000E+00

     total cpu time spent up to now is        9.3 secs

     total energy              =      30.24423549 Ry
     Harris-Foulkes estimate   =  -29153.43462123 Ry
     estimated scf accuracy    <      40.33518768 Ry

     iteration # 62     ecut=    30.00 Ry     beta=0.70
     Davidson diagonalization with overlap
     ethr =  1.00E-02,  avg # of iterations =  7.0

     negative rho (up, down):  3.675E-01 0.000E+00

     total cpu time spent up to now is        9.4 secs

     total energy              =    -117.97021554 Ry
     Harris-Foulkes estimate   =    -582.05223820 Ry
     estimated scf accuracy    <      41.03496751 Ry

     iteration # 63     ecut=    30.00 Ry     beta=0.70
     Davidson diagonalization with overlap
     ethr =  1.00E-02,  avg # of iterations =  8.0

     negative rho (up, down):  4.642E-01 0.000E+00

     total cpu time spent up to now is        9.4 secs

     total energy              =    -830.73264568 Ry
     Harris-Foulkes estimate   =   -4056.53828704 Ry
     estimated scf accuracy    <      34.99674323 Ry

     iteration # 64     ecut=    30.00 Ry     beta=0.70
     Davidson diagonalization with overlap
     ethr =  1.00E-02,  avg # of iterations =  5.0

     negative rho (up, down):  7.310E-01 0.000E+00

     total cpu time spent up to now is        9.5 secs

     total energy              =    6306.17082491 Ry
     Harris-Foulkes estimate   =  -12220.00187004 Ry
     estimated scf accuracy    <      38.60019033 Ry

     iteration # 65     ecut=    30.00 Ry     beta=0.70
     Davidson diagonalization with overlap
     ethr =  1.00E-02,  avg # of iterations =  8.0

     negative rho (up, down):  7.165E-01 0.000E+00

     total cpu time spent up to now is        9.6 secs

     total energy              =      32.21061208 Ry
     Harris-Foulkes estimate   =   -1196.88645532 Ry
     estimated scf accuracy    <      31.73433440 Ry

     iteration # 66     ecut=    30.00 Ry     beta=0.70
     Davidson diagonalization with overlap
     ethr =  1.00E-02,  avg # of iterations =  8.0

     negative rho (up, down):  3.731E-01 0.000E+00

     total cpu time spent up to now is        9.7 secs

     total energy              =      50.05078712 Ry
     Harris-Foulkes estimate   =   -1943.02242463 Ry
     estimated scf accuracy    <      40.02512796 Ry

     iteration # 67     ecut=    30.00 Ry     beta=0.70
     Davidson diagonalization with overlap
     ethr =  1.00E-02,  avg # of iterations =  6.0

     negative rho (up, down):  1.142E-01 0.000E+00

     total cpu time spent up to now is        9.8 secs

     total energy              =      71.22894585 Ry
     Harris-Foulkes estimate   =    -405.07426576 Ry
     estimated scf accuracy    <      41.42518598 Ry

     iteration # 68     ecut=    30.00 Ry     beta=0.70
     Davidson diagonalization with overlap
     ethr =  1.00E-02,  avg # of iterations = 10.0

     negative rho (up, down):  1.006E+00 0.000E+00

     total cpu time spent up to now is        9.9 secs

     total energy              =    -432.69569001 Ry
     Harris-Foulkes estimate   =    -457.61598232 Ry
     estimated scf accuracy    <      18.60718683 Ry

     iteration # 69     ecut=    30.00 Ry     beta=0.70
     Davidson diagonalization with overlap
     ethr =  1.00E-02,  avg # of iterations = 10.0

     negative rho (up, down):  8.451E-01 0.000E+00

     total cpu time spent up to now is       10.0 secs

     total energy              =   -3999.87156003 Ry
     Harris-Foulkes estimate   =   -2446.54228818 Ry
     estimated scf accuracy    <      21.03775141 Ry

     iteration # 70     ecut=    30.00 Ry     beta=0.70
     Davidson diagonalization with overlap
     ethr =  1.00E-02,  avg # of iterations =  8.0

     negative rho (up, down):  9.876E-01 0.000E+00

     total cpu time spent up to now is       10.1 secs

     total energy              =     -39.95503443 Ry
     Harris-Foulkes estimate   =  -76411.28447596 Ry
     estimated scf accuracy    <      24.64556727 Ry

     iteration # 71     ecut=    30.00 Ry     beta=0.70
     Davidson diagonalization with overlap
     ethr =  1.00E-02,  avg # of iterations =  7.0

     negative rho (up, down):  3.694E-01 0.000E+00

     total cpu time spent up to now is       10.2 secs

     total energy              =     121.04246530 Ry
     Harris-Foulkes estimate   =   -1913.19773284 Ry
     estimated scf accuracy    <      23.57647933 Ry

     iteration # 72     ecut=    30.00 Ry     beta=0.70
     Davidson diagonalization with overlap
     ethr =  1.00E-02,  avg # of iterations = 10.0

     negative rho (up, down):  5.594E-01 0.000E+00

     total cpu time spent up to now is       10.3 secs

     total energy              =      21.05425137 Ry
     Harris-Foulkes estimate   =   -1422.04890032 Ry
     estimated scf accuracy    <      21.25699729 Ry

     iteration # 73     ecut=    30.00 Ry     beta=0.70
     Davidson diagonalization with overlap
     ethr =  1.00E-02,  avg # of iterations =  9.0

     negative rho (up, down):  3.068E-01 0.000E+00

     total cpu time spent up to now is       10.4 secs

     total energy              =      62.18996490 Ry
     Harris-Foulkes estimate   =   -2346.69687484 Ry
     estimated scf accuracy    <      28.19304048 Ry

     iteration # 74     ecut=    30.00 Ry     beta=0.70
     Davidson diagonalization with overlap
     ethr =  1.00E-02,  avg # of iterations = 10.0

     negative rho (up, down):  5.309E-01 0.000E+00

     total cpu time spent up to now is       10.4 secs

     total energy              =     117.23534807 Ry
     Harris-Foulkes estimate   =   -4036.15335763 Ry
     estimated scf accuracy    <      28.36454934 Ry

     iteration # 75     ecut=    30.00 Ry     beta=0.70
     Davidson diagonalization with overlap
     ethr =  1.00E-02,  avg # of iterations = 12.0

     negative rho (up, down):  2.070E-01 0.000E+00

     total cpu time spent up to now is       10.5 secs

     total energy              =     -39.13289817 Ry
     Harris-Foulkes estimate   =   -1347.95622303 Ry
     estimated scf accuracy    <      24.91881559 Ry

     iteration # 76     ecut=    30.00 Ry     beta=0.70
     Davidson diagonalization with overlap
     ethr =  1.00E-02,  avg # of iterations =  5.0

     negative rho (up, down):  1.036E-02 0.000E+00

     total cpu time spent up to now is       10.6 secs

     total energy              =     -30.78459393 Ry
     Harris-Foulkes estimate   =   -6542.95965744 Ry
     estimated scf accuracy    <      26.39865173 Ry

     iteration # 77     ecut=    30.00 Ry     beta=0.70
     Davidson diagonalization with overlap
     ethr =  1.00E-02,  avg # of iterations =  8.0

     negative rho (up, down):  5.600E-03 0.000E+00

     total cpu time spent up to now is       10.7 secs

     total energy              =     -10.40618584 Ry
     Harris-Foulkes estimate   =    -814.35188477 Ry
     estimated scf accuracy    <      23.29532766 Ry

     iteration # 78     ecut=    30.00 Ry     beta=0.70
     Davidson diagonalization with overlap
     ethr =  1.00E-02,  avg # of iterations =  5.0

     negative rho (up, down):  3.947E-02 0.000E+00

     total cpu time spent up to now is       10.8 secs

     total energy              =     -12.78393429 Ry
     Harris-Foulkes estimate   =    -662.27759357 Ry
     estimated scf accuracy    <      25.88388836 Ry

     iteration # 79     ecut=    30.00 Ry     beta=0.70
     Davidson diagonalization with overlap
     ethr =  1.00E-02,  avg # of iterations =  5.0

     negative rho (up, down):  1.015E-01 0.000E+00

     total cpu time spent up to now is       10.8 secs

     total energy              =       4.06430441 Ry
     Harris-Foulkes estimate   =    -133.41067796 Ry
     estimated scf accuracy    <      20.93380147 Ry

     iteration # 80     ecut=    30.00 Ry     beta=0.70
     Davidson diagonalization with overlap
     ethr =  1.00E-02,  avg # of iterations =  6.0

     negative rho (up, down):  1.568E-01 0.000E+00

     total cpu time spent up to now is       10.9 secs

     total energy              =      69.66112168 Ry
     Harris-Foulkes estimate   =    -180.61075018 Ry
     estimated scf accuracy    <      40.84596319 Ry

     iteration # 81     ecut=    30.00 Ry     beta=0.70
     Davidson diagonalization with overlap
     ethr =  1.00E-02,  avg # of iterations =  6.0

     negative rho (up, down):  2.483E-01 0.000E+00

     total cpu time spent up to now is       11.0 secs

     total energy              =   -4967.63620237 Ry
     Harris-Foulkes estimate   =   -1696.99940655 Ry
     estimated scf accuracy    <      21.98559764 Ry

     iteration # 82     ecut=    30.00 Ry     beta=0.70
     Davidson diagonalization with overlap
     ethr =  1.00E-02,  avg # of iterations =  7.0

     negative rho (up, down):  4.343E-01 0.000E+00

     total cpu time spent up to now is       11.1 secs

     total energy              =   -4693.83717092 Ry
     Harris-Foulkes estimate   =  -10611.43892838 Ry
     estimated scf accuracy    <      17.65713280 Ry

     iteration # 83     ecut=    30.00 Ry     beta=0.70
     Davidson diagonalization with overlap
     ethr =  1.00E-02,  avg # of iterations = 10.0

     negative rho (up, down):  8.476E-04 0.000E+00

     total cpu time spent up to now is       11.2 secs

     total energy              =     148.36716060 Ry
     Harris-Foulkes estimate   =  -37507.68385382 Ry
     estimated scf accuracy    <      25.75015909 Ry

     iteration # 84     ecut=    30.00 Ry     beta=0.70
     Davidson diagonalization with overlap
     ethr =  1.00E-02,  avg # of iterations = 15.0

     negative rho (up, down):  1.184E-01 0.000E+00

     total cpu time spent up to now is       11.3 secs

     total energy              =     -55.73181552 Ry
     Harris-Foulkes estimate   =     -57.97521047 Ry
     estimated scf accuracy    <      37.93063378 Ry

     iteration # 85     ecut=    30.00 Ry     beta=0.70
     Davidson diagonalization with overlap
     ethr =  1.00E-02,  avg # of iterations = 10.0

     negative rho (up, down):  8.955E-02 0.000E+00

     total cpu time spent up to now is       11.4 secs

     total energy              =     106.74217078 Ry
     Harris-Foulkes estimate   =    -176.28930644 Ry
     estimated scf accuracy    <      25.37417180 Ry

     iteration # 86     ecut=    30.00 Ry     beta=0.70
     Davidson diagonalization with overlap
     ethr =  1.00E-02,  avg # of iterations =  7.0

     negative rho (up, down):  1.650E-02 0.000E+00

     total cpu time spent up to now is       11.5 secs

     total energy              =      29.50136144 Ry
     Harris-Foulkes estimate   =    -182.70302816 Ry
     estimated scf accuracy    <      11.14773307 Ry

     iteration # 87     ecut=    30.00 Ry     beta=0.70
     Davidson diagonalization with overlap
     ethr =  1.00E-02,  avg # of iterations =  5.0

     negative rho (up, down):  2.701E-02 0.000E+00

     total cpu time spent up to now is       11.5 secs

     total energy              =      16.87383282 Ry
     Harris-Foulkes estimate   =    -106.27273541 Ry
     estimated scf accuracy    <      11.94087113 Ry

     iteration # 88     ecut=    30.00 Ry     beta=0.70
     Davidson diagonalization with overlap
     ethr =  1.00E-02,  avg # of iterations =  6.0

     total cpu time spent up to now is       11.6 secs

     total energy              =      63.30199185 Ry
     Harris-Foulkes estimate   =    -129.62775304 Ry
     estimated scf accuracy    <      19.54910267 Ry

     iteration # 89     ecut=    30.00 Ry     beta=0.70
     Davidson diagonalization with overlap
     ethr =  1.00E-02,  avg # of iterations = 10.0

     negative rho (up, down):  6.295E-02 0.000E+00

     total cpu time spent up to now is       11.7 secs

     total energy              =     -50.43211643 Ry
     Harris-Foulkes estimate   =     -53.31166477 Ry
     estimated scf accuracy    <      32.17280327 Ry

     iteration # 90     ecut=    30.00 Ry     beta=0.70
     Davidson diagonalization with overlap
     ethr =  1.00E-02,  avg # of iterations =  1.0

     negative rho (up, down):  4.999E-02 0.000E+00

     total cpu time spent up to now is       11.8 secs

     total energy              =     -47.61661474 Ry
     Harris-Foulkes estimate   =     -50.44251763 Ry
     estimated scf accuracy    <      28.27299849 Ry

     iteration # 91     ecut=    30.00 Ry     beta=0.70
     Davidson diagonalization with overlap
     ethr =  1.00E-02,  avg # of iterations =  5.0

     negative rho (up, down):  1.342E-02 0.000E+00

     total cpu time spent up to now is       11.8 secs

     total energy              =      27.85887966 Ry
     Harris-Foulkes estimate   =    -144.83466195 Ry
     estimated scf accuracy    <      13.32241188 Ry

     iteration # 92     ecut=    30.00 Ry     beta=0.70
     Davidson diagonalization with overlap
     ethr =  1.00E-02,  avg # of iterations =  8.0

     negative rho (up, down):  2.070E-01 0.000E+00

     total cpu time spent up to now is       11.9 secs

     total energy              =     -40.85816766 Ry
     Harris-Foulkes estimate   =     -46.95822071 Ry
     estimated scf accuracy    <      23.79800797 Ry

     iteration # 93     ecut=    30.00 Ry     beta=0.70
     Davidson diagonalization with overlap
     ethr =  1.00E-02,  avg # of iterations =  8.0

     negative rho (up, down):  9.446E-02 0.000E+00

     total cpu time spent up to now is       12.0 secs

     total energy              =     184.17226527 Ry
     Harris-Foulkes estimate   =    -538.24723477 Ry
     estimated scf accuracy    <      36.92148586 Ry

     iteration # 94     ecut=    30.00 Ry     beta=0.70
     Davidson diagonalization with overlap
     ethr =  1.00E-02,  avg # of iterations = 10.0

     negative rho (up, down):  1.317E-02 0.000E+00

     total cpu time spent up to now is       12.1 secs

     total energy              =     107.66801369 Ry
     Harris-Foulkes estimate   =    -266.13631660 Ry
     estimated scf accuracy    <      38.58627005 Ry

     iteration # 95     ecut=    30.00 Ry     beta=0.70
     Davidson diagonalization with overlap
     ethr =  1.00E-02,  avg # of iterations =  8.0

     negative rho (up, down):  1.144E-02 0.000E+00

     total cpu time spent up to now is       12.2 secs

     total energy              =     -41.28692360 Ry
     Harris-Foulkes estimate   =     -43.19949648 Ry
     estimated scf accuracy    <      18.88731995 Ry

     iteration # 96     ecut=    30.00 Ry     beta=0.70
     Davidson diagonalization with overlap
     ethr =  1.00E-02,  avg # of iterations = 11.0

     negative rho (up, down):  8.756E-03 0.000E+00

     total cpu time spent up to now is       12.3 secs

     total energy              =      -9.68905618 Ry
     Harris-Foulkes estimate   =     -71.86519528 Ry
     estimated scf accuracy    <       8.88386295 Ry

     iteration # 97     ecut=    30.00 Ry     beta=0.70
     Davidson diagonalization with overlap
     ethr =  1.00E-02,  avg # of iterations =  6.0

     negative rho (up, down):  6.648E-03 0.000E+00

     total cpu time spent up to now is       12.4 secs

     total energy              =     -12.58603682 Ry
     Harris-Foulkes estimate   =     -51.71481860 Ry
     estimated scf accuracy    <       9.05095931 Ry

     iteration # 98     ecut=    30.00 Ry     beta=0.70
     Davidson diagonalization with overlap
     ethr =  1.00E-02,  avg # of iterations =  4.0

     negative rho (up, down):  9.702E-05 0.000E+00

     total cpu time spent up to now is       12.4 secs

     total energy              =      -3.49348711 Ry
     Harris-Foulkes estimate   =    -140.07300492 Ry
     estimated scf accuracy    <      12.65145633 Ry

     iteration # 99     ecut=    30.00 Ry     beta=0.70
     Davidson diagonalization with overlap
     ethr =  1.00E-02,  avg # of iterations =  5.0

     negative rho (up, down):  1.748E-02 0.000E+00

     total cpu time spent up to now is       12.5 secs

     total energy              =     -42.12929627 Ry
     Harris-Foulkes estimate   =     -43.24819932 Ry
     estimated scf accuracy    <      19.18678938 Ry

     iteration #100     ecut=    30.00 Ry     beta=0.70
     Davidson diagonalization with overlap
     ethr =  1.00E-02,  avg # of iterations =  5.0

     negative rho (up, down):  1.491E-02 0.000E+00

     total cpu time spent up to now is       12.5 secs

     total energy              =      73.98403811 Ry
     Harris-Foulkes estimate   =    -171.45151662 Ry
     estimated scf accuracy    <       9.46074606 Ry

     End of self-consistent calculation

     convergence NOT achieved after 100 iterations: stopping

     Writing output data file pwscf.save
 
     init_run     :      0.17s CPU      0.19s WALL (       1 calls)
     electrons    :      9.69s CPU     11.49s WALL (       3 calls)
     update_pot   :      0.33s CPU      0.47s WALL (       2 calls)
     forces       :      0.09s CPU      0.09s WALL (       2 calls)

     Called by init_run:
     wfcinit      :      0.01s CPU      0.02s WALL (       1 calls)
     potinit      :      0.05s CPU      0.05s WALL (       1 calls)

     Called by electrons:
     c_bands      :      5.47s CPU      5.70s WALL (     167 calls)
     sum_band     :      0.86s CPU      0.89s WALL (     167 calls)
     v_of_rho     :      2.06s CPU      2.13s WALL (     170 calls)
     mix_rho      :      1.12s CPU      2.33s WALL (     167 calls)

     Called by c_bands:
     init_us_2    :      0.03s CPU      0.03s WALL (     335 calls)
     cegterg      :      5.42s CPU      5.60s WALL (     167 calls)

     Called by sum_band:

     Called by *egterg:
     h_psi        :      4.58s CPU      4.72s WALL (     940 calls)
     g_psi        :      0.05s CPU      0.06s WALL (     772 calls)
     cdiaghg      :      0.33s CPU      0.34s WALL (     937 calls)

     Called by h_psi:
     h_psi:pot    :      4.56s CPU      4.70s WALL (     940 calls)
     h_psi:calbec :      0.05s CPU      0.10s WALL (     940 calls)
     vloc_psi     :      4.48s CPU      4.57s WALL (     940 calls)
     add_vuspsi   :      0.01s CPU      0.01s WALL (     940 calls)

     General routines
     calbec       :      0.06s CPU      0.11s WALL (     949 calls)
     fft          :      1.23s CPU      1.28s WALL (    1874 calls)
     fftw         :      4.64s CPU      4.75s WALL (   11696 calls)
     davcio       :      0.20s CPU      1.10s WALL (    3086 calls)
 
     Parallel routines
     fft_scatter  :      1.70s CPU      1.77s WALL (   13570 calls)
 
     PWSCF        :    10.51s CPU        12.71s WALL

 
   This run was terminated on:  13:26:38  13Feb2018            

=------------------------------------------------------------------------------=
   JOB DONE.
=------------------------------------------------------------------------------=
