
     Program PWSCF v.6.0 (svn rev. 13079) starts on 13Feb2018 at 18:24:50 

     This program is part of the open-source Quantum ESPRESSO suite
     for quantum simulation of materials; please cite
         "P. Giannozzi et al., J. Phys.:Condens. Matter 21 395502 (2009);
          URL http://www.quantum-espresso.org", 
     in publications or presentations arising from this work. More details at
     http://www.quantum-espresso.org/quote

     Parallel version (MPI), running on    28 processors
     R & G space division:  proc/nbgrp/npool/nimage =      28
     Reading input from inputs/MD-H2O-round1/986.in

     Current dimensions of program PWSCF are:
     Max number of different atomic species (ntypx) = 10
     Max number of k-points (npk) =  40000
     Max angular momentum in pseudopotentials (lmaxx) =  3

     Subspace diagonalization in iterative solution of the eigenvalue problem:
     a serial algorithm will be used

 
     Parallelization info
     --------------------
     sticks:   dense  smooth     PW     G-vecs:    dense   smooth      PW
     Min         136     136     33                 6338     6338     787
     Max         137     137     34                 6341     6341     792
     Sum        3809    3809    949               177509   177509   22119
 


     bravais-lattice index     =            1
     lattice parameter (alat)  =      20.0000  a.u.
     unit-cell volume          =    8000.0000 (a.u.)^3
     number of atoms/cell      =            3
     number of atomic types    =            2
     number of electrons       =         8.00
     number of Kohn-Sham states=            8
     kinetic-energy cutoff     =      30.0000  Ry
     charge density cutoff     =     120.0000  Ry
     convergence threshold     =      1.0E-08
     mixing beta               =       0.7000
     number of iterations used =            8  plain     mixing
     Exchange-correlation      = BLYP ( 1  3  1  3 0 0)
     nstep                     =         5000


     celldm(1)=  20.000000  celldm(2)=   0.000000  celldm(3)=   0.000000
     celldm(4)=   0.000000  celldm(5)=   0.000000  celldm(6)=   0.000000

     crystal axes: (cart. coord. in units of alat)
               a(1) = (   1.000000   0.000000   0.000000 )  
               a(2) = (   0.000000   1.000000   0.000000 )  
               a(3) = (   0.000000   0.000000   1.000000 )  

     reciprocal axes: (cart. coord. in units 2 pi/alat)
               b(1) = (  1.000000  0.000000  0.000000 )  
               b(2) = (  0.000000  1.000000  0.000000 )  
               b(3) = (  0.000000  0.000000  1.000000 )  


     PseudoPot. # 1 for  H read from file:
     ./H.blyp-hgh.UPF
     MD5 check sum: c576e69559cde411e611be972c763230
     Pseudo is Norm-conserving, Zval =  1.0
     Generated in analytical, separable form
     Using radial grid of  929 points,  0 beta functions with: 

     PseudoPot. # 2 for  O read from file:
     ./O.blyp-hgh.UPF
     MD5 check sum: d0b7156309aa9befef28faac7bc56342
     Pseudo is Norm-conserving, Zval =  6.0
     Generated in analytical, separable form
     Using radial grid of 1095 points,  1 beta functions with: 
                l(1) =   0

     atomic species   valence    mass     pseudopotential
        H              1.00     1.01000      H( 1.00)
        O              6.00    16.00000      O( 1.00)

     No symmetry found



   Cartesian axes

     site n.     atom                  positions (alat units)
         1           O   tau(   1) = (   0.2854184   0.4622299   0.0359399  )
         2           H   tau(   2) = (   0.2905560   0.4629048   0.9560488  )
         3           H   tau(   3) = (   0.0693566   0.5487616   0.4789474  )

     number of k points=     1  Marzari-Vanderbilt smearing, width (Ry)=  0.0250
                       cart. coord. in units 2pi/alat
        k(    1) = (   0.0000000   0.0000000   0.0000000), wk =   2.0000000

     Dense  grid:   177509 G-vectors     FFT dimensions: (  72,  72,  72)

     Estimated max dynamical RAM per process >       6.09Mb

     Estimated total allocated dynamical RAM >     170.64Mb

     Initial potential from superposition of free atoms
     Check: negative starting charge=   -0.350855

     starting charge    7.99998, renormalised to    8.00000

     negative rho (up, down):  3.509E-01 0.000E+00
     Starting wfc are    6 randomized atomic wfcs +    2 random wfc

     total cpu time spent up to now is        0.4 secs

     per-process dynamical memory:    18.8 Mb

     Self-consistent Calculation

     iteration #  1     ecut=    30.00 Ry     beta=0.70
     Davidson diagonalization with overlap
     ethr =  1.00E-02,  avg # of iterations =  8.0

     negative rho (up, down):  9.449E-02 0.000E+00

     total cpu time spent up to now is        0.4 secs

     total energy              =     -31.54274898 Ry
     Harris-Foulkes estimate   =     -32.06964564 Ry
     estimated scf accuracy    <       0.56570407 Ry

     iteration #  2     ecut=    30.00 Ry     beta=0.70
     Davidson diagonalization with overlap
     ethr =  7.07E-03,  avg # of iterations =  2.0

     negative rho (up, down):  7.273E-02 0.000E+00

     total cpu time spent up to now is        0.5 secs

     total energy              =     -31.72518797 Ry
     Harris-Foulkes estimate   =     -32.42769680 Ry
     estimated scf accuracy    <       2.35308391 Ry

     iteration #  3     ecut=    30.00 Ry     beta=0.70
     Davidson diagonalization with overlap
     ethr =  7.07E-03,  avg # of iterations =  2.0

     negative rho (up, down):  2.750E-02 0.000E+00

     total cpu time spent up to now is        0.5 secs

     total energy              =     -31.79574007 Ry
     Harris-Foulkes estimate   =     -31.78779681 Ry
     estimated scf accuracy    <       0.07141513 Ry

     iteration #  4     ecut=    30.00 Ry     beta=0.70
     Davidson diagonalization with overlap
     ethr =  8.93E-04,  avg # of iterations =  2.0

     negative rho (up, down):  1.140E-02 0.000E+00

     total cpu time spent up to now is        0.6 secs

     total energy              =     -31.54163150 Ry
     Harris-Foulkes estimate   =     -31.87945796 Ry
     estimated scf accuracy    <       1.34877627 Ry

     iteration #  5     ecut=    30.00 Ry     beta=0.70
     Davidson diagonalization with overlap
     ethr =  8.93E-04,  avg # of iterations =  3.0

     negative rho (up, down):  5.835E-04 0.000E+00

     total cpu time spent up to now is        0.6 secs

     total energy              =     -31.99146367 Ry
     Harris-Foulkes estimate   =     -32.08870703 Ry
     estimated scf accuracy    <       1.21663149 Ry

     iteration #  6     ecut=    30.00 Ry     beta=0.70
     Davidson diagonalization with overlap
     ethr =  8.93E-04,  avg # of iterations =  1.0

     negative rho (up, down):  5.625E-04 0.000E+00

     total cpu time spent up to now is        0.7 secs

     total energy              =     -31.92187930 Ry
     Harris-Foulkes estimate   =     -31.98440222 Ry
     estimated scf accuracy    <       1.05438693 Ry

     iteration #  7     ecut=    30.00 Ry     beta=0.70
     Davidson diagonalization with overlap
     ethr =  8.93E-04,  avg # of iterations =  1.0

     negative rho (up, down):  6.126E-04 0.000E+00

     total cpu time spent up to now is        0.7 secs

     total energy              =     -31.86624361 Ry
     Harris-Foulkes estimate   =     -31.92222395 Ry
     estimated scf accuracy    <       0.95826838 Ry

     iteration #  8     ecut=    30.00 Ry     beta=0.70
     Davidson diagonalization with overlap
     ethr =  8.93E-04,  avg # of iterations =  1.0

     negative rho (up, down):  6.972E-04 0.000E+00

     total cpu time spent up to now is        0.8 secs

     total energy              =     -31.82745859 Ry
     Harris-Foulkes estimate   =     -31.86657040 Ry
     estimated scf accuracy    <       0.83950204 Ry

     iteration #  9     ecut=    30.00 Ry     beta=0.70
     Davidson diagonalization with overlap
     ethr =  8.93E-04,  avg # of iterations =  1.0

     negative rho (up, down):  2.384E-05 0.000E+00

     total cpu time spent up to now is        0.8 secs

     total energy              =     -31.83975700 Ry
     Harris-Foulkes estimate   =     -31.83971256 Ry
     estimated scf accuracy    <       0.00397880 Ry

     iteration # 10     ecut=    30.00 Ry     beta=0.70
     Davidson diagonalization with overlap
     ethr =  4.97E-05,  avg # of iterations = 13.0

     negative rho (up, down):  2.495E-07 0.000E+00

     total cpu time spent up to now is        0.9 secs

     total energy              =     -31.84564087 Ry
     Harris-Foulkes estimate   =     -31.83980132 Ry
     estimated scf accuracy    <       0.00692955 Ry

     iteration # 11     ecut=    30.00 Ry     beta=0.70
     Davidson diagonalization with overlap
     ethr =  4.97E-05,  avg # of iterations =  2.0

     negative rho (up, down):  3.273E-07 0.000E+00

     total cpu time spent up to now is        0.9 secs

     total energy              =     -31.86135910 Ry
     Harris-Foulkes estimate   =     -31.88068547 Ry
     estimated scf accuracy    <       0.89597891 Ry

     iteration # 12     ecut=    30.00 Ry     beta=0.70
     Davidson diagonalization with overlap
     ethr =  4.97E-05,  avg # of iterations =  1.0

     negative rho (up, down):  2.479E-06 0.000E+00

     total cpu time spent up to now is        1.0 secs

     total energy              =     -31.89140386 Ry
     Harris-Foulkes estimate   =     -31.86162151 Ry
     estimated scf accuracy    <       0.79498666 Ry

     iteration # 13     ecut=    30.00 Ry     beta=0.70
     Davidson diagonalization with overlap
     ethr =  4.97E-05,  avg # of iterations =  1.0

     negative rho (up, down):  6.629E-07 0.000E+00

     total cpu time spent up to now is        1.0 secs

     total energy              =     -31.93405240 Ry
     Harris-Foulkes estimate   =     -31.89255872 Ry
     estimated scf accuracy    <       0.91613192 Ry

     iteration # 14     ecut=    30.00 Ry     beta=0.70
     Davidson diagonalization with overlap
     ethr =  4.97E-05,  avg # of iterations =  1.0

     negative rho (up, down):  2.092E-08 0.000E+00

     total cpu time spent up to now is        1.1 secs

     total energy              =     -31.90281283 Ry
     Harris-Foulkes estimate   =     -31.93416480 Ry
     estimated scf accuracy    <       0.97930093 Ry

     iteration # 15     ecut=    30.00 Ry     beta=0.70
     Davidson diagonalization with overlap
     ethr =  4.97E-05,  avg # of iterations =  1.0

     negative rho (up, down):  3.795E-07 0.000E+00

     total cpu time spent up to now is        1.1 secs

     total energy              =     -31.89724619 Ry
     Harris-Foulkes estimate   =     -31.90286096 Ry
     estimated scf accuracy    <       0.93428493 Ry

     iteration # 16     ecut=    30.00 Ry     beta=0.70
     Davidson diagonalization with overlap
     ethr =  4.97E-05,  avg # of iterations =  1.0

     negative rho (up, down):  6.251E-06 0.000E+00

     total cpu time spent up to now is        1.2 secs

     total energy              =     -31.87692554 Ry
     Harris-Foulkes estimate   =     -31.89725114 Ry
     estimated scf accuracy    <       0.92551025 Ry

     iteration # 17     ecut=    30.00 Ry     beta=0.70
     Davidson diagonalization with overlap
     ethr =  4.97E-05,  avg # of iterations =  1.0

     negative rho (up, down):  8.723E-07 0.000E+00

     total cpu time spent up to now is        1.2 secs

     total energy              =     -31.37576793 Ry
     Harris-Foulkes estimate   =     -31.87696070 Ry
     estimated scf accuracy    <       0.89046821 Ry

     iteration # 18     ecut=    30.00 Ry     beta=0.70
     Davidson diagonalization with overlap
     ethr =  4.97E-05,  avg # of iterations = 13.0

     negative rho (up, down):  8.118E-06 0.000E+00

     total cpu time spent up to now is        1.3 secs

     total energy              =     -32.13514710 Ry
     Harris-Foulkes estimate   =     -32.70358772 Ry
     estimated scf accuracy    <       2.68976186 Ry

     iteration # 19     ecut=    30.00 Ry     beta=0.70
     Davidson diagonalization with overlap
     ethr =  4.97E-05,  avg # of iterations =  5.0

     negative rho (up, down):  3.204E-06 0.000E+00

     total cpu time spent up to now is        1.4 secs

     total energy              =     -32.12974883 Ry
     Harris-Foulkes estimate   =     -32.14990517 Ry
     estimated scf accuracy    <       1.70592209 Ry

     iteration # 20     ecut=    30.00 Ry     beta=0.70
     Davidson diagonalization with overlap
     ethr =  4.97E-05,  avg # of iterations =  1.0

     negative rho (up, down):  2.317E-05 0.000E+00

     total cpu time spent up to now is        1.4 secs

     total energy              =     -31.84077885 Ry
     Harris-Foulkes estimate   =     -32.12978352 Ry
     estimated scf accuracy    <       1.67237861 Ry

     iteration # 21     ecut=    30.00 Ry     beta=0.70
     Davidson diagonalization with overlap
     ethr =  4.97E-05,  avg # of iterations =  6.0

     negative rho (up, down):  3.698E-06 0.000E+00

     total cpu time spent up to now is        1.5 secs

     total energy              =     -31.77578711 Ry
     Harris-Foulkes estimate   =     -31.84540858 Ry
     estimated scf accuracy    <       0.45011135 Ry

     iteration # 22     ecut=    30.00 Ry     beta=0.70
     Davidson diagonalization with overlap
     ethr =  4.97E-05,  avg # of iterations =  5.0

     negative rho (up, down):  9.887E-06 0.000E+00

     total cpu time spent up to now is        1.5 secs

     total energy              =     -31.90697604 Ry
     Harris-Foulkes estimate   =     -31.91190605 Ry
     estimated scf accuracy    <       0.94461417 Ry

     iteration # 23     ecut=    30.00 Ry     beta=0.70
     Davidson diagonalization with overlap
     ethr =  4.97E-05,  avg # of iterations =  1.0

     negative rho (up, down):  7.842E-07 0.000E+00

     total cpu time spent up to now is        1.6 secs

     total energy              =     -31.89603248 Ry
     Harris-Foulkes estimate   =     -31.90698021 Ry
     estimated scf accuracy    <       0.93717177 Ry

     iteration # 24     ecut=    30.00 Ry     beta=0.70
     Davidson diagonalization with overlap
     ethr =  4.97E-05,  avg # of iterations =  1.0

     negative rho (up, down):  1.502E-06 0.000E+00

     total cpu time spent up to now is        1.6 secs

     total energy              =     -31.88613732 Ry
     Harris-Foulkes estimate   =     -31.89603480 Ry
     estimated scf accuracy    <       0.92258199 Ry

     iteration # 25     ecut=    30.00 Ry     beta=0.70
     Davidson diagonalization with overlap
     ethr =  4.97E-05,  avg # of iterations =  1.0

     negative rho (up, down):  8.726E-06 0.000E+00

     total cpu time spent up to now is        1.7 secs

     total energy              =     -31.92237801 Ry
     Harris-Foulkes estimate   =     -31.88614947 Ry
     estimated scf accuracy    <       0.90625977 Ry

     iteration # 26     ecut=    30.00 Ry     beta=0.70
     Davidson diagonalization with overlap
     ethr =  4.97E-05,  avg # of iterations =  1.0

     negative rho (up, down):  4.558E-06 0.000E+00

     total cpu time spent up to now is        1.7 secs

     total energy              =     -31.84892645 Ry
     Harris-Foulkes estimate   =     -31.92245649 Ry
     estimated scf accuracy    <       0.95988505 Ry

     iteration # 27     ecut=    30.00 Ry     beta=0.70
     Davidson diagonalization with overlap
     ethr =  4.97E-05,  avg # of iterations =  2.0

     total cpu time spent up to now is        1.8 secs

     total energy              =     -31.67862000 Ry
     Harris-Foulkes estimate   =     -31.85081196 Ry
     estimated scf accuracy    <       0.55581767 Ry

     iteration # 28     ecut=    30.00 Ry     beta=0.70
     Davidson diagonalization with overlap
     ethr =  4.97E-05,  avg # of iterations =  7.0

     total cpu time spent up to now is        1.9 secs

     total energy              =     -31.99581439 Ry
     Harris-Foulkes estimate   =     -32.10266772 Ry
     estimated scf accuracy    <       1.62338463 Ry

     iteration # 29     ecut=    30.00 Ry     beta=0.70
     Davidson diagonalization with overlap
     ethr =  4.97E-05,  avg # of iterations =  3.0

     total cpu time spent up to now is        1.9 secs

     total energy              =     -31.94473925 Ry
     Harris-Foulkes estimate   =     -31.99660780 Ry
     estimated scf accuracy    <       1.44425186 Ry

     iteration # 30     ecut=    30.00 Ry     beta=0.70
     Davidson diagonalization with overlap
     ethr =  4.97E-05,  avg # of iterations =  2.0

     total cpu time spent up to now is        2.0 secs

     total energy              =     -31.93532002 Ry
     Harris-Foulkes estimate   =     -31.94495560 Ry
     estimated scf accuracy    <       1.35691839 Ry

     iteration # 31     ecut=    30.00 Ry     beta=0.70
     Davidson diagonalization with overlap
     ethr =  4.97E-05,  avg # of iterations =  1.0

     total cpu time spent up to now is        2.0 secs

     total energy              =     -31.93682329 Ry
     Harris-Foulkes estimate   =     -31.93533094 Ry
     estimated scf accuracy    <       1.34148143 Ry

     iteration # 32     ecut=    30.00 Ry     beta=0.70
     Davidson diagonalization with overlap
     ethr =  4.97E-05,  avg # of iterations =  1.0

     total cpu time spent up to now is        2.1 secs

     total energy              =     -31.89119854 Ry
     Harris-Foulkes estimate   =     -31.93682389 Ry
     estimated scf accuracy    <       1.34312780 Ry

     iteration # 33     ecut=    30.00 Ry     beta=0.70
     Davidson diagonalization with overlap
     ethr =  4.97E-05,  avg # of iterations =  3.0

     total cpu time spent up to now is        2.1 secs

     total energy              =     -31.88224410 Ry
     Harris-Foulkes estimate   =     -31.89057867 Ry
     estimated scf accuracy    <       1.47965718 Ry

     iteration # 34     ecut=    30.00 Ry     beta=0.70
     Davidson diagonalization with overlap
     ethr =  4.97E-05,  avg # of iterations =  1.0

     total cpu time spent up to now is        2.2 secs

     total energy              =     -31.77230938 Ry
     Harris-Foulkes estimate   =     -31.88207254 Ry
     estimated scf accuracy    <       1.59473382 Ry

     iteration # 35     ecut=    30.00 Ry     beta=0.70
     Davidson diagonalization with overlap
     ethr =  4.97E-05,  avg # of iterations =  4.0

     total cpu time spent up to now is        2.3 secs

     total energy              =     -31.82382438 Ry
     Harris-Foulkes estimate   =     -31.86083954 Ry
     estimated scf accuracy    <       0.78124487 Ry

     iteration # 36     ecut=    30.00 Ry     beta=0.70
     Davidson diagonalization with overlap
     ethr =  4.97E-05,  avg # of iterations =  2.0

     total cpu time spent up to now is        2.3 secs

     total energy              =     -31.84126105 Ry
     Harris-Foulkes estimate   =     -31.84002693 Ry
     estimated scf accuracy    <       0.02400622 Ry

     iteration # 37     ecut=    30.00 Ry     beta=0.70
     Davidson diagonalization with overlap
     ethr =  4.97E-05,  avg # of iterations =  1.0

     total cpu time spent up to now is        2.4 secs

     total energy              =     -31.84612703 Ry
     Harris-Foulkes estimate   =     -31.84247266 Ry
     estimated scf accuracy    <       0.21857134 Ry

     iteration # 38     ecut=    30.00 Ry     beta=0.70
     Davidson diagonalization with overlap
     ethr =  4.97E-05,  avg # of iterations =  1.0

     total cpu time spent up to now is        2.4 secs

     total energy              =     -31.85677841 Ry
     Harris-Foulkes estimate   =     -31.84728396 Ry
     estimated scf accuracy    <       0.58512858 Ry

     iteration # 39     ecut=    30.00 Ry     beta=0.70
     Davidson diagonalization with overlap
     ethr =  4.97E-05,  avg # of iterations =  1.0

     total cpu time spent up to now is        2.5 secs

     total energy              =     -31.85077208 Ry
     Harris-Foulkes estimate   =     -31.85920381 Ry
     estimated scf accuracy    <       1.29098104 Ry

     iteration # 40     ecut=    30.00 Ry     beta=0.70
     Davidson diagonalization with overlap
     ethr =  4.97E-05,  avg # of iterations =  1.0

     total cpu time spent up to now is        2.5 secs

     total energy              =     -31.84950334 Ry
     Harris-Foulkes estimate   =     -31.85146620 Ry
     estimated scf accuracy    <       0.87090808 Ry

     iteration # 41     ecut=    30.00 Ry     beta=0.70
     Davidson diagonalization with overlap
     ethr =  4.97E-05,  avg # of iterations =  1.0

     total cpu time spent up to now is        2.6 secs

     total energy              =     -31.83903890 Ry
     Harris-Foulkes estimate   =     -31.84957493 Ry
     estimated scf accuracy    <       0.74616872 Ry

     iteration # 42     ecut=    30.00 Ry     beta=0.70
     Davidson diagonalization with overlap
     ethr =  4.97E-05,  avg # of iterations =  1.0

     total cpu time spent up to now is        2.6 secs

     total energy              =     -31.84213333 Ry
     Harris-Foulkes estimate   =     -31.84175192 Ry
     estimated scf accuracy    <       0.16142774 Ry

     iteration # 43     ecut=    30.00 Ry     beta=0.70
     Davidson diagonalization with overlap
     ethr =  4.97E-05,  avg # of iterations =  1.0

     total cpu time spent up to now is        2.7 secs

     total energy              =     -31.83940906 Ry
     Harris-Foulkes estimate   =     -31.84215159 Ry
     estimated scf accuracy    <       0.19316126 Ry

     iteration # 44     ecut=    30.00 Ry     beta=0.70
     Davidson diagonalization with overlap
     ethr =  4.97E-05,  avg # of iterations =  1.0

     total cpu time spent up to now is        2.7 secs

     total energy              =     -31.84250807 Ry
     Harris-Foulkes estimate   =     -31.84018672 Ry
     estimated scf accuracy    <       0.03578386 Ry

     iteration # 45     ecut=    30.00 Ry     beta=0.70
     Davidson diagonalization with overlap
     ethr =  4.97E-05,  avg # of iterations =  1.0

     total cpu time spent up to now is        2.8 secs

     total energy              =     -31.84763810 Ry
     Harris-Foulkes estimate   =     -31.84536595 Ry
     estimated scf accuracy    <       0.44264571 Ry

     iteration # 46     ecut=    30.00 Ry     beta=0.70
     Davidson diagonalization with overlap
     ethr =  4.97E-05,  avg # of iterations =  1.0

     total cpu time spent up to now is        2.8 secs

     total energy              =     -31.84442906 Ry
     Harris-Foulkes estimate   =     -31.84785277 Ry
     estimated scf accuracy    <       0.62580272 Ry

     iteration # 47     ecut=    30.00 Ry     beta=0.70
     Davidson diagonalization with overlap
     ethr =  4.97E-05,  avg # of iterations =  1.0

     total cpu time spent up to now is        2.8 secs

     total energy              =     -31.84086983 Ry
     Harris-Foulkes estimate   =     -31.84476635 Ry
     estimated scf accuracy    <       0.39820469 Ry

     iteration # 48     ecut=    30.00 Ry     beta=0.70
     Davidson diagonalization with overlap
     ethr =  4.97E-05,  avg # of iterations =  1.0

     total cpu time spent up to now is        2.9 secs

     total energy              =     -31.83741041 Ry
     Harris-Foulkes estimate   =     -31.84160741 Ry
     estimated scf accuracy    <       0.15026701 Ry

     iteration # 49     ecut=    30.00 Ry     beta=0.70
     Davidson diagonalization with overlap
     ethr =  4.97E-05,  avg # of iterations =  1.0

     total cpu time spent up to now is        2.9 secs

     total energy              =     -31.83966782 Ry
     Harris-Foulkes estimate   =     -31.83973967 Ry
     estimated scf accuracy    <       0.00166457 Ry

     iteration # 50     ecut=    30.00 Ry     beta=0.70
     Davidson diagonalization with overlap
     ethr =  2.08E-05,  avg # of iterations =  1.0

     total cpu time spent up to now is        3.0 secs

     total energy              =     -31.83970851 Ry
     Harris-Foulkes estimate   =     -31.83972036 Ry
     estimated scf accuracy    <       0.00049349 Ry

     iteration # 51     ecut=    30.00 Ry     beta=0.70
     Davidson diagonalization with overlap
     ethr =  6.17E-06,  avg # of iterations =  1.0

     total cpu time spent up to now is        3.0 secs

     total energy              =     -31.83971528 Ry
     Harris-Foulkes estimate   =     -31.83971494 Ry
     estimated scf accuracy    <       0.00000011 Ry

     iteration # 52     ecut=    30.00 Ry     beta=0.70
     Davidson diagonalization with overlap
     ethr =  1.35E-09,  avg # of iterations =  2.0

     total cpu time spent up to now is        3.1 secs

     total energy              =     -31.83971512 Ry
     Harris-Foulkes estimate   =     -31.83971531 Ry
     estimated scf accuracy    <       0.00000039 Ry

     iteration # 53     ecut=    30.00 Ry     beta=0.70
     Davidson diagonalization with overlap
     ethr =  1.35E-09,  avg # of iterations =  1.0

     total cpu time spent up to now is        3.1 secs

     total energy              =     -31.83971507 Ry
     Harris-Foulkes estimate   =     -31.83971513 Ry
     estimated scf accuracy    <       0.00000004 Ry

     iteration # 54     ecut=    30.00 Ry     beta=0.70
     Davidson diagonalization with overlap
     ethr =  5.57E-10,  avg # of iterations =  1.0

     total cpu time spent up to now is        3.2 secs

     total energy              =     -31.83971504 Ry
     Harris-Foulkes estimate   =     -31.83971507 Ry
     estimated scf accuracy    <       0.00000013 Ry

     iteration # 55     ecut=    30.00 Ry     beta=0.70
     Davidson diagonalization with overlap
     ethr =  5.57E-10,  avg # of iterations =  1.0

     total cpu time spent up to now is        3.2 secs

     End of self-consistent calculation

          k = 0.0000 0.0000 0.0000 ( 22119 PWs)   bands (ev):

   -26.1692 -11.0759  -7.1541  -7.1533  -7.0076  -0.4533   0.5116   0.8244

     the Fermi energy is    -6.9810 ev

!    total energy              =     -31.83971505 Ry
     Harris-Foulkes estimate   =     -31.83971504 Ry
     estimated scf accuracy    <          5.7E-09 Ry

     convergence has been achieved in  55 iterations

     Forces acting on atoms (Ry/au):

     atom    1 type  2   force =    -0.04048014   -0.00476610    0.62067567
     atom    2 type  1   force =     0.04034393    0.00499988   -0.62034981
     atom    3 type  1   force =     0.00013621   -0.00023378   -0.00032587

     Total force =     0.879424     Total SCF correction =     0.000021

     Molecular Dynamics Calculation

     Starting temperature  =  1000.00 K

     temperature is controlled by Andersen thermostat
     Collision frequency = 1.0000/timestep
     mass H                =     1.01
     mass O                =    16.00
     Time step             =   100.00 a.u.,  4.8378 femto-seconds

     Entering Dynamics:    iteration =     1
                           time      =   0.0048 pico-seconds


     Andersen thermostat:    3 collisions

ATOMIC_POSITIONS (bohr)
O        5.681980663   9.235533573   0.909874123
H        6.031779104   9.465705923  15.654219808
H        1.584504953  10.911215962  10.018770558


     kinetic energy (Ekin) =     0.01337019 Ry
     temperature           =   703.66124461 K 
     Ekin + Etot (const)   =   -31.82634486 Ry

     Linear momentum :   -0.0000000000   -0.0000000000   -0.0000000000

     Writing output data file pwscf.save
     Check: negative starting charge=   -0.350855
     NEW-OLD atomic charge density approx. for the potential
     Check: negative starting charge=   -0.343095

     negative rho (up, down):  3.895E-01 0.000E+00

     total cpu time spent up to now is        3.6 secs

     per-process dynamical memory:    20.4 Mb

     Self-consistent Calculation

     iteration #  1     ecut=    30.00 Ry     beta=0.70
     Davidson diagonalization with overlap
     c_bands:  1 eigenvalues not converged
     ethr =  1.00E-06,  avg # of iterations = 20.0

     negative rho (up, down):  8.789E-02 0.000E+00

     total cpu time spent up to now is        3.8 secs

     total energy              =     -27.97184987 Ry
     Harris-Foulkes estimate   =     -32.30588804 Ry
     estimated scf accuracy    <       4.01757167 Ry

     iteration #  2     ecut=    30.00 Ry     beta=0.70
     Davidson diagonalization with overlap
     ethr =  1.00E-02,  avg # of iterations =  4.0

     negative rho (up, down):  6.497E-02 0.000E+00

     total cpu time spent up to now is        3.8 secs

     total energy              =     -32.43037264 Ry
     Harris-Foulkes estimate   =     -37.20888061 Ry
     estimated scf accuracy    <      12.10279529 Ry

     iteration #  3     ecut=    30.00 Ry     beta=0.70
     Davidson diagonalization with overlap
     ethr =  1.00E-02,  avg # of iterations =  2.0

     negative rho (up, down):  5.640E-02 0.000E+00

     total cpu time spent up to now is        3.9 secs

     total energy              =     -32.03968130 Ry
     Harris-Foulkes estimate   =     -32.76273006 Ry
     estimated scf accuracy    <       4.58270653 Ry

     iteration #  4     ecut=    30.00 Ry     beta=0.70
     Davidson diagonalization with overlap
     ethr =  1.00E-02,  avg # of iterations =  1.0

     negative rho (up, down):  3.774E-02 0.000E+00

     total cpu time spent up to now is        3.9 secs

     total energy              =     -31.08812629 Ry
     Harris-Foulkes estimate   =     -32.04989731 Ry
     estimated scf accuracy    <       3.34863254 Ry

     iteration #  5     ecut=    30.00 Ry     beta=0.70
     Davidson diagonalization with overlap
     ethr =  1.00E-02,  avg # of iterations =  4.0

     negative rho (up, down):  3.535E-02 0.000E+00

     total cpu time spent up to now is        4.0 secs

     total energy              =     -31.26930005 Ry
     Harris-Foulkes estimate   =     -31.90445280 Ry
     estimated scf accuracy    <       3.87052454 Ry

     iteration #  6     ecut=    30.00 Ry     beta=0.70
     Davidson diagonalization with overlap
     ethr =  1.00E-02,  avg # of iterations =  1.0

     negative rho (up, down):  3.358E-02 0.000E+00

     total cpu time spent up to now is        4.1 secs

     total energy              =     -31.73725415 Ry
     Harris-Foulkes estimate   =     -31.61314653 Ry
     estimated scf accuracy    <       2.09681800 Ry

     iteration #  7     ecut=    30.00 Ry     beta=0.70
     Davidson diagonalization with overlap
     ethr =  1.00E-02,  avg # of iterations =  1.0

     negative rho (up, down):  2.256E-03 0.000E+00

     total cpu time spent up to now is        4.1 secs

     total energy              =     -31.25343418 Ry
     Harris-Foulkes estimate   =     -31.74691865 Ry
     estimated scf accuracy    <       2.69864610 Ry

     iteration #  8     ecut=    30.00 Ry     beta=0.70
     Davidson diagonalization with overlap
     ethr =  1.00E-02,  avg # of iterations =  1.0

     negative rho (up, down):  2.100E-04 0.000E+00

     total cpu time spent up to now is        4.2 secs

     total energy              =     -31.98192679 Ry
     Harris-Foulkes estimate   =     -31.79299096 Ry
     estimated scf accuracy    <       3.35307836 Ry

     iteration #  9     ecut=    30.00 Ry     beta=0.70
     Davidson diagonalization with overlap
     ethr =  1.00E-02,  avg # of iterations =  1.0

     negative rho (up, down):  2.242E-04 0.000E+00

     total cpu time spent up to now is        4.2 secs

     total energy              =     -32.09968718 Ry
     Harris-Foulkes estimate   =     -31.99505965 Ry
     estimated scf accuracy    <       4.13882574 Ry

     iteration # 10     ecut=    30.00 Ry     beta=0.70
     Davidson diagonalization with overlap
     ethr =  1.00E-02,  avg # of iterations =  1.0

     negative rho (up, down):  1.983E-04 0.000E+00

     total cpu time spent up to now is        4.3 secs

     total energy              =     -32.09607180 Ry
     Harris-Foulkes estimate   =     -32.10081375 Ry
     estimated scf accuracy    <       4.35944776 Ry

     iteration # 11     ecut=    30.00 Ry     beta=0.70
     Davidson diagonalization with overlap
     ethr =  1.00E-02,  avg # of iterations =  1.0

     negative rho (up, down):  1.931E-04 0.000E+00

     total cpu time spent up to now is        4.3 secs

     total energy              =     -32.07492602 Ry
     Harris-Foulkes estimate   =     -32.09615925 Ry
     estimated scf accuracy    <       4.36153943 Ry

     iteration # 12     ecut=    30.00 Ry     beta=0.70
     Davidson diagonalization with overlap
     ethr =  1.00E-02,  avg # of iterations =  1.0

     negative rho (up, down):  1.220E-05 0.000E+00

     total cpu time spent up to now is        4.3 secs

     total energy              =     -31.92245772 Ry
     Harris-Foulkes estimate   =     -32.07513042 Ry
     estimated scf accuracy    <       4.36283255 Ry

     iteration # 13     ecut=    30.00 Ry     beta=0.70
     Davidson diagonalization with overlap
     ethr =  1.00E-02,  avg # of iterations =  1.0

     negative rho (up, down):  1.648E-04 0.000E+00

     total cpu time spent up to now is        4.4 secs

     total energy              =     -31.66437104 Ry
     Harris-Foulkes estimate   =     -31.92629326 Ry
     estimated scf accuracy    <       3.86709410 Ry

     iteration # 14     ecut=    30.00 Ry     beta=0.70
     Davidson diagonalization with overlap
     ethr =  1.00E-02,  avg # of iterations =  1.0

     negative rho (up, down):  3.036E-03 0.000E+00

     total cpu time spent up to now is        4.4 secs

     total energy              =     -31.25104952 Ry
     Harris-Foulkes estimate   =     -31.70348823 Ry
     estimated scf accuracy    <       2.38863601 Ry

     iteration # 15     ecut=    30.00 Ry     beta=0.70
     Davidson diagonalization with overlap
     ethr =  1.00E-02,  avg # of iterations =  1.0

     negative rho (up, down):  6.422E-04 0.000E+00

     total cpu time spent up to now is        4.5 secs

     total energy              =     -31.76839762 Ry
     Harris-Foulkes estimate   =     -31.78116045 Ry
     estimated scf accuracy    <       2.72683026 Ry

     iteration # 16     ecut=    30.00 Ry     beta=0.70
     Davidson diagonalization with overlap
     ethr =  1.00E-02,  avg # of iterations =  1.0

     negative rho (up, down):  1.956E-05 0.000E+00

     total cpu time spent up to now is        4.5 secs

     total energy              =     -31.37224360 Ry
     Harris-Foulkes estimate   =     -31.76972262 Ry
     estimated scf accuracy    <       2.67714415 Ry

     iteration # 17     ecut=    30.00 Ry     beta=0.70
     Davidson diagonalization with overlap
     ethr =  1.00E-02,  avg # of iterations =  1.0

     negative rho (up, down):  2.795E-05 0.000E+00

     total cpu time spent up to now is        4.6 secs

     total energy              =     -31.65337855 Ry
     Harris-Foulkes estimate   =     -31.64861154 Ry
     estimated scf accuracy    <       1.56405418 Ry

     iteration # 18     ecut=    30.00 Ry     beta=0.70
     Davidson diagonalization with overlap
     ethr =  1.00E-02,  avg # of iterations =  1.0

     negative rho (up, down):  1.135E-05 0.000E+00

     total cpu time spent up to now is        4.6 secs

     total energy              =     -31.64652013 Ry
     Harris-Foulkes estimate   =     -31.65427179 Ry
     estimated scf accuracy    <       1.75934014 Ry

     iteration # 19     ecut=    30.00 Ry     beta=0.70
     Davidson diagonalization with overlap
     ethr =  1.00E-02,  avg # of iterations =  1.0

     negative rho (up, down):  1.121E-05 0.000E+00

     total cpu time spent up to now is        4.7 secs

     total energy              =     -31.63992548 Ry
     Harris-Foulkes estimate   =     -31.64661746 Ry
     estimated scf accuracy    <       1.67824808 Ry

     iteration # 20     ecut=    30.00 Ry     beta=0.70
     Davidson diagonalization with overlap
     ethr =  1.00E-02,  avg # of iterations =  1.0

     negative rho (up, down):  4.001E-05 0.000E+00

     total cpu time spent up to now is        4.7 secs

     total energy              =     -31.55657305 Ry
     Harris-Foulkes estimate   =     -31.63994366 Ry
     estimated scf accuracy    <       1.64079942 Ry

     iteration # 21     ecut=    30.00 Ry     beta=0.70
     Davidson diagonalization with overlap
     ethr =  1.00E-02,  avg # of iterations =  1.0

     negative rho (up, down):  3.239E-05 0.000E+00

     total cpu time spent up to now is        4.8 secs

     total energy              =     -31.58173067 Ry
     Harris-Foulkes estimate   =     -31.57645139 Ry
     estimated scf accuracy    <       1.17005597 Ry

     iteration # 22     ecut=    30.00 Ry     beta=0.70
     Davidson diagonalization with overlap
     ethr =  1.00E-02,  avg # of iterations =  1.0

     negative rho (up, down):  1.204E-04 0.000E+00

     total cpu time spent up to now is        4.8 secs

     total energy              =     -31.59606487 Ry
     Harris-Foulkes estimate   =     -31.58250787 Ry
     estimated scf accuracy    <       1.13340394 Ry

     iteration # 23     ecut=    30.00 Ry     beta=0.70
     Davidson diagonalization with overlap
     ethr =  1.00E-02,  avg # of iterations =  1.0

     negative rho (up, down):  1.260E-04 0.000E+00

     total cpu time spent up to now is        4.9 secs

     total energy              =     -31.57885679 Ry
     Harris-Foulkes estimate   =     -31.59700980 Ry
     estimated scf accuracy    <       1.28749166 Ry

     iteration # 24     ecut=    30.00 Ry     beta=0.70
     Davidson diagonalization with overlap
     ethr =  1.00E-02,  avg # of iterations =  1.0

     negative rho (up, down):  3.754E-05 0.000E+00

     total cpu time spent up to now is        4.9 secs

     total energy              =     -31.58201178 Ry
     Harris-Foulkes estimate   =     -31.58032924 Ry
     estimated scf accuracy    <       0.83139781 Ry

     iteration # 25     ecut=    30.00 Ry     beta=0.70
     Davidson diagonalization with overlap
     ethr =  1.00E-02,  avg # of iterations =  1.0

     negative rho (up, down):  1.290E-05 0.000E+00

     total cpu time spent up to now is        5.0 secs

     total energy              =     -31.50928238 Ry
     Harris-Foulkes estimate   =     -31.58202792 Ry
     estimated scf accuracy    <       0.87133127 Ry

     iteration # 26     ecut=    30.00 Ry     beta=0.70
     Davidson diagonalization with overlap
     ethr =  1.00E-02,  avg # of iterations =  1.0

     negative rho (up, down):  3.870E-06 0.000E+00

     total cpu time spent up to now is        5.0 secs

     total energy              =     -31.53374055 Ry
     Harris-Foulkes estimate   =     -31.54309414 Ry
     estimated scf accuracy    <       0.14896170 Ry

     iteration # 27     ecut=    30.00 Ry     beta=0.70
     Davidson diagonalization with overlap
     ethr =  1.86E-03,  avg # of iterations =  1.0

     negative rho (up, down):  2.147E-05 0.000E+00

     total cpu time spent up to now is        5.1 secs

     total energy              =     -31.53265791 Ry
     Harris-Foulkes estimate   =     -31.55296020 Ry
     estimated scf accuracy    <       0.64732379 Ry

     iteration # 28     ecut=    30.00 Ry     beta=0.70
     Davidson diagonalization with overlap
     ethr =  1.86E-03,  avg # of iterations =  1.0

     negative rho (up, down):  2.516E-05 0.000E+00

     total cpu time spent up to now is        5.1 secs

     total energy              =     -31.54101630 Ry
     Harris-Foulkes estimate   =     -31.54168495 Ry
     estimated scf accuracy    <       0.02372687 Ry

     iteration # 29     ecut=    30.00 Ry     beta=0.70
     Davidson diagonalization with overlap
     ethr =  2.97E-04,  avg # of iterations =  1.0

     negative rho (up, down):  4.132E-05 0.000E+00

     total cpu time spent up to now is        5.2 secs

     total energy              =     -31.54142766 Ry
     Harris-Foulkes estimate   =     -31.55261888 Ry
     estimated scf accuracy    <       0.83573057 Ry

     iteration # 30     ecut=    30.00 Ry     beta=0.70
     Davidson diagonalization with overlap
     ethr =  2.97E-04,  avg # of iterations =  1.0

     negative rho (up, down):  3.107E-06 0.000E+00

     total cpu time spent up to now is        5.2 secs

     total energy              =     -31.53969904 Ry
     Harris-Foulkes estimate   =     -31.54386342 Ry
     estimated scf accuracy    <       0.31971699 Ry

     iteration # 31     ecut=    30.00 Ry     beta=0.70
     Davidson diagonalization with overlap
     ethr =  2.97E-04,  avg # of iterations =  1.0

     negative rho (up, down):  5.836E-06 0.000E+00

     total cpu time spent up to now is        5.3 secs

     total energy              =     -31.53924463 Ry
     Harris-Foulkes estimate   =     -31.54090792 Ry
     estimated scf accuracy    <       0.06570827 Ry

     iteration # 32     ecut=    30.00 Ry     beta=0.70
     Davidson diagonalization with overlap
     ethr =  2.97E-04,  avg # of iterations =  1.0

     negative rho (up, down):  1.478E-06 0.000E+00

     total cpu time spent up to now is        5.3 secs

     total energy              =     -31.53977777 Ry
     Harris-Foulkes estimate   =     -31.53988669 Ry
     estimated scf accuracy    <       0.00321008 Ry

     iteration # 33     ecut=    30.00 Ry     beta=0.70
     Davidson diagonalization with overlap
     ethr =  4.01E-05,  avg # of iterations =  7.0

     negative rho (up, down):  1.829E-07 0.000E+00

     total cpu time spent up to now is        5.4 secs

     total energy              =     -31.53983921 Ry
     Harris-Foulkes estimate   =     -31.53984131 Ry
     estimated scf accuracy    <       0.00005560 Ry

     iteration # 34     ecut=    30.00 Ry     beta=0.70
     Davidson diagonalization with overlap
     ethr =  6.95E-07,  avg # of iterations = 16.0

     negative rho (up, down):  3.075E-08 0.000E+00

     total cpu time spent up to now is        5.4 secs

     total energy              =     -31.53983968 Ry
     Harris-Foulkes estimate   =     -31.53984040 Ry
     estimated scf accuracy    <       0.00001080 Ry

     iteration # 35     ecut=    30.00 Ry     beta=0.70
     Davidson diagonalization with overlap
     ethr =  1.35E-07,  avg # of iterations =  1.0

     total cpu time spent up to now is        5.5 secs

     total energy              =     -31.53984067 Ry
     Harris-Foulkes estimate   =     -31.53984024 Ry
     estimated scf accuracy    <       0.00000058 Ry

     iteration # 36     ecut=    30.00 Ry     beta=0.70
     Davidson diagonalization with overlap
     ethr =  7.26E-09,  avg # of iterations =  1.0

     total cpu time spent up to now is        5.5 secs

     total energy              =     -31.53984065 Ry
     Harris-Foulkes estimate   =     -31.53984068 Ry
     estimated scf accuracy    <       0.00000010 Ry

     iteration # 37     ecut=    30.00 Ry     beta=0.70
     Davidson diagonalization with overlap
     ethr =  1.20E-09,  avg # of iterations =  1.0

     total cpu time spent up to now is        5.6 secs

     total energy              =     -31.53984072 Ry
     Harris-Foulkes estimate   =     -31.53984066 Ry
     estimated scf accuracy    <       0.00000004 Ry

     iteration # 38     ecut=    30.00 Ry     beta=0.70
     Davidson diagonalization with overlap
     ethr =  4.57E-10,  avg # of iterations =  1.0

     total cpu time spent up to now is        5.6 secs

     End of self-consistent calculation

          k = 0.0000 0.0000 0.0000 ( 22119 PWs)   bands (ev):

   -23.7003  -7.5505  -7.0684  -7.0674  -6.9619  -6.5606  -0.1503   0.6654

     the Fermi energy is    -6.9212 ev

!    total energy              =     -31.53984082 Ry
     Harris-Foulkes estimate   =     -31.53984072 Ry
     estimated scf accuracy    <          1.8E-09 Ry

     convergence has been achieved in  38 iterations

     Forces acting on atoms (Ry/au):

     atom    1 type  2   force =     0.00278552    0.00235403   -0.04526110
     atom    2 type  1   force =    -0.00382262   -0.00168720    0.04440377
     atom    3 type  1   force =     0.00103710   -0.00066683    0.00085733

     Total force =     0.063665     Total SCF correction =     0.000204

     Entering Dynamics:    iteration =     2
                           time      =   0.0097 pico-seconds


     Andersen thermostat:    3 collisions

ATOMIC_POSITIONS (bohr)
O        5.686400359   9.221469271   0.874740151
H        6.034050184   9.321833113  16.280706859
H        1.512218888  11.277889588   9.948861269


     kinetic energy (Ekin) =     0.01703536 Ry
     temperature           =   896.55557568 K 
     Ekin + Etot (const)   =   -31.52280547 Ry
     Message from routine dynamics:
     Total linear momentum <> 0

     Linear momentum :    0.0316409203    0.3676783473    0.1781879288

     Writing output data file pwscf.save

     first order wave-functions extrapolation
     Check: negative starting charge=   -0.343095
     first order charge density extrapolation
     Check: negative starting charge=   -0.342536

     negative rho (up, down):  4.226E-01 0.000E+00

     total cpu time spent up to now is        6.1 secs

     per-process dynamical memory:    20.4 Mb

     Self-consistent Calculation

     iteration #  1     ecut=    30.00 Ry     beta=0.70
     Davidson diagonalization with overlap
     ethr =  1.00E-06,  avg # of iterations = 10.0

     negative rho (up, down):  8.720E-02 0.000E+00

     total cpu time spent up to now is        6.3 secs

     total energy              =      75.03921280 Ry
     Harris-Foulkes estimate   =    -288.68994652 Ry
     estimated scf accuracy    <      27.79326348 Ry

     iteration #  2     ecut=    30.00 Ry     beta=0.70
     Davidson diagonalization with overlap
     ethr =  1.00E-02,  avg # of iterations =  7.0

     negative rho (up, down):  5.735E-02 0.000E+00

     total cpu time spent up to now is        6.3 secs

     total energy              =     -35.63191712 Ry
     Harris-Foulkes estimate   =     -50.70592588 Ry
     estimated scf accuracy    <      32.48316444 Ry

     iteration #  3     ecut=    30.00 Ry     beta=0.70
     Davidson diagonalization with overlap
     ethr =  1.00E-02,  avg # of iterations =  3.0

     negative rho (up, down):  3.379E-02 0.000E+00

     total cpu time spent up to now is        6.4 secs

     total energy              =     -31.65755309 Ry
     Harris-Foulkes estimate   =     -36.40043337 Ry
     estimated scf accuracy    <      10.47152073 Ry

     iteration #  4     ecut=    30.00 Ry     beta=0.70
     Davidson diagonalization with overlap
     ethr =  1.00E-02,  avg # of iterations =  4.0

     negative rho (up, down):  2.646E-02 0.000E+00

     total cpu time spent up to now is        6.4 secs

     total energy              =     -31.77304217 Ry
     Harris-Foulkes estimate   =     -32.62574859 Ry
     estimated scf accuracy    <       3.81210750 Ry

     iteration #  5     ecut=    30.00 Ry     beta=0.70
     Davidson diagonalization with overlap
     ethr =  1.00E-02,  avg # of iterations =  2.0

     negative rho (up, down):  1.244E-02 0.000E+00

     total cpu time spent up to now is        6.5 secs

     total energy              =     -31.63957451 Ry
     Harris-Foulkes estimate   =     -32.94622060 Ry
     estimated scf accuracy    <       4.92419238 Ry

     iteration #  6     ecut=    30.00 Ry     beta=0.70
     Davidson diagonalization with overlap
     ethr =  1.00E-02,  avg # of iterations =  2.0

     negative rho (up, down):  1.257E-02 0.000E+00

     total cpu time spent up to now is        6.5 secs

     total energy              =     -31.76726326 Ry
     Harris-Foulkes estimate   =     -31.77180334 Ry
     estimated scf accuracy    <       1.18080203 Ry

     iteration #  7     ecut=    30.00 Ry     beta=0.70
     Davidson diagonalization with overlap
     ethr =  1.00E-02,  avg # of iterations =  1.0

     negative rho (up, down):  1.253E-02 0.000E+00

     total cpu time spent up to now is        6.6 secs

     total energy              =     -31.76677755 Ry
     Harris-Foulkes estimate   =     -31.77029461 Ry
     estimated scf accuracy    <       1.07530023 Ry

     iteration #  8     ecut=    30.00 Ry     beta=0.70
     Davidson diagonalization with overlap
     ethr =  1.00E-02,  avg # of iterations =  1.0

     negative rho (up, down):  1.307E-02 0.000E+00

     total cpu time spent up to now is        6.6 secs

     total energy              =     -31.72754379 Ry
     Harris-Foulkes estimate   =     -31.76692878 Ry
     estimated scf accuracy    <       1.07307742 Ry

     iteration #  9     ecut=    30.00 Ry     beta=0.70
     Davidson diagonalization with overlap
     ethr =  1.00E-02,  avg # of iterations =  1.0

     negative rho (up, down):  1.751E-02 0.000E+00

     total cpu time spent up to now is        6.7 secs

     total energy              =     -31.80100537 Ry
     Harris-Foulkes estimate   =     -31.74454531 Ry
     estimated scf accuracy    <       1.10313711 Ry

     iteration # 10     ecut=    30.00 Ry     beta=0.70
     Davidson diagonalization with overlap
     ethr =  1.00E-02,  avg # of iterations =  1.0

     negative rho (up, down):  5.710E-05 0.000E+00

     total cpu time spent up to now is        6.7 secs

     total energy              =     -31.04831342 Ry
     Harris-Foulkes estimate   =     -31.87110611 Ry
     estimated scf accuracy    <       1.46436603 Ry

     iteration # 11     ecut=    30.00 Ry     beta=0.70
     Davidson diagonalization with overlap
     ethr =  1.00E-02,  avg # of iterations =  2.0

     negative rho (up, down):  1.081E-01 0.000E+00

     total cpu time spent up to now is        6.8 secs

     total energy              =     -33.42696844 Ry
     Harris-Foulkes estimate   =     -33.43071768 Ry
     estimated scf accuracy    <       7.18649703 Ry

     iteration # 12     ecut=    30.00 Ry     beta=0.70
     Davidson diagonalization with overlap
     ethr =  1.00E-02,  avg # of iterations =  1.0

     negative rho (up, down):  4.806E-01 0.000E+00

     total cpu time spent up to now is        6.8 secs

     total energy              =     -42.75218658 Ry
     Harris-Foulkes estimate   =     -33.43711638 Ry
     estimated scf accuracy    <       7.24347941 Ry

     iteration # 13     ecut=    30.00 Ry     beta=0.70
     Davidson diagonalization with overlap
     ethr =  1.00E-02,  avg # of iterations =  3.0

     negative rho (up, down):  4.763E-01 0.000E+00

     total cpu time spent up to now is        6.9 secs

     total energy              =     -35.34242237 Ry
     Harris-Foulkes estimate   =     -71.70057685 Ry
     estimated scf accuracy    <       9.47292003 Ry

     iteration # 14     ecut=    30.00 Ry     beta=0.70
     Davidson diagonalization with overlap
     ethr =  1.00E-02,  avg # of iterations =  3.0

     negative rho (up, down):  8.696E-01 0.000E+00

     total cpu time spent up to now is        7.0 secs

     total energy              =    -322.83075155 Ry
     Harris-Foulkes estimate   =     -41.96896128 Ry
     estimated scf accuracy    <       8.24649046 Ry

     iteration # 15     ecut=    30.00 Ry     beta=0.70
     Davidson diagonalization with overlap
     ethr =  1.00E-02,  avg # of iterations =  8.0

     negative rho (up, down):  9.472E-01 0.000E+00

     total cpu time spent up to now is        7.0 secs

     total energy              =     -60.80743232 Ry
     Harris-Foulkes estimate   =   -1070.32310320 Ry
     estimated scf accuracy    <      24.66806102 Ry

     iteration # 16     ecut=    30.00 Ry     beta=0.70
     Davidson diagonalization with overlap
     ethr =  1.00E-02,  avg # of iterations =  7.0

     negative rho (up, down):  9.351E-04 0.000E+00

     total cpu time spent up to now is        7.1 secs

     total energy              =       8.73978310 Ry
     Harris-Foulkes estimate   =    -140.78983727 Ry
     estimated scf accuracy    <      16.08046486 Ry

     iteration # 17     ecut=    30.00 Ry     beta=0.70
     Davidson diagonalization with overlap
     ethr =  1.00E-02,  avg # of iterations =  7.0

     negative rho (up, down):  2.154E-02 0.000E+00

     total cpu time spent up to now is        7.3 secs

     total energy              =     -30.71476668 Ry
     Harris-Foulkes estimate   =     -32.32738054 Ry
     estimated scf accuracy    <       4.79220835 Ry

     iteration # 18     ecut=    30.00 Ry     beta=0.70
     Davidson diagonalization with overlap
     ethr =  1.00E-02,  avg # of iterations =  3.0

     negative rho (up, down):  1.514E-02 0.000E+00

     total cpu time spent up to now is        7.3 secs

     total energy              =     -32.09814961 Ry
     Harris-Foulkes estimate   =     -31.77392547 Ry
     estimated scf accuracy    <       0.74538362 Ry

     iteration # 19     ecut=    30.00 Ry     beta=0.70
     Davidson diagonalization with overlap
     ethr =  9.32E-03,  avg # of iterations =  4.0

     negative rho (up, down):  1.203E-02 0.000E+00

     total cpu time spent up to now is        7.4 secs

     total energy              =     -16.25184974 Ry
     Harris-Foulkes estimate   =     -45.52435206 Ry
     estimated scf accuracy    <       9.73461421 Ry

     iteration # 20     ecut=    30.00 Ry     beta=0.70
     Davidson diagonalization with overlap
     ethr =  9.32E-03,  avg # of iterations =  4.0

     negative rho (up, down):  1.001E-02 0.000E+00

     total cpu time spent up to now is        7.4 secs

     total energy              =     -32.84651438 Ry
     Harris-Foulkes estimate   =     -32.21508835 Ry
     estimated scf accuracy    <       4.57780811 Ry

     iteration # 21     ecut=    30.00 Ry     beta=0.70
     Davidson diagonalization with overlap
     ethr =  9.32E-03,  avg # of iterations =  3.0

     negative rho (up, down):  1.673E-02 0.000E+00

     total cpu time spent up to now is        7.5 secs

     total energy              =     -31.73509208 Ry
     Harris-Foulkes estimate   =     -35.76366104 Ry
     estimated scf accuracy    <       7.53479326 Ry

     iteration # 22     ecut=    30.00 Ry     beta=0.70
     Davidson diagonalization with overlap
     ethr =  9.32E-03,  avg # of iterations =  4.0

     negative rho (up, down):  1.796E-02 0.000E+00

     total cpu time spent up to now is        7.6 secs

     total energy              =     -21.66512589 Ry
     Harris-Foulkes estimate   =     -43.57629531 Ry
     estimated scf accuracy    <      11.09501458 Ry

     iteration # 23     ecut=    30.00 Ry     beta=0.70
     Davidson diagonalization with overlap
     ethr =  9.32E-03,  avg # of iterations =  3.0

     negative rho (up, down):  2.188E-02 0.000E+00

     total cpu time spent up to now is        7.6 secs

     total energy              =     -35.34316868 Ry
     Harris-Foulkes estimate   =     -37.12964685 Ry
     estimated scf accuracy    <       5.76122976 Ry

     iteration # 24     ecut=    30.00 Ry     beta=0.70
     Davidson diagonalization with overlap
     ethr =  9.32E-03,  avg # of iterations =  3.0

     negative rho (up, down):  3.869E-02 0.000E+00

     total cpu time spent up to now is        7.7 secs

     total energy              =     -41.08443236 Ry
     Harris-Foulkes estimate   =     -43.37462980 Ry
     estimated scf accuracy    <      10.66069136 Ry

     iteration # 25     ecut=    30.00 Ry     beta=0.70
     Davidson diagonalization with overlap
     ethr =  9.32E-03,  avg # of iterations =  4.0

     negative rho (up, down):  1.043E-01 0.000E+00

     total cpu time spent up to now is        7.7 secs

     total energy              =      -4.80574531 Ry
     Harris-Foulkes estimate   =    -142.42614630 Ry
     estimated scf accuracy    <      26.27899283 Ry

     iteration # 26     ecut=    30.00 Ry     beta=0.70
     Davidson diagonalization with overlap
     ethr =  9.32E-03,  avg # of iterations =  4.0

     negative rho (up, down):  1.145E-01 0.000E+00

     total cpu time spent up to now is        7.8 secs

     total energy              =      -9.20095468 Ry
     Harris-Foulkes estimate   =     -82.85917224 Ry
     estimated scf accuracy    <      15.57708642 Ry

     iteration # 27     ecut=    30.00 Ry     beta=0.70
     Davidson diagonalization with overlap
     ethr =  9.32E-03,  avg # of iterations =  4.0

     negative rho (up, down):  3.367E-01 0.000E+00

     total cpu time spent up to now is        7.9 secs

     total energy              =     -10.38446505 Ry
     Harris-Foulkes estimate   =    -168.78993045 Ry
     estimated scf accuracy    <      16.19166797 Ry

     iteration # 28     ecut=    30.00 Ry     beta=0.70
     Davidson diagonalization with overlap
     ethr =  9.32E-03,  avg # of iterations =  4.0

     negative rho (up, down):  4.268E-01 0.000E+00

     total cpu time spent up to now is        7.9 secs

     total energy              =     -48.40704087 Ry
     Harris-Foulkes estimate   =     -63.88357676 Ry
     estimated scf accuracy    <      17.95861081 Ry

     iteration # 29     ecut=    30.00 Ry     beta=0.70
     Davidson diagonalization with overlap
     ethr =  9.32E-03,  avg # of iterations =  7.0

     negative rho (up, down):  4.515E-01 0.000E+00

     total cpu time spent up to now is        8.0 secs

     total energy              =    -421.77787088 Ry
     Harris-Foulkes estimate   =   -3229.62527043 Ry
     estimated scf accuracy    <      52.21700195 Ry

     iteration # 30     ecut=    30.00 Ry     beta=0.70
     Davidson diagonalization with overlap
     ethr =  9.32E-03,  avg # of iterations =  5.0

     negative rho (up, down):  5.252E-01 0.000E+00

     total cpu time spent up to now is        8.1 secs

     total energy              =     -68.05190640 Ry
     Harris-Foulkes estimate   =   -1330.95147528 Ry
     estimated scf accuracy    <      45.36195782 Ry

     iteration # 31     ecut=    30.00 Ry     beta=0.70
     Davidson diagonalization with overlap
     ethr =  9.32E-03,  avg # of iterations =  5.0

     negative rho (up, down):  6.617E-01 0.000E+00

     total cpu time spent up to now is        8.2 secs

     total energy              =      -7.29959954 Ry
     Harris-Foulkes estimate   =    -884.53493649 Ry
     estimated scf accuracy    <      34.91740028 Ry

     iteration # 32     ecut=    30.00 Ry     beta=0.70
     Davidson diagonalization with overlap
     ethr =  9.32E-03,  avg # of iterations =  8.0

     negative rho (up, down):  9.836E-01 0.000E+00

     total cpu time spent up to now is        8.3 secs

     total energy              =   -1039.17820672 Ry
     Harris-Foulkes estimate   =    -640.24072477 Ry
     estimated scf accuracy    <      42.67729140 Ry

     iteration # 33     ecut=    30.00 Ry     beta=0.70
     Davidson diagonalization with overlap
     ethr =  9.32E-03,  avg # of iterations =  7.0

     negative rho (up, down):  1.515E+00 0.000E+00

     total cpu time spent up to now is        8.3 secs

     total energy              =      -0.47548824 Ry
     Harris-Foulkes estimate   =   -8602.46237844 Ry
     estimated scf accuracy    <      41.23822489 Ry

     iteration # 34     ecut=    30.00 Ry     beta=0.70
     Davidson diagonalization with overlap
     ethr =  9.32E-03,  avg # of iterations =  8.0

     negative rho (up, down):  1.723E+00 0.000E+00

     total cpu time spent up to now is        8.4 secs

     total energy              =    -150.06946469 Ry
     Harris-Foulkes estimate   =    -572.53607440 Ry
     estimated scf accuracy    <      41.73610777 Ry

     iteration # 35     ecut=    30.00 Ry     beta=0.70
     Davidson diagonalization with overlap
     ethr =  9.32E-03,  avg # of iterations =  6.0

     negative rho (up, down):  1.917E+00 0.000E+00

     total cpu time spent up to now is        8.5 secs

     total energy              =    -237.86673334 Ry
     Harris-Foulkes estimate   =  -28537.43063634 Ry
     estimated scf accuracy    <      35.40806074 Ry

     iteration # 36     ecut=    30.00 Ry     beta=0.70
     Davidson diagonalization with overlap
     ethr =  9.32E-03,  avg # of iterations =  9.0

     negative rho (up, down):  1.842E+00 0.000E+00

     total cpu time spent up to now is        8.6 secs

     total energy              =   -1223.78337073 Ry
     Harris-Foulkes estimate   =   -4544.13316141 Ry
     estimated scf accuracy    <      46.20374934 Ry

     iteration # 37     ecut=    30.00 Ry     beta=0.70
     Davidson diagonalization with overlap
     ethr =  9.32E-03,  avg # of iterations = 10.0

     negative rho (up, down):  2.114E+00 0.000E+00

     total cpu time spent up to now is        8.7 secs

     total energy              =     -45.57489235 Ry
     Harris-Foulkes estimate   =   -6920.23564822 Ry
     estimated scf accuracy    <      41.26724069 Ry

     iteration # 38     ecut=    30.00 Ry     beta=0.70
     Davidson diagonalization with overlap
     ethr =  9.32E-03,  avg # of iterations =  8.0

     negative rho (up, down):  8.394E-01 0.000E+00

     total cpu time spent up to now is        8.8 secs

     total energy              =    -174.21999109 Ry
     Harris-Foulkes estimate   =   -3998.51492625 Ry
     estimated scf accuracy    <      28.92912213 Ry

     iteration # 39     ecut=    30.00 Ry     beta=0.70
     Davidson diagonalization with overlap
     ethr =  9.32E-03,  avg # of iterations =  7.0

     negative rho (up, down):  5.828E-01 0.000E+00

     total cpu time spent up to now is        8.9 secs

     total energy              =  -35555.91728149 Ry
     Harris-Foulkes estimate   =   -3665.30370289 Ry
     estimated scf accuracy    <      28.70135784 Ry

     iteration # 40     ecut=    30.00 Ry     beta=0.70
     Davidson diagonalization with overlap
     ethr =  9.32E-03,  avg # of iterations =  7.0

     negative rho (up, down):  6.727E-01 0.000E+00

     total cpu time spent up to now is        9.0 secs

     total energy              =     110.09241640 Ry
     Harris-Foulkes estimate   =  -90591.87467235 Ry
     estimated scf accuracy    <      17.02650774 Ry

     iteration # 41     ecut=    30.00 Ry     beta=0.70
     Davidson diagonalization with overlap
     ethr =  9.32E-03,  avg # of iterations =  8.0

     negative rho (up, down):  6.805E-01 0.000E+00

     total cpu time spent up to now is        9.1 secs

     total energy              =    1223.94974613 Ry
     Harris-Foulkes estimate   =    -541.97881918 Ry
     estimated scf accuracy    <      26.54672789 Ry

     iteration # 42     ecut=    30.00 Ry     beta=0.70
     Davidson diagonalization with overlap
     ethr =  9.32E-03,  avg # of iterations =  9.0

     negative rho (up, down):  6.523E-01 0.000E+00

     total cpu time spent up to now is        9.2 secs

     total energy              =     107.54812540 Ry
     Harris-Foulkes estimate   =    -497.84406748 Ry
     estimated scf accuracy    <      26.15238289 Ry

     iteration # 43     ecut=    30.00 Ry     beta=0.70
     Davidson diagonalization with overlap
     ethr =  9.32E-03,  avg # of iterations = 13.0

     negative rho (up, down):  1.843E-01 0.000E+00

     total cpu time spent up to now is        9.3 secs

     total energy              =      26.77006590 Ry
     Harris-Foulkes estimate   =    -658.09302221 Ry
     estimated scf accuracy    <      28.68155371 Ry

     iteration # 44     ecut=    30.00 Ry     beta=0.70
     Davidson diagonalization with overlap
     ethr =  9.32E-03,  avg # of iterations =  8.0

     negative rho (up, down):  1.858E-01 0.000E+00

     total cpu time spent up to now is        9.4 secs

     total energy              =      62.08956700 Ry
     Harris-Foulkes estimate   =   -5082.47099785 Ry
     estimated scf accuracy    <      21.23894285 Ry

     iteration # 45     ecut=    30.00 Ry     beta=0.70
     Davidson diagonalization with overlap
     ethr =  9.32E-03,  avg # of iterations =  8.0

     negative rho (up, down):  3.279E-03 0.000E+00

     total cpu time spent up to now is        9.4 secs

     total energy              =      14.09544249 Ry
     Harris-Foulkes estimate   =     -95.03817437 Ry
     estimated scf accuracy    <      20.60305144 Ry

     iteration # 46     ecut=    30.00 Ry     beta=0.70
     Davidson diagonalization with overlap
     ethr =  9.32E-03,  avg # of iterations =  7.0

     negative rho (up, down):  1.284E-03 0.000E+00

     total cpu time spent up to now is        9.5 secs

     total energy              =     -34.11248759 Ry
     Harris-Foulkes estimate   =     -75.69208634 Ry
     estimated scf accuracy    <      29.33212878 Ry

     iteration # 47     ecut=    30.00 Ry     beta=0.70
     Davidson diagonalization with overlap
     ethr =  9.32E-03,  avg # of iterations =  4.0

     negative rho (up, down):  6.252E-02 0.000E+00

     total cpu time spent up to now is        9.6 secs

     total energy              =     -15.53149786 Ry
     Harris-Foulkes estimate   =    -121.03504706 Ry
     estimated scf accuracy    <      29.09088373 Ry

     iteration # 48     ecut=    30.00 Ry     beta=0.70
     Davidson diagonalization with overlap
     ethr =  9.32E-03,  avg # of iterations =  4.0

     negative rho (up, down):  2.158E-01 0.000E+00

     total cpu time spent up to now is        9.6 secs

     total energy              =    -114.42534104 Ry
     Harris-Foulkes estimate   =     -96.01644766 Ry
     estimated scf accuracy    <      25.84606526 Ry

     iteration # 49     ecut=    30.00 Ry     beta=0.70
     Davidson diagonalization with overlap
     ethr =  9.32E-03,  avg # of iterations =  6.0

     negative rho (up, down):  2.259E-01 0.000E+00

     total cpu time spent up to now is        9.7 secs

     total energy              =      12.40612657 Ry
     Harris-Foulkes estimate   =   -2336.09991859 Ry
     estimated scf accuracy    <      26.66306276 Ry

     iteration # 50     ecut=    30.00 Ry     beta=0.70
     Davidson diagonalization with overlap
     ethr =  9.32E-03,  avg # of iterations =  5.0

     negative rho (up, down):  5.946E-01 0.000E+00

     total cpu time spent up to now is        9.8 secs

     total energy              =     -29.42712637 Ry
     Harris-Foulkes estimate   =     -66.22348261 Ry
     estimated scf accuracy    <      25.15149600 Ry

     iteration # 51     ecut=    30.00 Ry     beta=0.70
     Davidson diagonalization with overlap
     ethr =  9.32E-03,  avg # of iterations =  7.0

     negative rho (up, down):  6.384E-01 0.000E+00

     total cpu time spent up to now is        9.9 secs

     total energy              =    -242.84983917 Ry
     Harris-Foulkes estimate   =    -247.47835103 Ry
     estimated scf accuracy    <      20.88486477 Ry

     iteration # 52     ecut=    30.00 Ry     beta=0.70
     Davidson diagonalization with overlap
     ethr =  9.32E-03,  avg # of iterations =  6.0

     negative rho (up, down):  7.523E-01 0.000E+00

     total cpu time spent up to now is        9.9 secs

     total energy              =    -208.40978813 Ry
     Harris-Foulkes estimate   =  -14497.84310645 Ry
     estimated scf accuracy    <      15.88682219 Ry

     iteration # 53     ecut=    30.00 Ry     beta=0.70
     Davidson diagonalization with overlap
     ethr =  9.32E-03,  avg # of iterations =  8.0

     negative rho (up, down):  4.778E-01 0.000E+00

     total cpu time spent up to now is       10.0 secs

     total energy              =     111.17576357 Ry
     Harris-Foulkes estimate   =    -868.94921226 Ry
     estimated scf accuracy    <      21.45688298 Ry

     iteration # 54     ecut=    30.00 Ry     beta=0.70
     Davidson diagonalization with overlap
     ethr =  9.32E-03,  avg # of iterations =  8.0

     negative rho (up, down):  4.937E-01 0.000E+00

     total cpu time spent up to now is       10.1 secs

     total energy              =     -18.43728384 Ry
     Harris-Foulkes estimate   =     -64.84046649 Ry
     estimated scf accuracy    <      22.38783394 Ry

     iteration # 55     ecut=    30.00 Ry     beta=0.70
     Davidson diagonalization with overlap
     ethr =  9.32E-03,  avg # of iterations =  5.0

     negative rho (up, down):  3.988E-02 0.000E+00

     total cpu time spent up to now is       10.2 secs

     total energy              =     105.56776424 Ry
     Harris-Foulkes estimate   =    -898.10895767 Ry
     estimated scf accuracy    <      25.96548466 Ry

     iteration # 56     ecut=    30.00 Ry     beta=0.70
     Davidson diagonalization with overlap
     ethr =  9.32E-03,  avg # of iterations =  9.0

     negative rho (up, down):  1.692E-02 0.000E+00

     total cpu time spent up to now is       10.3 secs

     total energy              =       7.52621364 Ry
     Harris-Foulkes estimate   =    -618.68109858 Ry
     estimated scf accuracy    <      16.22749790 Ry

     iteration # 57     ecut=    30.00 Ry     beta=0.70
     Davidson diagonalization with overlap
     ethr =  9.32E-03,  avg # of iterations =  7.0

     negative rho (up, down):  2.084E-03 0.000E+00

     total cpu time spent up to now is       10.3 secs

     total energy              =      41.17502182 Ry
     Harris-Foulkes estimate   =     -96.72430424 Ry
     estimated scf accuracy    <      11.21704961 Ry

     iteration # 58     ecut=    30.00 Ry     beta=0.70
     Davidson diagonalization with overlap
     ethr =  9.32E-03,  avg # of iterations =  7.0

     negative rho (up, down):  1.465E-02 0.000E+00

     total cpu time spent up to now is       10.4 secs

     total energy              =      -3.29825331 Ry
     Harris-Foulkes estimate   =    -283.67152243 Ry
     estimated scf accuracy    <      17.69362498 Ry

     iteration # 59     ecut=    30.00 Ry     beta=0.70
     Davidson diagonalization with overlap
     ethr =  9.32E-03,  avg # of iterations =  7.0

     negative rho (up, down):  2.173E-02 0.000E+00

     total cpu time spent up to now is       10.5 secs

     total energy              =      24.25434458 Ry
     Harris-Foulkes estimate   =     -88.57109911 Ry
     estimated scf accuracy    <      12.63892957 Ry

     iteration # 60     ecut=    30.00 Ry     beta=0.70
     Davidson diagonalization with overlap
     ethr =  9.32E-03,  avg # of iterations =  8.0

     negative rho (up, down):  1.290E-01 0.000E+00

     total cpu time spent up to now is       10.6 secs

     total energy              =      -8.08454723 Ry
     Harris-Foulkes estimate   =    -229.80376882 Ry
     estimated scf accuracy    <      16.61094283 Ry

     iteration # 61     ecut=    30.00 Ry     beta=0.70
     Davidson diagonalization with overlap
     ethr =  9.32E-03,  avg # of iterations =  3.0

     negative rho (up, down):  1.359E-01 0.000E+00

     total cpu time spent up to now is       10.6 secs

     total energy              =     -41.73886892 Ry
     Harris-Foulkes estimate   =     -47.75953622 Ry
     estimated scf accuracy    <      20.65621115 Ry

     iteration # 62     ecut=    30.00 Ry     beta=0.70
     Davidson diagonalization with overlap
     ethr =  9.32E-03,  avg # of iterations =  9.0

     negative rho (up, down):  1.486E-01 0.000E+00

     total cpu time spent up to now is       10.7 secs

     total energy              =    -304.47861065 Ry
     Harris-Foulkes estimate   =    -150.46523358 Ry
     estimated scf accuracy    <      19.96493694 Ry

     iteration # 63     ecut=    30.00 Ry     beta=0.70
     Davidson diagonalization with overlap
     ethr =  9.32E-03,  avg # of iterations =  9.0

     negative rho (up, down):  3.204E-02 0.000E+00

     total cpu time spent up to now is       10.8 secs

     total energy              =     114.19199157 Ry
     Harris-Foulkes estimate   =   -1297.10474609 Ry
     estimated scf accuracy    <      28.87388572 Ry

     iteration # 64     ecut=    30.00 Ry     beta=0.70
     Davidson diagonalization with overlap
     ethr =  9.32E-03,  avg # of iterations =  9.0

     negative rho (up, down):  1.923E-01 0.000E+00

     total cpu time spent up to now is       10.9 secs

     total energy              =     -26.15031166 Ry
     Harris-Foulkes estimate   =    -115.22167301 Ry
     estimated scf accuracy    <      14.06506094 Ry

     iteration # 65     ecut=    30.00 Ry     beta=0.70
     Davidson diagonalization with overlap
     ethr =  9.32E-03,  avg # of iterations = 13.0

     negative rho (up, down):  3.222E-01 0.000E+00

     total cpu time spent up to now is       11.0 secs

     total energy              =      82.98697390 Ry
     Harris-Foulkes estimate   =   -4769.21686937 Ry
     estimated scf accuracy    <      43.33087216 Ry

     iteration # 66     ecut=    30.00 Ry     beta=0.70
     Davidson diagonalization with overlap
     ethr =  9.32E-03,  avg # of iterations =  8.0

     negative rho (up, down):  3.192E-01 0.000E+00

     total cpu time spent up to now is       11.1 secs

     total energy              =      68.46608841 Ry
     Harris-Foulkes estimate   =    -423.55640848 Ry
     estimated scf accuracy    <      34.44026102 Ry

     iteration # 67     ecut=    30.00 Ry     beta=0.70
     Davidson diagonalization with overlap
     ethr =  9.32E-03,  avg # of iterations =  5.0

     negative rho (up, down):  4.604E-01 0.000E+00

     total cpu time spent up to now is       11.2 secs

     total energy              =    -624.79617395 Ry
     Harris-Foulkes estimate   =   -1634.34130610 Ry
     estimated scf accuracy    <      47.47322840 Ry

     iteration # 68     ecut=    30.00 Ry     beta=0.70
     Davidson diagonalization with overlap
     ethr =  9.32E-03,  avg # of iterations =  7.0

     negative rho (up, down):  5.696E-01 0.000E+00

     total cpu time spent up to now is       11.2 secs

     total energy              =    -247.88385940 Ry
     Harris-Foulkes estimate   =   -3871.02664196 Ry
     estimated scf accuracy    <      43.07571175 Ry

     iteration # 69     ecut=    30.00 Ry     beta=0.70
     Davidson diagonalization with overlap
     ethr =  9.32E-03,  avg # of iterations =  9.0

     negative rho (up, down):  5.912E-01 0.000E+00

     total cpu time spent up to now is       11.3 secs

     total energy              =      25.16851364 Ry
     Harris-Foulkes estimate   =   -4130.93621643 Ry
     estimated scf accuracy    <      44.30149632 Ry

     iteration # 70     ecut=    30.00 Ry     beta=0.70
     Davidson diagonalization with overlap
     ethr =  9.32E-03,  avg # of iterations =  9.0

     negative rho (up, down):  5.974E-01 0.000E+00

     total cpu time spent up to now is       11.4 secs

     total energy              =    -493.69413953 Ry
     Harris-Foulkes estimate   =    -729.25063704 Ry
     estimated scf accuracy    <      41.02882701 Ry

     iteration # 71     ecut=    30.00 Ry     beta=0.70
     Davidson diagonalization with overlap
     ethr =  9.32E-03,  avg # of iterations =  6.0

     negative rho (up, down):  9.426E-01 0.000E+00

     total cpu time spent up to now is       11.5 secs

     total energy              =    -169.38280973 Ry
     Harris-Foulkes estimate   =   -4589.56828127 Ry
     estimated scf accuracy    <      34.82324257 Ry

     iteration # 72     ecut=    30.00 Ry     beta=0.70
     Davidson diagonalization with overlap
     ethr =  9.32E-03,  avg # of iterations =  7.0

     negative rho (up, down):  1.404E+00 0.000E+00

     total cpu time spent up to now is       11.6 secs

     total energy              =    -216.43260139 Ry
     Harris-Foulkes estimate   =   -1864.40548477 Ry
     estimated scf accuracy    <      31.94008664 Ry

     iteration # 73     ecut=    30.00 Ry     beta=0.70
     Davidson diagonalization with overlap
     ethr =  9.32E-03,  avg # of iterations =  7.0

     negative rho (up, down):  1.250E+00 0.000E+00

     total cpu time spent up to now is       11.7 secs

     total energy              =    -349.07995183 Ry
     Harris-Foulkes estimate   =   -2464.11921595 Ry
     estimated scf accuracy    <      25.76367779 Ry

     iteration # 74     ecut=    30.00 Ry     beta=0.70
     Davidson diagonalization with overlap
     ethr =  9.32E-03,  avg # of iterations =  8.0

     negative rho (up, down):  2.386E-01 0.000E+00

     total cpu time spent up to now is       11.7 secs

     total energy              =     128.35951067 Ry
     Harris-Foulkes estimate   =   -9414.20066983 Ry
     estimated scf accuracy    <      27.08891047 Ry

     iteration # 75     ecut=    30.00 Ry     beta=0.70
     Davidson diagonalization with overlap
     ethr =  9.32E-03,  avg # of iterations = 10.0

     negative rho (up, down):  3.614E-01 0.000E+00

     total cpu time spent up to now is       11.8 secs

     total energy              =   -6782.76907323 Ry
     Harris-Foulkes estimate   =    -193.04953720 Ry
     estimated scf accuracy    <      21.15783740 Ry

     iteration # 76     ecut=    30.00 Ry     beta=0.70
     Davidson diagonalization with overlap
     ethr =  9.32E-03,  avg # of iterations =  5.0

     negative rho (up, down):  1.106E-01 0.000E+00

     total cpu time spent up to now is       11.9 secs

     total energy              =     189.43608907 Ry
     Harris-Foulkes estimate   =  -11350.45502560 Ry
     estimated scf accuracy    <      18.47121072 Ry

     iteration # 77     ecut=    30.00 Ry     beta=0.70
     Davidson diagonalization with overlap
     ethr =  9.32E-03,  avg # of iterations =  8.0

     negative rho (up, down):  4.221E-02 0.000E+00

     total cpu time spent up to now is       12.0 secs

     total energy              =     121.41196970 Ry
     Harris-Foulkes estimate   =   -1144.23505976 Ry
     estimated scf accuracy    <      24.38806032 Ry

     iteration # 78     ecut=    30.00 Ry     beta=0.70
     Davidson diagonalization with overlap
     ethr =  9.32E-03,  avg # of iterations =  9.0

     negative rho (up, down):  4.269E-02 0.000E+00

     total cpu time spent up to now is       12.1 secs

     total energy              =     135.36028780 Ry
     Harris-Foulkes estimate   =    -799.70049979 Ry
     estimated scf accuracy    <      18.35042613 Ry

     iteration # 79     ecut=    30.00 Ry     beta=0.70
     Davidson diagonalization with overlap
     ethr =  9.32E-03,  avg # of iterations = 10.0

     negative rho (up, down):  4.250E-03 0.000E+00

     total cpu time spent up to now is       12.2 secs

     total energy              =     -15.28479151 Ry
     Harris-Foulkes estimate   =    -475.92705756 Ry
     estimated scf accuracy    <      44.85175024 Ry

     iteration # 80     ecut=    30.00 Ry     beta=0.70
     Davidson diagonalization with overlap
     ethr =  9.32E-03,  avg # of iterations =  5.0

     negative rho (up, down):  1.032E-02 0.000E+00

     total cpu time spent up to now is       12.2 secs

     total energy              =     -68.90867521 Ry
     Harris-Foulkes estimate   =     -71.63227764 Ry
     estimated scf accuracy    <      55.55223224 Ry

     iteration # 81     ecut=    30.00 Ry     beta=0.70
     Davidson diagonalization with overlap
     ethr =  9.32E-03,  avg # of iterations =  7.0

     negative rho (up, down):  3.612E-02 0.000E+00

     total cpu time spent up to now is       12.3 secs

     total energy              =    -240.28394964 Ry
     Harris-Foulkes estimate   =   -1094.23573509 Ry
     estimated scf accuracy    <      23.89085077 Ry

     iteration # 82     ecut=    30.00 Ry     beta=0.70
     Davidson diagonalization with overlap
     ethr =  9.32E-03,  avg # of iterations =  4.0

     negative rho (up, down):  1.405E-01 0.000E+00

     total cpu time spent up to now is       12.4 secs

     total energy              =    -424.18194951 Ry
     Harris-Foulkes estimate   =    -787.61501373 Ry
     estimated scf accuracy    <      29.84231735 Ry

     iteration # 83     ecut=    30.00 Ry     beta=0.70
     Davidson diagonalization with overlap
     ethr =  9.32E-03,  avg # of iterations =  8.0

     negative rho (up, down):  2.525E-02 0.000E+00

     total cpu time spent up to now is       12.5 secs

     total energy              =      -9.37489625 Ry
     Harris-Foulkes estimate   =   -2654.47360407 Ry
     estimated scf accuracy    <      72.02891946 Ry

     iteration # 84     ecut=    30.00 Ry     beta=0.70
     Davidson diagonalization with overlap
     ethr =  9.32E-03,  avg # of iterations =  7.0

     negative rho (up, down):  5.822E-01 0.000E+00

     total cpu time spent up to now is       12.6 secs

     total energy              =    -145.07404216 Ry
     Harris-Foulkes estimate   =     -87.67730603 Ry
     estimated scf accuracy    <      65.14587502 Ry

     iteration # 85     ecut=    30.00 Ry     beta=0.70
     Davidson diagonalization with overlap
     ethr =  9.32E-03,  avg # of iterations =  7.0

     negative rho (up, down):  1.157E+00 0.000E+00

     total cpu time spent up to now is       12.7 secs

     total energy              =    -596.42369670 Ry
     Harris-Foulkes estimate   =    -310.29327669 Ry
     estimated scf accuracy    <      81.38051485 Ry

     iteration # 86     ecut=    30.00 Ry     beta=0.70
     Davidson diagonalization with overlap
     ethr =  9.32E-03,  avg # of iterations =  9.0

     negative rho (up, down):  1.115E+00 0.000E+00

     total cpu time spent up to now is       12.7 secs

     total energy              =     -80.35548305 Ry
     Harris-Foulkes estimate   =   -3157.90654941 Ry
     estimated scf accuracy    <      86.64794479 Ry

     iteration # 87     ecut=    30.00 Ry     beta=0.70
     Davidson diagonalization with overlap
     ethr =  9.32E-03,  avg # of iterations =  9.0

     negative rho (up, down):  7.765E-01 0.000E+00

     total cpu time spent up to now is       12.8 secs

     total energy              =     -44.78246092 Ry
     Harris-Foulkes estimate   =    -542.39582065 Ry
     estimated scf accuracy    <      79.64001826 Ry

     iteration # 88     ecut=    30.00 Ry     beta=0.70
     Davidson diagonalization with overlap
     ethr =  9.32E-03,  avg # of iterations =  8.0

     negative rho (up, down):  1.418E+00 0.000E+00

     total cpu time spent up to now is       12.9 secs

     total energy              =       8.52493280 Ry
     Harris-Foulkes estimate   =   -1063.34689895 Ry
     estimated scf accuracy    <      67.13398944 Ry

     iteration # 89     ecut=    30.00 Ry     beta=0.70
     Davidson diagonalization with overlap
     ethr =  9.32E-03,  avg # of iterations =  7.0

     negative rho (up, down):  1.154E+00 0.000E+00

     total cpu time spent up to now is       13.0 secs

     total energy              =      22.61767906 Ry
     Harris-Foulkes estimate   =    -821.82569078 Ry
     estimated scf accuracy    <      52.01799859 Ry

     iteration # 90     ecut=    30.00 Ry     beta=0.70
     Davidson diagonalization with overlap
     ethr =  9.32E-03,  avg # of iterations =  7.0

     negative rho (up, down):  1.542E+00 0.000E+00

     total cpu time spent up to now is       13.1 secs

     total energy              =       6.14401753 Ry
     Harris-Foulkes estimate   =   -2570.00032836 Ry
     estimated scf accuracy    <      57.01332282 Ry

     iteration # 91     ecut=    30.00 Ry     beta=0.70
     Davidson diagonalization with overlap
     ethr =  9.32E-03,  avg # of iterations =  9.0

     negative rho (up, down):  4.264E-02 0.000E+00

     total cpu time spent up to now is       13.2 secs

     total energy              =     105.78774414 Ry
     Harris-Foulkes estimate   =   -1479.37369394 Ry
     estimated scf accuracy    <      32.33896324 Ry

     iteration # 92     ecut=    30.00 Ry     beta=0.70
     Davidson diagonalization with overlap
     ethr =  9.32E-03,  avg # of iterations =  7.0

     negative rho (up, down):  4.882E-01 0.000E+00

     total cpu time spent up to now is       13.3 secs

     total energy              =     -24.25939837 Ry
     Harris-Foulkes estimate   =    -632.22571446 Ry
     estimated scf accuracy    <      32.62062491 Ry

     iteration # 93     ecut=    30.00 Ry     beta=0.70
     Davidson diagonalization with overlap
     ethr =  9.32E-03,  avg # of iterations =  9.0

     negative rho (up, down):  3.377E-01 0.000E+00

     total cpu time spent up to now is       13.4 secs

     total energy              =      74.87136304 Ry
     Harris-Foulkes estimate   =   -1327.07977694 Ry
     estimated scf accuracy    <      18.84231700 Ry

     iteration # 94     ecut=    30.00 Ry     beta=0.70
     Davidson diagonalization with overlap
     ethr =  9.32E-03,  avg # of iterations =  7.0

     negative rho (up, down):  2.134E-01 0.000E+00

     total cpu time spent up to now is       13.5 secs

     total energy              =      24.14468050 Ry
     Harris-Foulkes estimate   =    -474.65443378 Ry
     estimated scf accuracy    <      24.39840866 Ry

     iteration # 95     ecut=    30.00 Ry     beta=0.70
     Davidson diagonalization with overlap
     ethr =  9.32E-03,  avg # of iterations =  7.0

     negative rho (up, down):  4.700E-02 0.000E+00

     total cpu time spent up to now is       13.6 secs

     total energy              =      77.36410092 Ry
     Harris-Foulkes estimate   =   -2613.67447782 Ry
     estimated scf accuracy    <      22.25458016 Ry

     iteration # 96     ecut=    30.00 Ry     beta=0.70
     Davidson diagonalization with overlap
     ethr =  9.32E-03,  avg # of iterations =  8.0

     negative rho (up, down):  3.714E-02 0.000E+00

     total cpu time spent up to now is       13.7 secs

     total energy              =      20.73426020 Ry
     Harris-Foulkes estimate   =    -536.06673909 Ry
     estimated scf accuracy    <      29.01305649 Ry

     iteration # 97     ecut=    30.00 Ry     beta=0.70
     Davidson diagonalization with overlap
     ethr =  9.32E-03,  avg # of iterations =  8.0

     negative rho (up, down):  2.353E-02 0.000E+00

     total cpu time spent up to now is       13.8 secs

     total energy              =      83.38184444 Ry
     Harris-Foulkes estimate   =    -569.87207020 Ry
     estimated scf accuracy    <      34.88614152 Ry

     iteration # 98     ecut=    30.00 Ry     beta=0.70
     Davidson diagonalization with overlap
     ethr =  9.32E-03,  avg # of iterations =  8.0

     negative rho (up, down):  3.270E-03 0.000E+00

     total cpu time spent up to now is       13.9 secs

     total energy              =      44.60489640 Ry
     Harris-Foulkes estimate   =    -245.32773503 Ry
     estimated scf accuracy    <      21.94674156 Ry

     iteration # 99     ecut=    30.00 Ry     beta=0.70
     Davidson diagonalization with overlap
     ethr =  9.32E-03,  avg # of iterations =  5.0

     negative rho (up, down):  1.243E-05 0.000E+00

     total cpu time spent up to now is       13.9 secs

     total energy              =     -10.13485069 Ry
     Harris-Foulkes estimate   =     -49.11790409 Ry
     estimated scf accuracy    <      10.98889138 Ry

     iteration #100     ecut=    30.00 Ry     beta=0.70
     Davidson diagonalization with overlap
     ethr =  9.32E-03,  avg # of iterations =  6.0

     negative rho (up, down):  5.344E-04 0.000E+00

     total cpu time spent up to now is       14.0 secs

     total energy              =     -33.37813333 Ry
     Harris-Foulkes estimate   =     -37.10831296 Ry
     estimated scf accuracy    <      10.90979234 Ry

     End of self-consistent calculation

     convergence NOT achieved after 100 iterations: stopping

     Writing output data file pwscf.save
 
     init_run     :      0.17s CPU      0.19s WALL (       1 calls)
     electrons    :     11.01s CPU     13.06s WALL (       3 calls)
     update_pot   :      0.33s CPU      0.43s WALL (       2 calls)
     forces       :      0.08s CPU      0.09s WALL (       2 calls)

     Called by init_run:
     wfcinit      :      0.01s CPU      0.02s WALL (       1 calls)
     potinit      :      0.05s CPU      0.05s WALL (       1 calls)

     Called by electrons:
     c_bands      :      6.15s CPU      6.39s WALL (     193 calls)
     sum_band     :      0.97s CPU      1.03s WALL (     193 calls)
     v_of_rho     :      2.31s CPU      2.37s WALL (     196 calls)
     mix_rho      :      1.36s CPU      2.70s WALL (     193 calls)

     Called by c_bands:
     init_us_2    :      0.03s CPU      0.04s WALL (     387 calls)
     cegterg      :      6.10s CPU      6.24s WALL (     193 calls)

     Called by sum_band:

     Called by *egterg:
     h_psi        :      5.15s CPU      5.27s WALL (    1038 calls)
     g_psi        :      0.06s CPU      0.06s WALL (     844 calls)
     cdiaghg      :      0.37s CPU      0.38s WALL (    1035 calls)

     Called by h_psi:
     h_psi:pot    :      5.12s CPU      5.23s WALL (    1038 calls)
     h_psi:calbec :      0.07s CPU      0.07s WALL (    1038 calls)
     vloc_psi     :      5.03s CPU      5.14s WALL (    1038 calls)
     add_vuspsi   :      0.01s CPU      0.01s WALL (    1038 calls)

     General routines
     calbec       :      0.07s CPU      0.08s WALL (    1047 calls)
     fft          :      1.36s CPU      1.40s WALL (    2160 calls)
     fftw         :      5.20s CPU      5.34s WALL (   13252 calls)
     davcio       :      0.24s CPU      1.13s WALL (    3606 calls)
 
     Parallel routines
     fft_scatter  :      2.03s CPU      2.12s WALL (   15412 calls)
 
     PWSCF        :    11.83s CPU        14.20s WALL

 
   This run was terminated on:  18:25: 4  13Feb2018            

=------------------------------------------------------------------------------=
   JOB DONE.
=------------------------------------------------------------------------------=
