
     Program PWSCF v.6.0 (svn rev. 13079) starts on 13Feb2018 at 18:28:18 

     This program is part of the open-source Quantum ESPRESSO suite
     for quantum simulation of materials; please cite
         "P. Giannozzi et al., J. Phys.:Condens. Matter 21 395502 (2009);
          URL http://www.quantum-espresso.org", 
     in publications or presentations arising from this work. More details at
     http://www.quantum-espresso.org/quote

     Parallel version (MPI), running on    28 processors
     R & G space division:  proc/nbgrp/npool/nimage =      28
     Reading input from inputs/MD-H2O-round1/997.in

     Current dimensions of program PWSCF are:
     Max number of different atomic species (ntypx) = 10
     Max number of k-points (npk) =  40000
     Max angular momentum in pseudopotentials (lmaxx) =  3

     Subspace diagonalization in iterative solution of the eigenvalue problem:
     a serial algorithm will be used

 
     Parallelization info
     --------------------
     sticks:   dense  smooth     PW     G-vecs:    dense   smooth      PW
     Min         136     136     33                 6338     6338     787
     Max         137     137     34                 6341     6341     792
     Sum        3809    3809    949               177509   177509   22119
 


     bravais-lattice index     =            1
     lattice parameter (alat)  =      20.0000  a.u.
     unit-cell volume          =    8000.0000 (a.u.)^3
     number of atoms/cell      =            3
     number of atomic types    =            2
     number of electrons       =         8.00
     number of Kohn-Sham states=            8
     kinetic-energy cutoff     =      30.0000  Ry
     charge density cutoff     =     120.0000  Ry
     convergence threshold     =      1.0E-08
     mixing beta               =       0.7000
     number of iterations used =            8  plain     mixing
     Exchange-correlation      = BLYP ( 1  3  1  3 0 0)
     nstep                     =         5000


     celldm(1)=  20.000000  celldm(2)=   0.000000  celldm(3)=   0.000000
     celldm(4)=   0.000000  celldm(5)=   0.000000  celldm(6)=   0.000000

     crystal axes: (cart. coord. in units of alat)
               a(1) = (   1.000000   0.000000   0.000000 )  
               a(2) = (   0.000000   1.000000   0.000000 )  
               a(3) = (   0.000000   0.000000   1.000000 )  

     reciprocal axes: (cart. coord. in units 2 pi/alat)
               b(1) = (  1.000000  0.000000  0.000000 )  
               b(2) = (  0.000000  1.000000  0.000000 )  
               b(3) = (  0.000000  0.000000  1.000000 )  


     PseudoPot. # 1 for  H read from file:
     ./H.blyp-hgh.UPF
     MD5 check sum: c576e69559cde411e611be972c763230
     Pseudo is Norm-conserving, Zval =  1.0
     Generated in analytical, separable form
     Using radial grid of  929 points,  0 beta functions with: 

     PseudoPot. # 2 for  O read from file:
     ./O.blyp-hgh.UPF
     MD5 check sum: d0b7156309aa9befef28faac7bc56342
     Pseudo is Norm-conserving, Zval =  6.0
     Generated in analytical, separable form
     Using radial grid of 1095 points,  1 beta functions with: 
                l(1) =   0

     atomic species   valence    mass     pseudopotential
        H              1.00     1.01000      H( 1.00)
        O              6.00    16.00000      O( 1.00)

     No symmetry found



   Cartesian axes

     site n.     atom                  positions (alat units)
         1           O   tau(   1) = (   0.6453241   0.8133387   0.8995810  )
         2           H   tau(   2) = (   0.7232851   0.8134906   0.8779540  )
         3           H   tau(   3) = (   0.5577051   0.0556907   0.6823993  )

     number of k points=     1  Marzari-Vanderbilt smearing, width (Ry)=  0.0250
                       cart. coord. in units 2pi/alat
        k(    1) = (   0.0000000   0.0000000   0.0000000), wk =   2.0000000

     Dense  grid:   177509 G-vectors     FFT dimensions: (  72,  72,  72)

     Estimated max dynamical RAM per process >       6.09Mb

     Estimated total allocated dynamical RAM >     170.64Mb

     Initial potential from superposition of free atoms
     Check: negative starting charge=   -0.346883

     starting charge    7.99998, renormalised to    8.00000

     negative rho (up, down):  3.469E-01 0.000E+00
     Starting wfc are    6 randomized atomic wfcs +    2 random wfc

     total cpu time spent up to now is        0.3 secs

     per-process dynamical memory:    18.8 Mb

     Self-consistent Calculation

     iteration #  1     ecut=    30.00 Ry     beta=0.70
     Davidson diagonalization with overlap
     ethr =  1.00E-02,  avg # of iterations =  8.0

     negative rho (up, down):  9.389E-02 0.000E+00

     total cpu time spent up to now is        0.4 secs

     total energy              =     -31.67534436 Ry
     Harris-Foulkes estimate   =     -32.08151041 Ry
     estimated scf accuracy    <       0.41507612 Ry

     iteration #  2     ecut=    30.00 Ry     beta=0.70
     Davidson diagonalization with overlap
     ethr =  5.19E-03,  avg # of iterations =  2.0

     negative rho (up, down):  7.410E-02 0.000E+00

     total cpu time spent up to now is        0.5 secs

     total energy              =     -31.60703664 Ry
     Harris-Foulkes estimate   =     -32.05663993 Ry
     estimated scf accuracy    <       1.63129429 Ry

     iteration #  3     ecut=    30.00 Ry     beta=0.70
     Davidson diagonalization with overlap
     ethr =  5.19E-03,  avg # of iterations =  1.0

     negative rho (up, down):  3.168E-02 0.000E+00

     total cpu time spent up to now is        0.5 secs

     total energy              =     -31.76196435 Ry
     Harris-Foulkes estimate   =     -31.93669428 Ry
     estimated scf accuracy    <       1.09430414 Ry

     iteration #  4     ecut=    30.00 Ry     beta=0.70
     Davidson diagonalization with overlap
     ethr =  5.19E-03,  avg # of iterations =  1.0

     negative rho (up, down):  1.146E-02 0.000E+00

     total cpu time spent up to now is        0.6 secs

     total energy              =     -31.72343086 Ry
     Harris-Foulkes estimate   =     -31.84739286 Ry
     estimated scf accuracy    <       1.03430618 Ry

     iteration #  5     ecut=    30.00 Ry     beta=0.70
     Davidson diagonalization with overlap
     ethr =  5.19E-03,  avg # of iterations =  1.0

     negative rho (up, down):  1.493E-03 0.000E+00

     total cpu time spent up to now is        0.6 secs

     total energy              =     -31.89320315 Ry
     Harris-Foulkes estimate   =     -31.93146683 Ry
     estimated scf accuracy    <       0.85862463 Ry

     iteration #  6     ecut=    30.00 Ry     beta=0.70
     Davidson diagonalization with overlap
     ethr =  5.19E-03,  avg # of iterations =  1.0

     negative rho (up, down):  8.133E-04 0.000E+00

     total cpu time spent up to now is        0.7 secs

     total energy              =     -31.83981479 Ry
     Harris-Foulkes estimate   =     -31.89426686 Ry
     estimated scf accuracy    <       0.73436073 Ry

     iteration #  7     ecut=    30.00 Ry     beta=0.70
     Davidson diagonalization with overlap
     ethr =  5.19E-03,  avg # of iterations =  1.0

     negative rho (up, down):  3.772E-04 0.000E+00

     total cpu time spent up to now is        0.7 secs

     total energy              =     -31.85998557 Ry
     Harris-Foulkes estimate   =     -31.85814477 Ry
     estimated scf accuracy    <       0.01934311 Ry

     iteration #  8     ecut=    30.00 Ry     beta=0.70
     Davidson diagonalization with overlap
     ethr =  2.42E-04,  avg # of iterations =  4.0

     negative rho (up, down):  7.947E-05 0.000E+00

     total cpu time spent up to now is        0.8 secs

     total energy              =     -31.84813494 Ry
     Harris-Foulkes estimate   =     -31.86293692 Ry
     estimated scf accuracy    <       0.33786671 Ry

     iteration #  9     ecut=    30.00 Ry     beta=0.70
     Davidson diagonalization with overlap
     ethr =  2.42E-04,  avg # of iterations =  1.0

     total cpu time spent up to now is        0.8 secs

     total energy              =     -31.85977297 Ry
     Harris-Foulkes estimate   =     -31.85894338 Ry
     estimated scf accuracy    <       0.06277378 Ry

     iteration # 10     ecut=    30.00 Ry     beta=0.70
     Davidson diagonalization with overlap
     ethr =  2.42E-04,  avg # of iterations =  1.0

     negative rho (up, down):  1.747E-08 0.000E+00

     total cpu time spent up to now is        0.8 secs

     total energy              =     -31.85827153 Ry
     Harris-Foulkes estimate   =     -31.85994864 Ry
     estimated scf accuracy    <       0.11790427 Ry

     iteration # 11     ecut=    30.00 Ry     beta=0.70
     Davidson diagonalization with overlap
     ethr =  2.42E-04,  avg # of iterations =  1.0

     negative rho (up, down):  1.023E-08 0.000E+00

     total cpu time spent up to now is        0.9 secs

     total energy              =     -31.85866283 Ry
     Harris-Foulkes estimate   =     -31.85858497 Ry
     estimated scf accuracy    <       0.04420465 Ry

     iteration # 12     ecut=    30.00 Ry     beta=0.70
     Davidson diagonalization with overlap
     ethr =  2.42E-04,  avg # of iterations =  1.0

     total cpu time spent up to now is        0.9 secs

     total energy              =     -31.85801573 Ry
     Harris-Foulkes estimate   =     -31.85866525 Ry
     estimated scf accuracy    <       0.04870162 Ry

     iteration # 13     ecut=    30.00 Ry     beta=0.70
     Davidson diagonalization with overlap
     ethr =  2.42E-04,  avg # of iterations =  1.0

     negative rho (up, down):  1.602E-08 0.000E+00

     total cpu time spent up to now is        1.0 secs

     total energy              =     -31.85775227 Ry
     Harris-Foulkes estimate   =     -31.85813834 Ry
     estimated scf accuracy    <       0.01810787 Ry

     iteration # 14     ecut=    30.00 Ry     beta=0.70
     Davidson diagonalization with overlap
     ethr =  2.26E-04,  avg # of iterations =  1.0

     total cpu time spent up to now is        1.0 secs

     total energy              =     -31.85785971 Ry
     Harris-Foulkes estimate   =     -31.85787646 Ry
     estimated scf accuracy    <       0.00210061 Ry

     iteration # 15     ecut=    30.00 Ry     beta=0.70
     Davidson diagonalization with overlap
     ethr =  2.63E-05,  avg # of iterations =  1.0

     total cpu time spent up to now is        1.1 secs

     total energy              =     -31.85782574 Ry
     Harris-Foulkes estimate   =     -31.85786189 Ry
     estimated scf accuracy    <       0.00116309 Ry

     iteration # 16     ecut=    30.00 Ry     beta=0.70
     Davidson diagonalization with overlap
     ethr =  1.45E-05,  avg # of iterations =  1.0

     total cpu time spent up to now is        1.1 secs

     total energy              =     -31.85784429 Ry
     Harris-Foulkes estimate   =     -31.85784428 Ry
     estimated scf accuracy    <       0.00000031 Ry

     iteration # 17     ecut=    30.00 Ry     beta=0.70
     Davidson diagonalization with overlap
     ethr =  3.87E-09,  avg # of iterations =  6.0

     total cpu time spent up to now is        1.2 secs

     total energy              =     -31.85784424 Ry
     Harris-Foulkes estimate   =     -31.85784430 Ry
     estimated scf accuracy    <       0.00000011 Ry

     iteration # 18     ecut=    30.00 Ry     beta=0.70
     Davidson diagonalization with overlap
     ethr =  1.31E-09,  avg # of iterations =  1.0

     total cpu time spent up to now is        1.2 secs

     total energy              =     -31.85784427 Ry
     Harris-Foulkes estimate   =     -31.85784425 Ry
     estimated scf accuracy    <       0.00000009 Ry

     iteration # 19     ecut=    30.00 Ry     beta=0.70
     Davidson diagonalization with overlap
     ethr =  1.11E-09,  avg # of iterations =  1.0

     total cpu time spent up to now is        1.3 secs

     total energy              =     -31.85784427 Ry
     Harris-Foulkes estimate   =     -31.85784427 Ry
     estimated scf accuracy    <       0.00000004 Ry

     iteration # 20     ecut=    30.00 Ry     beta=0.70
     Davidson diagonalization with overlap
     ethr =  5.49E-10,  avg # of iterations =  1.0

     total cpu time spent up to now is        1.3 secs

     End of self-consistent calculation

          k = 0.0000 0.0000 0.0000 ( 22119 PWs)   bands (ev):

   -26.1086 -11.0731  -7.2708  -7.1624  -6.9139  -0.4068   0.4395   0.8693

     the Fermi energy is    -6.9887 ev

!    total energy              =     -31.85784427 Ry
     Harris-Foulkes estimate   =     -31.85784427 Ry
     estimated scf accuracy    <          6.9E-10 Ry

     convergence has been achieved in  20 iterations

     Forces acting on atoms (Ry/au):

     atom    1 type  2   force =    -0.56436187    0.00670031    0.14851031
     atom    2 type  1   force =     0.56088010    0.00184125   -0.15625000
     atom    3 type  1   force =     0.00348177   -0.00854156    0.00773969

     Total force =     0.824472     Total SCF correction =     0.000029

     Molecular Dynamics Calculation

     Starting temperature  =  1000.00 K

     temperature is controlled by Andersen thermostat
     Collision frequency = 1.0000/timestep
     mass H                =     1.01
     mass O                =    16.00
     Time step             =   100.00 a.u.,  4.8378 femto-seconds

     Entering Dynamics:    iteration =     1
                           time      =   0.0048 pico-seconds


     Andersen thermostat:    3 collisions

ATOMIC_POSITIONS (bohr)
O       12.700475293  16.261641973  18.020807353
H       17.513646139  16.460266893  16.613075596
H       11.369646291   1.004675390  14.131616489


     kinetic energy (Ekin) =     0.01337019 Ry
     temperature           =   703.66124461 K 
     Ekin + Etot (const)   =   -31.84447408 Ry

     Linear momentum :   -0.0000000000   -0.0000000000    0.0000000000

     Writing output data file pwscf.save
     Check: negative starting charge=   -0.346883
     NEW-OLD atomic charge density approx. for the potential
     Check: negative starting charge=   -0.335810

     negative rho (up, down):  4.092E-01 0.000E+00

     total cpu time spent up to now is        1.7 secs

     per-process dynamical memory:    20.4 Mb

     Self-consistent Calculation

     iteration #  1     ecut=    30.00 Ry     beta=0.70
     Davidson diagonalization with overlap
     c_bands:  1 eigenvalues not converged
     ethr =  1.00E-06,  avg # of iterations = 20.0

     negative rho (up, down):  9.716E-02 0.000E+00

     total cpu time spent up to now is        2.0 secs

     total energy              =     -28.72694894 Ry
     Harris-Foulkes estimate   =     -32.19478296 Ry
     estimated scf accuracy    <       3.04524672 Ry

     iteration #  2     ecut=    30.00 Ry     beta=0.70
     Davidson diagonalization with overlap
     ethr =  1.00E-02,  avg # of iterations =  3.0

     negative rho (up, down):  7.259E-02 0.000E+00

     total cpu time spent up to now is        2.0 secs

     total energy              =     -32.08211724 Ry
     Harris-Foulkes estimate   =     -35.93129372 Ry
     estimated scf accuracy    <      10.08755729 Ry

     iteration #  3     ecut=    30.00 Ry     beta=0.70
     Davidson diagonalization with overlap
     ethr =  1.00E-02,  avg # of iterations =  2.0

     negative rho (up, down):  6.266E-02 0.000E+00

     total cpu time spent up to now is        2.1 secs

     total energy              =     -31.80446280 Ry
     Harris-Foulkes estimate   =     -32.38095464 Ry
     estimated scf accuracy    <       3.71214169 Ry

     iteration #  4     ecut=    30.00 Ry     beta=0.70
     Davidson diagonalization with overlap
     ethr =  1.00E-02,  avg # of iterations =  1.0

     negative rho (up, down):  5.317E-02 0.000E+00

     total cpu time spent up to now is        2.1 secs

     total energy              =     -31.57223312 Ry
     Harris-Foulkes estimate   =     -31.81903817 Ry
     estimated scf accuracy    <       2.46025955 Ry

     iteration #  5     ecut=    30.00 Ry     beta=0.70
     Davidson diagonalization with overlap
     ethr =  1.00E-02,  avg # of iterations =  1.0

     negative rho (up, down):  4.738E-02 0.000E+00

     total cpu time spent up to now is        2.2 secs

     total energy              =     -31.55962921 Ry
     Harris-Foulkes estimate   =     -31.58627038 Ry
     estimated scf accuracy    <       1.33020480 Ry

     iteration #  6     ecut=    30.00 Ry     beta=0.70
     Davidson diagonalization with overlap
     ethr =  1.00E-02,  avg # of iterations =  1.0

     negative rho (up, down):  2.748E-02 0.000E+00

     total cpu time spent up to now is        2.2 secs

     total energy              =     -31.37550573 Ry
     Harris-Foulkes estimate   =     -31.56632317 Ry
     estimated scf accuracy    <       1.11131151 Ry

     iteration #  7     ecut=    30.00 Ry     beta=0.70
     Davidson diagonalization with overlap
     ethr =  1.00E-02,  avg # of iterations =  1.0

     negative rho (up, down):  2.507E-02 0.000E+00

     total cpu time spent up to now is        2.3 secs

     total energy              =     -31.55215397 Ry
     Harris-Foulkes estimate   =     -31.74185794 Ry
     estimated scf accuracy    <       2.46175427 Ry

     iteration #  8     ecut=    30.00 Ry     beta=0.70
     Davidson diagonalization with overlap
     ethr =  1.00E-02,  avg # of iterations =  1.0

     negative rho (up, down):  2.516E-02 0.000E+00

     total cpu time spent up to now is        2.3 secs

     total energy              =     -31.59923195 Ry
     Harris-Foulkes estimate   =     -31.57645414 Ry
     estimated scf accuracy    <       1.09303019 Ry

     iteration #  9     ecut=    30.00 Ry     beta=0.70
     Davidson diagonalization with overlap
     ethr =  1.00E-02,  avg # of iterations =  1.0

     negative rho (up, down):  2.449E-02 0.000E+00

     total cpu time spent up to now is        2.4 secs

     total energy              =     -31.69997788 Ry
     Harris-Foulkes estimate   =     -31.59954358 Ry
     estimated scf accuracy    <       1.19922178 Ry

     iteration # 10     ecut=    30.00 Ry     beta=0.70
     Davidson diagonalization with overlap
     ethr =  1.00E-02,  avg # of iterations =  1.0

     negative rho (up, down):  6.453E-01 0.000E+00

     total cpu time spent up to now is        2.4 secs

     total energy              =     -35.13042176 Ry
     Harris-Foulkes estimate   =     -31.70673834 Ry
     estimated scf accuracy    <       1.82268248 Ry

     iteration # 11     ecut=    30.00 Ry     beta=0.70
     Davidson diagonalization with overlap
     ethr =  1.00E-02,  avg # of iterations =  5.0

     negative rho (up, down):  2.265E-01 0.000E+00

     total cpu time spent up to now is        2.5 secs

     total energy              =     -33.47847296 Ry
     Harris-Foulkes estimate   =     -36.99626042 Ry
     estimated scf accuracy    <      25.29416471 Ry

     iteration # 12     ecut=    30.00 Ry     beta=0.70
     Davidson diagonalization with overlap
     ethr =  1.00E-02,  avg # of iterations =  2.0

     negative rho (up, down):  8.962E-03 0.000E+00

     total cpu time spent up to now is        2.6 secs

     total energy              =     -32.05579070 Ry
     Harris-Foulkes estimate   =     -34.03993613 Ry
     estimated scf accuracy    <      15.40526813 Ry

     iteration # 13     ecut=    30.00 Ry     beta=0.70
     Davidson diagonalization with overlap
     ethr =  1.00E-02,  avg # of iterations =  6.0

     negative rho (up, down):  6.453E-03 0.000E+00

     total cpu time spent up to now is        2.6 secs

     total energy              =     -31.39166969 Ry
     Harris-Foulkes estimate   =     -32.46087823 Ry
     estimated scf accuracy    <       5.10967716 Ry

     iteration # 14     ecut=    30.00 Ry     beta=0.70
     Davidson diagonalization with overlap
     ethr =  1.00E-02,  avg # of iterations =  4.0

     negative rho (up, down):  1.178E-02 0.000E+00

     total cpu time spent up to now is        2.7 secs

     total energy              =     -31.59968947 Ry
     Harris-Foulkes estimate   =     -31.53861967 Ry
     estimated scf accuracy    <       1.32337410 Ry

     iteration # 15     ecut=    30.00 Ry     beta=0.70
     Davidson diagonalization with overlap
     ethr =  1.00E-02,  avg # of iterations =  1.0

     negative rho (up, down):  7.099E-02 0.000E+00

     total cpu time spent up to now is        2.7 secs

     total energy              =     -31.23246378 Ry
     Harris-Foulkes estimate   =     -31.61229760 Ry
     estimated scf accuracy    <       1.21923887 Ry

     iteration # 16     ecut=    30.00 Ry     beta=0.70
     Davidson diagonalization with overlap
     ethr =  1.00E-02,  avg # of iterations =  1.0

     negative rho (up, down):  2.086E-02 0.000E+00

     total cpu time spent up to now is        2.8 secs

     total energy              =     -31.44758834 Ry
     Harris-Foulkes estimate   =     -31.63257570 Ry
     estimated scf accuracy    <       1.38424526 Ry

     iteration # 17     ecut=    30.00 Ry     beta=0.70
     Davidson diagonalization with overlap
     ethr =  1.00E-02,  avg # of iterations =  1.0

     negative rho (up, down):  9.326E-03 0.000E+00

     total cpu time spent up to now is        2.8 secs

     total energy              =     -31.45047483 Ry
     Harris-Foulkes estimate   =     -31.46050626 Ry
     estimated scf accuracy    <       0.38243853 Ry

     iteration # 18     ecut=    30.00 Ry     beta=0.70
     Davidson diagonalization with overlap
     ethr =  4.78E-03,  avg # of iterations =  5.0

     negative rho (up, down):  2.126E-02 0.000E+00

     total cpu time spent up to now is        2.9 secs

     total energy              =     -31.65262891 Ry
     Harris-Foulkes estimate   =     -31.69295970 Ry
     estimated scf accuracy    <       1.90136707 Ry

     iteration # 19     ecut=    30.00 Ry     beta=0.70
     Davidson diagonalization with overlap
     ethr =  4.78E-03,  avg # of iterations =  1.0

     negative rho (up, down):  3.132E-02 0.000E+00

     total cpu time spent up to now is        2.9 secs

     total energy              =     -31.59310859 Ry
     Harris-Foulkes estimate   =     -31.65427000 Ry
     estimated scf accuracy    <       1.75595743 Ry

     iteration # 20     ecut=    30.00 Ry     beta=0.70
     Davidson diagonalization with overlap
     ethr =  4.78E-03,  avg # of iterations =  1.0

     negative rho (up, down):  2.959E-04 0.000E+00

     total cpu time spent up to now is        3.0 secs

     total energy              =     -31.51651195 Ry
     Harris-Foulkes estimate   =     -31.61899246 Ry
     estimated scf accuracy    <       1.12422623 Ry

     iteration # 21     ecut=    30.00 Ry     beta=0.70
     Davidson diagonalization with overlap
     ethr =  4.78E-03,  avg # of iterations =  1.0

     negative rho (up, down):  2.235E-04 0.000E+00

     total cpu time spent up to now is        3.0 secs

     total energy              =     -31.51684793 Ry
     Harris-Foulkes estimate   =     -31.58487696 Ry
     estimated scf accuracy    <       0.87048582 Ry

     iteration # 22     ecut=    30.00 Ry     beta=0.70
     Davidson diagonalization with overlap
     ethr =  4.78E-03,  avg # of iterations =  1.0

     negative rho (up, down):  1.972E-04 0.000E+00

     total cpu time spent up to now is        3.1 secs

     total energy              =     -31.58682336 Ry
     Harris-Foulkes estimate   =     -31.58993474 Ry
     estimated scf accuracy    <       0.77717206 Ry

     iteration # 23     ecut=    30.00 Ry     beta=0.70
     Davidson diagonalization with overlap
     ethr =  4.78E-03,  avg # of iterations =  1.0

     negative rho (up, down):  1.189E-04 0.000E+00

     total cpu time spent up to now is        3.1 secs

     total energy              =     -31.56665307 Ry
     Harris-Foulkes estimate   =     -31.58711650 Ry
     estimated scf accuracy    <       0.69872814 Ry

     iteration # 24     ecut=    30.00 Ry     beta=0.70
     Davidson diagonalization with overlap
     ethr =  4.78E-03,  avg # of iterations =  1.0

     negative rho (up, down):  1.494E-04 0.000E+00

     total cpu time spent up to now is        3.2 secs

     total energy              =     -31.57090380 Ry
     Harris-Foulkes estimate   =     -31.57061613 Ry
     estimated scf accuracy    <       0.18773908 Ry

     iteration # 25     ecut=    30.00 Ry     beta=0.70
     Davidson diagonalization with overlap
     ethr =  2.35E-03,  avg # of iterations =  1.0

     negative rho (up, down):  1.823E-04 0.000E+00

     total cpu time spent up to now is        3.2 secs

     total energy              =     -31.57155607 Ry
     Harris-Foulkes estimate   =     -31.57095480 Ry
     estimated scf accuracy    <       0.19484136 Ry

     iteration # 26     ecut=    30.00 Ry     beta=0.70
     Davidson diagonalization with overlap
     ethr =  2.35E-03,  avg # of iterations =  1.0

     negative rho (up, down):  9.757E-04 0.000E+00

     total cpu time spent up to now is        3.3 secs

     total energy              =     -31.55249624 Ry
     Harris-Foulkes estimate   =     -31.57171133 Ry
     estimated scf accuracy    <       0.23692922 Ry

     iteration # 27     ecut=    30.00 Ry     beta=0.70
     Davidson diagonalization with overlap
     ethr =  2.35E-03,  avg # of iterations =  1.0

     negative rho (up, down):  1.989E-04 0.000E+00

     total cpu time spent up to now is        3.3 secs

     total energy              =     -31.56656083 Ry
     Harris-Foulkes estimate   =     -31.57537747 Ry
     estimated scf accuracy    <       0.53523141 Ry

     iteration # 28     ecut=    30.00 Ry     beta=0.70
     Davidson diagonalization with overlap
     ethr =  2.35E-03,  avg # of iterations =  1.0

     negative rho (up, down):  7.544E-06 0.000E+00

     total cpu time spent up to now is        3.4 secs

     total energy              =     -31.55733861 Ry
     Harris-Foulkes estimate   =     -31.56865148 Ry
     estimated scf accuracy    <       0.15514782 Ry

     iteration # 29     ecut=    30.00 Ry     beta=0.70
     Davidson diagonalization with overlap
     ethr =  1.94E-03,  avg # of iterations =  1.0

     negative rho (up, down):  4.861E-07 0.000E+00

     total cpu time spent up to now is        3.4 secs

     total energy              =     -31.56546050 Ry
     Harris-Foulkes estimate   =     -31.57025736 Ry
     estimated scf accuracy    <       0.21208509 Ry

     iteration # 30     ecut=    30.00 Ry     beta=0.70
     Davidson diagonalization with overlap
     ethr =  1.94E-03,  avg # of iterations =  1.0

     negative rho (up, down):  1.263E-07 0.000E+00

     total cpu time spent up to now is        3.5 secs

     total energy              =     -31.56545118 Ry
     Harris-Foulkes estimate   =     -31.56670683 Ry
     estimated scf accuracy    <       0.04216705 Ry

     iteration # 31     ecut=    30.00 Ry     beta=0.70
     Davidson diagonalization with overlap
     ethr =  5.27E-04,  avg # of iterations =  1.0

     negative rho (up, down):  4.877E-08 0.000E+00

     total cpu time spent up to now is        3.5 secs

     total energy              =     -31.56595266 Ry
     Harris-Foulkes estimate   =     -31.56597240 Ry
     estimated scf accuracy    <       0.00119141 Ry

     iteration # 32     ecut=    30.00 Ry     beta=0.70
     Davidson diagonalization with overlap
     ethr =  1.49E-05,  avg # of iterations = 12.0

     total cpu time spent up to now is        3.6 secs

     total energy              =     -31.56594148 Ry
     Harris-Foulkes estimate   =     -31.56596009 Ry
     estimated scf accuracy    <       0.00052069 Ry

     iteration # 33     ecut=    30.00 Ry     beta=0.70
     Davidson diagonalization with overlap
     ethr =  6.51E-06,  avg # of iterations =  1.0

     total cpu time spent up to now is        3.6 secs

     total energy              =     -31.56594992 Ry
     Harris-Foulkes estimate   =     -31.56595135 Ry
     estimated scf accuracy    <       0.00000984 Ry

     iteration # 34     ecut=    30.00 Ry     beta=0.70
     Davidson diagonalization with overlap
     ethr =  1.23E-07,  avg # of iterations =  5.0

     total cpu time spent up to now is        3.7 secs

     total energy              =     -31.56595059 Ry
     Harris-Foulkes estimate   =     -31.56595055 Ry
     estimated scf accuracy    <       0.00000044 Ry

     iteration # 35     ecut=    30.00 Ry     beta=0.70
     Davidson diagonalization with overlap
     ethr =  5.46E-09,  avg # of iterations =  1.0

     total cpu time spent up to now is        3.7 secs

     total energy              =     -31.56595066 Ry
     Harris-Foulkes estimate   =     -31.56595062 Ry
     estimated scf accuracy    <       0.00000008 Ry

     iteration # 36     ecut=    30.00 Ry     beta=0.70
     Davidson diagonalization with overlap
     ethr =  9.89E-10,  avg # of iterations =  1.0

     total cpu time spent up to now is        3.8 secs

     End of self-consistent calculation

          k = 0.0000 0.0000 0.0000 ( 22119 PWs)   bands (ev):

   -23.6253  -7.6249  -7.1289  -6.9582  -6.6708  -6.4578  -0.1164   0.7538

     the Fermi energy is    -6.7968 ev

!    total energy              =     -31.56595065 Ry
     Harris-Foulkes estimate   =     -31.56595067 Ry
     estimated scf accuracy    <          7.2E-10 Ry

     convergence has been achieved in  36 iterations

     Forces acting on atoms (Ry/au):

     atom    1 type  2   force =     0.04877073    0.01483852   -0.02634919
     atom    2 type  1   force =    -0.05231687   -0.00223412    0.01578462
     atom    3 type  1   force =     0.00354615   -0.01260439    0.01056456

     Total force =     0.081039     Total SCF correction =     0.000021

     Entering Dynamics:    iteration =     2
                           time      =   0.0097 pico-seconds


     Andersen thermostat:    3 collisions

ATOMIC_POSITIONS (bohr)
O       12.736428186  16.256138596  17.998641755
H       16.989125709  16.310452849  16.928673685
H       11.324615935   1.241671643  14.167156591


     kinetic energy (Ekin) =     0.01299271 Ry
     temperature           =   683.79480740 K 
     Ekin + Etot (const)   =   -31.55295794 Ry
     Message from routine dynamics:
     Total linear momentum <> 0

     Linear momentum :    0.0316409203    0.3676783473    0.1781879288

     Writing output data file pwscf.save

     first order wave-functions extrapolation
     Check: negative starting charge=   -0.335810
     first order charge density extrapolation
     Check: negative starting charge=   -0.336085

     negative rho (up, down):  4.757E-01 0.000E+00

     total cpu time spent up to now is        4.3 secs

     per-process dynamical memory:    20.4 Mb

     Self-consistent Calculation

     iteration #  1     ecut=    30.00 Ry     beta=0.70
     Davidson diagonalization with overlap
     ethr =  1.00E-06,  avg # of iterations = 12.0

     negative rho (up, down):  1.218E-01 0.000E+00

     total cpu time spent up to now is        4.4 secs

     total energy              =      18.16517583 Ry
     Harris-Foulkes estimate   =     -80.11512173 Ry
     estimated scf accuracy    <      13.45724958 Ry

     iteration #  2     ecut=    30.00 Ry     beta=0.70
     Davidson diagonalization with overlap
     ethr =  1.00E-02,  avg # of iterations =  7.0

     negative rho (up, down):  1.460E-02 0.000E+00

     total cpu time spent up to now is        4.5 secs

     total energy              =     -30.03318830 Ry
     Harris-Foulkes estimate   =     -40.11989041 Ry
     estimated scf accuracy    <      22.00249596 Ry

     iteration #  3     ecut=    30.00 Ry     beta=0.70
     Davidson diagonalization with overlap
     ethr =  1.00E-02,  avg # of iterations =  5.0

     negative rho (up, down):  1.101E-02 0.000E+00

     total cpu time spent up to now is        4.5 secs

     total energy              =     -32.21670892 Ry
     Harris-Foulkes estimate   =     -35.10750671 Ry
     estimated scf accuracy    <       8.94445144 Ry

     iteration #  4     ecut=    30.00 Ry     beta=0.70
     Davidson diagonalization with overlap
     ethr =  1.00E-02,  avg # of iterations =  2.0

     negative rho (up, down):  1.155E-02 0.000E+00

     total cpu time spent up to now is        4.6 secs

     total energy              =     -32.77302675 Ry
     Harris-Foulkes estimate   =     -33.06818664 Ry
     estimated scf accuracy    <       3.96032139 Ry

     iteration #  5     ecut=    30.00 Ry     beta=0.70
     Davidson diagonalization with overlap
     ethr =  1.00E-02,  avg # of iterations =  1.0

     negative rho (up, down):  1.437E-02 0.000E+00

     total cpu time spent up to now is        4.6 secs

     total energy              =     -31.68577478 Ry
     Harris-Foulkes estimate   =     -32.77668539 Ry
     estimated scf accuracy    <       3.28253751 Ry

     iteration #  6     ecut=    30.00 Ry     beta=0.70
     Davidson diagonalization with overlap
     ethr =  1.00E-02,  avg # of iterations =  1.0

     negative rho (up, down):  1.498E-02 0.000E+00

     total cpu time spent up to now is        4.7 secs

     total energy              =     -32.07263298 Ry
     Harris-Foulkes estimate   =     -32.21669909 Ry
     estimated scf accuracy    <       2.31509230 Ry

     iteration #  7     ecut=    30.00 Ry     beta=0.70
     Davidson diagonalization with overlap
     ethr =  1.00E-02,  avg # of iterations =  1.0

     negative rho (up, down):  2.256E-02 0.000E+00

     total cpu time spent up to now is        4.7 secs

     total energy              =     -31.74138808 Ry
     Harris-Foulkes estimate   =     -32.07784948 Ry
     estimated scf accuracy    <       1.89892659 Ry

     iteration #  8     ecut=    30.00 Ry     beta=0.70
     Davidson diagonalization with overlap
     ethr =  1.00E-02,  avg # of iterations =  1.0

     negative rho (up, down):  3.012E-02 0.000E+00

     total cpu time spent up to now is        4.8 secs

     total energy              =     -31.59653264 Ry
     Harris-Foulkes estimate   =     -31.79458171 Ry
     estimated scf accuracy    <       0.72408256 Ry

     iteration #  9     ecut=    30.00 Ry     beta=0.70
     Davidson diagonalization with overlap
     ethr =  9.05E-03,  avg # of iterations =  1.0

     negative rho (up, down):  4.477E-02 0.000E+00

     total cpu time spent up to now is        4.8 secs

     total energy              =     -31.81728818 Ry
     Harris-Foulkes estimate   =     -31.87965402 Ry
     estimated scf accuracy    <       1.72279904 Ry

     iteration # 10     ecut=    30.00 Ry     beta=0.70
     Davidson diagonalization with overlap
     ethr =  9.05E-03,  avg # of iterations =  1.0

     negative rho (up, down):  1.758E-01 0.000E+00

     total cpu time spent up to now is        4.9 secs

     total energy              =     -31.44728746 Ry
     Harris-Foulkes estimate   =     -31.81827240 Ry
     estimated scf accuracy    <       1.60869844 Ry

     iteration # 11     ecut=    30.00 Ry     beta=0.70
     Davidson diagonalization with overlap
     ethr =  9.05E-03,  avg # of iterations =  1.0

     negative rho (up, down):  4.457E-02 0.000E+00

     total cpu time spent up to now is        4.9 secs

     total energy              =     -31.76109725 Ry
     Harris-Foulkes estimate   =     -31.73215406 Ry
     estimated scf accuracy    <       1.70205431 Ry

     iteration # 12     ecut=    30.00 Ry     beta=0.70
     Davidson diagonalization with overlap
     ethr =  9.05E-03,  avg # of iterations =  2.0

     negative rho (up, down):  1.151E-01 0.000E+00

     total cpu time spent up to now is        5.0 secs

     total energy              =     -33.11913959 Ry
     Harris-Foulkes estimate   =     -32.33972099 Ry
     estimated scf accuracy    <       2.79750427 Ry

     iteration # 13     ecut=    30.00 Ry     beta=0.70
     Davidson diagonalization with overlap
     ethr =  9.05E-03,  avg # of iterations =  1.0

     negative rho (up, down):  4.611E-02 0.000E+00

     total cpu time spent up to now is        5.0 secs

     total energy              =     -32.26000126 Ry
     Harris-Foulkes estimate   =     -33.14214751 Ry
     estimated scf accuracy    <       4.06132055 Ry

     iteration # 14     ecut=    30.00 Ry     beta=0.70
     Davidson diagonalization with overlap
     ethr =  9.05E-03,  avg # of iterations =  1.0

     negative rho (up, down):  3.142E-02 0.000E+00

     total cpu time spent up to now is        5.1 secs

     total energy              =     -32.39148724 Ry
     Harris-Foulkes estimate   =     -32.29455557 Ry
     estimated scf accuracy    <       2.45092057 Ry

     iteration # 15     ecut=    30.00 Ry     beta=0.70
     Davidson diagonalization with overlap
     ethr =  9.05E-03,  avg # of iterations =  1.0

     negative rho (up, down):  1.573E-04 0.000E+00

     total cpu time spent up to now is        5.1 secs

     total energy              =     -32.04084160 Ry
     Harris-Foulkes estimate   =     -32.40426873 Ry
     estimated scf accuracy    <       2.02204712 Ry

     iteration # 16     ecut=    30.00 Ry     beta=0.70
     Davidson diagonalization with overlap
     ethr =  9.05E-03,  avg # of iterations =  1.0

     negative rho (up, down):  2.138E-05 0.000E+00

     total cpu time spent up to now is        5.2 secs

     total energy              =     -32.12935514 Ry
     Harris-Foulkes estimate   =     -32.22562853 Ry
     estimated scf accuracy    <       2.43525066 Ry

     iteration # 17     ecut=    30.00 Ry     beta=0.70
     Davidson diagonalization with overlap
     ethr =  9.05E-03,  avg # of iterations =  1.0

     negative rho (up, down):  4.592E-03 0.000E+00

     total cpu time spent up to now is        5.2 secs

     total energy              =     -31.35470305 Ry
     Harris-Foulkes estimate   =     -32.13933138 Ry
     estimated scf accuracy    <       1.84320946 Ry

     iteration # 18     ecut=    30.00 Ry     beta=0.70
     Davidson diagonalization with overlap
     ethr =  9.05E-03,  avg # of iterations =  2.0

     negative rho (up, down):  1.205E-08 0.000E+00

     total cpu time spent up to now is        5.3 secs

     total energy              =     -31.50053097 Ry
     Harris-Foulkes estimate   =     -31.87011021 Ry
     estimated scf accuracy    <       2.53311140 Ry

     iteration # 19     ecut=    30.00 Ry     beta=0.70
     Davidson diagonalization with overlap
     ethr =  9.05E-03,  avg # of iterations =  1.0

     negative rho (up, down):  2.302E-08 0.000E+00

     total cpu time spent up to now is        5.3 secs

     total energy              =     -31.60732938 Ry
     Harris-Foulkes estimate   =     -31.62934674 Ry
     estimated scf accuracy    <       0.56983003 Ry

     iteration # 20     ecut=    30.00 Ry     beta=0.70
     Davidson diagonalization with overlap
     ethr =  7.12E-03,  avg # of iterations =  1.0

     negative rho (up, down):  1.461E-06 0.000E+00

     total cpu time spent up to now is        5.4 secs

     total energy              =     -31.61593953 Ry
     Harris-Foulkes estimate   =     -31.61358639 Ry
     estimated scf accuracy    <       0.10464087 Ry

     iteration # 21     ecut=    30.00 Ry     beta=0.70
     Davidson diagonalization with overlap
     ethr =  1.31E-03,  avg # of iterations =  1.0

     negative rho (up, down):  1.126E-05 0.000E+00

     total cpu time spent up to now is        5.4 secs

     total energy              =     -31.56357090 Ry
     Harris-Foulkes estimate   =     -31.61761043 Ry
     estimated scf accuracy    <       0.31497184 Ry

     iteration # 22     ecut=    30.00 Ry     beta=0.70
     Davidson diagonalization with overlap
     ethr =  1.31E-03,  avg # of iterations =  1.0

     negative rho (up, down):  4.833E-07 0.000E+00

     total cpu time spent up to now is        5.5 secs

     total energy              =     -31.68297396 Ry
     Harris-Foulkes estimate   =     -31.68865177 Ry
     estimated scf accuracy    <       1.17596761 Ry

     iteration # 23     ecut=    30.00 Ry     beta=0.70
     Davidson diagonalization with overlap
     ethr =  1.31E-03,  avg # of iterations =  1.0

     negative rho (up, down):  1.450E-06 0.000E+00

     total cpu time spent up to now is        5.5 secs

     total energy              =     -31.63640824 Ry
     Harris-Foulkes estimate   =     -31.68326281 Ry
     estimated scf accuracy    <       1.20563785 Ry

     iteration # 24     ecut=    30.00 Ry     beta=0.70
     Davidson diagonalization with overlap
     ethr =  1.31E-03,  avg # of iterations =  1.0

     negative rho (up, down):  4.867E-08 0.000E+00

     total cpu time spent up to now is        5.6 secs

     total energy              =     -31.62528781 Ry
     Harris-Foulkes estimate   =     -31.63699577 Ry
     estimated scf accuracy    <       1.05446402 Ry

     iteration # 25     ecut=    30.00 Ry     beta=0.70
     Davidson diagonalization with overlap
     ethr =  1.31E-03,  avg # of iterations =  1.0

     total cpu time spent up to now is        5.6 secs

     total energy              =     -31.61790022 Ry
     Harris-Foulkes estimate   =     -31.62593557 Ry
     estimated scf accuracy    <       0.78169544 Ry

     iteration # 26     ecut=    30.00 Ry     beta=0.70
     Davidson diagonalization with overlap
     ethr =  1.31E-03,  avg # of iterations =  1.0

     total cpu time spent up to now is        5.6 secs

     total energy              =     -31.59869778 Ry
     Harris-Foulkes estimate   =     -31.61877532 Ry
     estimated scf accuracy    <       0.45673253 Ry

     iteration # 27     ecut=    30.00 Ry     beta=0.70
     Davidson diagonalization with overlap
     ethr =  1.31E-03,  avg # of iterations =  1.0

     negative rho (up, down):  1.172E-06 0.000E+00

     total cpu time spent up to now is        5.7 secs

     total energy              =     -31.60494294 Ry
     Harris-Foulkes estimate   =     -31.61217731 Ry
     estimated scf accuracy    <       0.05590302 Ry

     iteration # 28     ecut=    30.00 Ry     beta=0.70
     Davidson diagonalization with overlap
     ethr =  6.99E-04,  avg # of iterations =  1.0

     negative rho (up, down):  4.132E-07 0.000E+00

     total cpu time spent up to now is        5.7 secs

     total energy              =     -31.61803348 Ry
     Harris-Foulkes estimate   =     -31.62016433 Ry
     estimated scf accuracy    <       0.53114072 Ry

     iteration # 29     ecut=    30.00 Ry     beta=0.70
     Davidson diagonalization with overlap
     ethr =  6.99E-04,  avg # of iterations =  1.0

     total cpu time spent up to now is        5.8 secs

     total energy              =     -31.61014290 Ry
     Harris-Foulkes estimate   =     -31.61814811 Ry
     estimated scf accuracy    <       0.42458631 Ry

     iteration # 30     ecut=    30.00 Ry     beta=0.70
     Davidson diagonalization with overlap
     ethr =  6.99E-04,  avg # of iterations =  1.0

     total cpu time spent up to now is        5.8 secs

     total energy              =     -31.61097470 Ry
     Harris-Foulkes estimate   =     -31.61236247 Ry
     estimated scf accuracy    <       0.07547070 Ry

     iteration # 31     ecut=    30.00 Ry     beta=0.70
     Davidson diagonalization with overlap
     ethr =  6.99E-04,  avg # of iterations =  1.0

     total cpu time spent up to now is        5.9 secs

     total energy              =     -31.61114178 Ry
     Harris-Foulkes estimate   =     -31.61138022 Ry
     estimated scf accuracy    <       0.01263437 Ry

     iteration # 32     ecut=    30.00 Ry     beta=0.70
     Davidson diagonalization with overlap
     ethr =  1.58E-04,  avg # of iterations =  1.0

     total cpu time spent up to now is        5.9 secs

     total energy              =     -31.61111896 Ry
     Harris-Foulkes estimate   =     -31.61121120 Ry
     estimated scf accuracy    <       0.00210689 Ry

     iteration # 33     ecut=    30.00 Ry     beta=0.70
     Davidson diagonalization with overlap
     ethr =  2.63E-05,  avg # of iterations =  1.0

     total cpu time spent up to now is        6.0 secs

     total energy              =     -31.61117168 Ry
     Harris-Foulkes estimate   =     -31.61118105 Ry
     estimated scf accuracy    <       0.00027509 Ry

     iteration # 34     ecut=    30.00 Ry     beta=0.70
     Davidson diagonalization with overlap
     ethr =  3.44E-06,  avg # of iterations = 14.0

     total cpu time spent up to now is        6.1 secs

     total energy              =     -31.61117604 Ry
     Harris-Foulkes estimate   =     -31.61117595 Ry
     estimated scf accuracy    <       0.00000034 Ry

     iteration # 35     ecut=    30.00 Ry     beta=0.70
     Davidson diagonalization with overlap
     ethr =  4.29E-09,  avg # of iterations =  1.0

     total cpu time spent up to now is        6.1 secs

     total energy              =     -31.61117609 Ry
     Harris-Foulkes estimate   =     -31.61117607 Ry
     estimated scf accuracy    <       0.00000064 Ry

     iteration # 36     ecut=    30.00 Ry     beta=0.70
     Davidson diagonalization with overlap
     ethr =  4.29E-09,  avg # of iterations =  1.0

     total cpu time spent up to now is        6.1 secs

     total energy              =     -31.61117612 Ry
     Harris-Foulkes estimate   =     -31.61117610 Ry
     estimated scf accuracy    <       0.00000001 Ry

     iteration # 37     ecut=    30.00 Ry     beta=0.70
     Davidson diagonalization with overlap
     ethr =  1.81E-10,  avg # of iterations =  1.0

     total cpu time spent up to now is        6.2 secs

     End of self-consistent calculation

          k = 0.0000 0.0000 0.0000 ( 22119 PWs)   bands (ev):

   -23.5895  -7.9514  -7.0513  -6.9027  -6.6291  -6.0250  -0.1033   0.7921

     the Fermi energy is    -6.7310 ev

!    total energy              =     -31.61117615 Ry
     Harris-Foulkes estimate   =     -31.61117612 Ry
     estimated scf accuracy    <          5.8E-10 Ry

     convergence has been achieved in  37 iterations

     Forces acting on atoms (Ry/au):

     atom    1 type  2   force =     0.08608436    0.01131629   -0.03111525
     atom    2 type  1   force =    -0.08927299   -0.00092427    0.02246195
     atom    3 type  1   force =     0.00318863   -0.01039202    0.00865329

     Total force =     0.131053     Total SCF correction =     0.000013

     Entering Dynamics:    iteration =     3
                           time      =   0.0145 pico-seconds


     Andersen thermostat:    3 collisions

ATOMIC_POSITIONS (bohr)
O       12.780176672  16.270305894  17.975186898
H       16.147327378  16.386574295  17.462316091
H       11.473368949   0.941117749  14.005076274


     kinetic energy (Ekin) =     0.02356722 Ry
     temperature           =  1240.32156956 K 
     Ekin + Etot (const)   =   -31.58760893 Ry
     Message from routine dynamics:
     Total linear momentum <> 0

     Linear momentum :    0.3679424336   -0.4059240373    0.0655390169

     Writing output data file pwscf.save

     second order wave-functions extrapolation
     Check: negative starting charge=   -0.336085
     second order charge density extrapolation
     Check: negative starting charge=   -0.338594

     negative rho (up, down):  9.124E-02 0.000E+00

     total cpu time spent up to now is        6.7 secs

     per-process dynamical memory:    20.4 Mb

     Self-consistent Calculation

     iteration #  1     ecut=    30.00 Ry     beta=0.70
     Davidson diagonalization with overlap
     ethr =  1.00E-06,  avg # of iterations = 12.0

     negative rho (up, down):  8.851E-03 0.000E+00

     total cpu time spent up to now is        6.9 secs

     total energy              =      48.01952450 Ry
     Harris-Foulkes estimate   =    -166.99281520 Ry
     estimated scf accuracy    <      26.43968005 Ry

     iteration #  2     ecut=    30.00 Ry     beta=0.70
     Davidson diagonalization with overlap
     ethr =  1.00E-02,  avg # of iterations =  4.0

     negative rho (up, down):  5.503E-03 0.000E+00

     total cpu time spent up to now is        6.9 secs

     total energy              =     -35.18989886 Ry
     Harris-Foulkes estimate   =     -48.29086071 Ry
     estimated scf accuracy    <      24.82865738 Ry

     iteration #  3     ecut=    30.00 Ry     beta=0.70
     Davidson diagonalization with overlap
     ethr =  1.00E-02,  avg # of iterations =  3.0

     negative rho (up, down):  4.403E-03 0.000E+00

     total cpu time spent up to now is        7.0 secs

     total energy              =     -34.44554036 Ry
     Harris-Foulkes estimate   =     -36.51338001 Ry
     estimated scf accuracy    <       7.76815945 Ry

     iteration #  4     ecut=    30.00 Ry     beta=0.70
     Davidson diagonalization with overlap
     ethr =  1.00E-02,  avg # of iterations =  1.0

     negative rho (up, down):  3.197E-03 0.000E+00

     total cpu time spent up to now is        7.0 secs

     total energy              =     -32.99559505 Ry
     Harris-Foulkes estimate   =     -35.10164672 Ry
     estimated scf accuracy    <       6.80683896 Ry

     iteration #  5     ecut=    30.00 Ry     beta=0.70
     Davidson diagonalization with overlap
     ethr =  1.00E-02,  avg # of iterations =  2.0

     negative rho (up, down):  2.987E-03 0.000E+00

     total cpu time spent up to now is        7.1 secs

     total energy              =     -32.95133412 Ry
     Harris-Foulkes estimate   =     -33.15403958 Ry
     estimated scf accuracy    <       3.04711088 Ry

     iteration #  6     ecut=    30.00 Ry     beta=0.70
     Davidson diagonalization with overlap
     ethr =  1.00E-02,  avg # of iterations =  1.0

     negative rho (up, down):  1.879E-03 0.000E+00

     total cpu time spent up to now is        7.1 secs

     total energy              =     -32.19806321 Ry
     Harris-Foulkes estimate   =     -32.96098252 Ry
     estimated scf accuracy    <       2.17901538 Ry

     iteration #  7     ecut=    30.00 Ry     beta=0.70
     Davidson diagonalization with overlap
     ethr =  1.00E-02,  avg # of iterations =  1.0

     negative rho (up, down):  1.176E-03 0.000E+00

     total cpu time spent up to now is        7.2 secs

     total energy              =     -31.85174157 Ry
     Harris-Foulkes estimate   =     -32.23669551 Ry
     estimated scf accuracy    <       1.74398167 Ry

     iteration #  8     ecut=    30.00 Ry     beta=0.70
     Davidson diagonalization with overlap
     ethr =  1.00E-02,  avg # of iterations =  2.0

     negative rho (up, down):  1.348E-03 0.000E+00

     total cpu time spent up to now is        7.2 secs

     total energy              =     -31.93954051 Ry
     Harris-Foulkes estimate   =     -31.88751439 Ry
     estimated scf accuracy    <       1.15484086 Ry

     iteration #  9     ecut=    30.00 Ry     beta=0.70
     Davidson diagonalization with overlap
     ethr =  1.00E-02,  avg # of iterations =  1.0

     negative rho (up, down):  1.124E-03 0.000E+00

     total cpu time spent up to now is        7.3 secs

     total energy              =     -31.88068126 Ry
     Harris-Foulkes estimate   =     -32.00313220 Ry
     estimated scf accuracy    <       1.24137109 Ry

     iteration # 10     ecut=    30.00 Ry     beta=0.70
     Davidson diagonalization with overlap
     ethr =  1.00E-02,  avg # of iterations =  1.0

     negative rho (up, down):  2.345E-06 0.000E+00

     total cpu time spent up to now is        7.3 secs

     total energy              =     -31.62419963 Ry
     Harris-Foulkes estimate   =     -31.89144844 Ry
     estimated scf accuracy    <       0.47369383 Ry

     iteration # 11     ecut=    30.00 Ry     beta=0.70
     Davidson diagonalization with overlap
     ethr =  5.92E-03,  avg # of iterations =  2.0

     negative rho (up, down):  2.532E-06 0.000E+00

     total cpu time spent up to now is        7.4 secs

     total energy              =     -31.82323190 Ry
     Harris-Foulkes estimate   =     -31.80515111 Ry
     estimated scf accuracy    <       0.47298219 Ry

     iteration # 12     ecut=    30.00 Ry     beta=0.70
     Davidson diagonalization with overlap
     ethr =  5.91E-03,  avg # of iterations =  1.0

     negative rho (up, down):  1.609E-06 0.000E+00

     total cpu time spent up to now is        7.4 secs

     total energy              =     -31.81358947 Ry
     Harris-Foulkes estimate   =     -31.83626434 Ry
     estimated scf accuracy    <       1.50931347 Ry

     iteration # 13     ecut=    30.00 Ry     beta=0.70
     Davidson diagonalization with overlap
     ethr =  5.91E-03,  avg # of iterations =  1.0

     negative rho (up, down):  1.159E-06 0.000E+00

     total cpu time spent up to now is        7.5 secs

     total energy              =     -31.75511816 Ry
     Harris-Foulkes estimate   =     -31.82248565 Ry
     estimated scf accuracy    <       1.61218547 Ry

     iteration # 14     ecut=    30.00 Ry     beta=0.70
     Davidson diagonalization with overlap
     ethr =  5.91E-03,  avg # of iterations =  1.0

     negative rho (up, down):  8.499E-07 0.000E+00

     total cpu time spent up to now is        7.5 secs

     total energy              =     -31.73589184 Ry
     Harris-Foulkes estimate   =     -31.76327712 Ry
     estimated scf accuracy    <       1.00739631 Ry

     iteration # 15     ecut=    30.00 Ry     beta=0.70
     Davidson diagonalization with overlap
     ethr =  5.91E-03,  avg # of iterations =  1.0

     negative rho (up, down):  1.066E-08 0.000E+00

     total cpu time spent up to now is        7.6 secs

     total energy              =     -31.71887036 Ry
     Harris-Foulkes estimate   =     -31.74179582 Ry
     estimated scf accuracy    <       0.22697607 Ry

     iteration # 16     ecut=    30.00 Ry     beta=0.70
     Davidson diagonalization with overlap
     ethr =  2.84E-03,  avg # of iterations =  1.0

     negative rho (up, down):  1.295E-07 0.000E+00

     total cpu time spent up to now is        7.6 secs

     total energy              =     -31.72921143 Ry
     Harris-Foulkes estimate   =     -31.73554548 Ry
     estimated scf accuracy    <       0.12338351 Ry

     iteration # 17     ecut=    30.00 Ry     beta=0.70
     Davidson diagonalization with overlap
     ethr =  1.54E-03,  avg # of iterations =  1.0

     negative rho (up, down):  8.590E-08 0.000E+00

     total cpu time spent up to now is        7.7 secs

     total energy              =     -31.73348540 Ry
     Harris-Foulkes estimate   =     -31.73343513 Ry
     estimated scf accuracy    <       0.01394355 Ry

     iteration # 18     ecut=    30.00 Ry     beta=0.70
     Davidson diagonalization with overlap
     ethr =  1.74E-04,  avg # of iterations =  1.0

     total cpu time spent up to now is        7.7 secs

     total energy              =     -31.73247258 Ry
     Harris-Foulkes estimate   =     -31.73350761 Ry
     estimated scf accuracy    <       0.01498056 Ry

     iteration # 19     ecut=    30.00 Ry     beta=0.70
     Davidson diagonalization with overlap
     ethr =  1.74E-04,  avg # of iterations =  1.0

     total cpu time spent up to now is        7.8 secs

     total energy              =     -31.73303815 Ry
     Harris-Foulkes estimate   =     -31.73306479 Ry
     estimated scf accuracy    <       0.00188555 Ry

     iteration # 20     ecut=    30.00 Ry     beta=0.70
     Davidson diagonalization with overlap
     ethr =  2.36E-05,  avg # of iterations =  9.0

     total cpu time spent up to now is        7.8 secs

     total energy              =     -31.73304333 Ry
     Harris-Foulkes estimate   =     -31.73304640 Ry
     estimated scf accuracy    <       0.00068237 Ry

     iteration # 21     ecut=    30.00 Ry     beta=0.70
     Davidson diagonalization with overlap
     ethr =  8.53E-06,  avg # of iterations =  2.0

     total cpu time spent up to now is        7.9 secs

     total energy              =     -31.73302799 Ry
     Harris-Foulkes estimate   =     -31.73304392 Ry
     estimated scf accuracy    <       0.00060542 Ry

     iteration # 22     ecut=    30.00 Ry     beta=0.70
     Davidson diagonalization with overlap
     ethr =  7.57E-06,  avg # of iterations =  1.0

     total cpu time spent up to now is        7.9 secs

     total energy              =     -31.73303117 Ry
     Harris-Foulkes estimate   =     -31.73303348 Ry
     estimated scf accuracy    <       0.00004531 Ry

     iteration # 23     ecut=    30.00 Ry     beta=0.70
     Davidson diagonalization with overlap
     c_bands:  1 eigenvalues not converged
     ethr =  5.66E-07,  avg # of iterations = 20.0

     total cpu time spent up to now is        8.0 secs

     total energy              =     -31.73303254 Ry
     Harris-Foulkes estimate   =     -31.73303280 Ry
     estimated scf accuracy    <       0.00000967 Ry

     iteration # 24     ecut=    30.00 Ry     beta=0.70
     Davidson diagonalization with overlap
     ethr =  1.21E-07,  avg # of iterations =  4.0

     total cpu time spent up to now is        8.0 secs

     End of self-consistent calculation

          k = 0.0000 0.0000 0.0000 ( 22119 PWs)   bands (ev):

   -23.5996  -8.6643  -7.0684  -6.8912  -6.5944  -4.5318  -0.0676   0.8494

     the Fermi energy is    -6.7182 ev

!    total energy              =     -31.73303270 Ry
     Harris-Foulkes estimate   =     -31.73303270 Ry
     estimated scf accuracy    <          1.3E-09 Ry

     convergence has been achieved in  24 iterations

     Forces acting on atoms (Ry/au):

     atom    1 type  2   force =     0.15924635    0.01750781   -0.03565240
     atom    2 type  1   force =    -0.16293869   -0.00492967    0.02484702
     atom    3 type  1   force =     0.00369233   -0.01257814    0.01080538

     Total force =     0.233273     Total SCF correction =     0.000036

     Entering Dynamics:    iteration =     4
                           time      =   0.0194 pico-seconds


     Andersen thermostat:    3 collisions

ATOMIC_POSITIONS (bohr)
O       12.856895861  16.262957039  17.973364416
H       14.271010942  16.095559446  17.527716268
H       12.134331897   1.348550104  13.968547094


     kinetic energy (Ekin) =     0.08084655 Ry
     temperature           =  4254.88174962 K 
     Ekin + Etot (const)   =   -31.65218616 Ry
     Message from routine dynamics:
     Total linear momentum <> 0

     Linear momentum :    0.2868737536    0.0527050046   -0.2617939527

     Writing output data file pwscf.save

     second order wave-functions extrapolation
     Check: negative starting charge=   -0.338594
     second order charge density extrapolation
     Check: negative starting charge=   -0.346721

     negative rho (up, down):  3.792E-01 0.000E+00

     total cpu time spent up to now is        8.5 secs

     per-process dynamical memory:    20.4 Mb

     Self-consistent Calculation

     iteration #  1     ecut=    30.00 Ry     beta=0.70
     Davidson diagonalization with overlap
     ethr =  1.00E-06,  avg # of iterations = 15.0

     negative rho (up, down):  5.624E-02 0.000E+00

     total cpu time spent up to now is        8.7 secs

     total energy              =       8.11569695 Ry
     Harris-Foulkes estimate   =     -47.59149175 Ry
     estimated scf accuracy    <      17.59465443 Ry

     iteration #  2     ecut=    30.00 Ry     beta=0.70
     Davidson diagonalization with overlap
     ethr =  1.00E-02,  avg # of iterations =  4.0

     negative rho (up, down):  3.501E-02 0.000E+00

     total cpu time spent up to now is        8.7 secs

     total energy              =     -33.29039418 Ry
     Harris-Foulkes estimate   =     -41.04374988 Ry
     estimated scf accuracy    <      14.71882893 Ry

     iteration #  3     ecut=    30.00 Ry     beta=0.70
     Davidson diagonalization with overlap
     ethr =  1.00E-02,  avg # of iterations =  4.0

     negative rho (up, down):  2.817E-02 0.000E+00

     total cpu time spent up to now is        8.8 secs

     total energy              =     -33.18410983 Ry
     Harris-Foulkes estimate   =     -34.64941281 Ry
     estimated scf accuracy    <       5.33481769 Ry

     iteration #  4     ecut=    30.00 Ry     beta=0.70
     Davidson diagonalization with overlap
     ethr =  1.00E-02,  avg # of iterations =  1.0

     negative rho (up, down):  1.964E-02 0.000E+00

     total cpu time spent up to now is        8.8 secs

     total energy              =     -32.44443643 Ry
     Harris-Foulkes estimate   =     -33.62155215 Ry
     estimated scf accuracy    <       3.91747538 Ry

     iteration #  5     ecut=    30.00 Ry     beta=0.70
     Davidson diagonalization with overlap
     ethr =  1.00E-02,  avg # of iterations =  1.0

     negative rho (up, down):  1.594E-02 0.000E+00

     total cpu time spent up to now is        8.9 secs

     total energy              =     -32.17652618 Ry
     Harris-Foulkes estimate   =     -32.55515514 Ry
     estimated scf accuracy    <       2.40026806 Ry

     iteration #  6     ecut=    30.00 Ry     beta=0.70
     Davidson diagonalization with overlap
     ethr =  1.00E-02,  avg # of iterations =  1.0

     negative rho (up, down):  7.640E-03 0.000E+00

     total cpu time spent up to now is        8.9 secs

     total energy              =     -31.79470687 Ry
     Harris-Foulkes estimate   =     -32.27187379 Ry
     estimated scf accuracy    <       1.71088272 Ry

     iteration #  7     ecut=    30.00 Ry     beta=0.70
     Davidson diagonalization with overlap
     ethr =  1.00E-02,  avg # of iterations =  1.0

     negative rho (up, down):  5.075E-03 0.000E+00

     total cpu time spent up to now is        9.0 secs

     total energy              =     -31.73021254 Ry
     Harris-Foulkes estimate   =     -31.86027139 Ry
     estimated scf accuracy    <       0.88946563 Ry

     iteration #  8     ecut=    30.00 Ry     beta=0.70
     Davidson diagonalization with overlap
     ethr =  1.00E-02,  avg # of iterations =  1.0

     negative rho (up, down):  1.752E-03 0.000E+00

     total cpu time spent up to now is        9.0 secs

     total energy              =     -31.78393154 Ry
     Harris-Foulkes estimate   =     -31.83947515 Ry
     estimated scf accuracy    <       0.94604240 Ry

     iteration #  9     ecut=    30.00 Ry     beta=0.70
     Davidson diagonalization with overlap
     ethr =  1.00E-02,  avg # of iterations =  1.0

     negative rho (up, down):  1.237E-03 0.000E+00

     total cpu time spent up to now is        9.1 secs

     total energy              =     -31.75984468 Ry
     Harris-Foulkes estimate   =     -31.78895339 Ry
     estimated scf accuracy    <       0.71157750 Ry

     iteration # 10     ecut=    30.00 Ry     beta=0.70
     Davidson diagonalization with overlap
     ethr =  8.89E-03,  avg # of iterations =  1.0

     negative rho (up, down):  4.292E-08 0.000E+00

     total cpu time spent up to now is        9.1 secs

     total energy              =     -31.75341689 Ry
     Harris-Foulkes estimate   =     -31.76545153 Ry
     estimated scf accuracy    <       0.17481029 Ry

     iteration # 11     ecut=    30.00 Ry     beta=0.70
     Davidson diagonalization with overlap
     ethr =  2.19E-03,  avg # of iterations =  1.0

     total cpu time spent up to now is        9.2 secs

     total energy              =     -31.76844058 Ry
     Harris-Foulkes estimate   =     -31.77558418 Ry
     estimated scf accuracy    <       0.54384388 Ry

     iteration # 12     ecut=    30.00 Ry     beta=0.70
     Davidson diagonalization with overlap
     ethr =  2.19E-03,  avg # of iterations =  1.0

     total cpu time spent up to now is        9.2 secs

     total energy              =     -31.75764628 Ry
     Harris-Foulkes estimate   =     -31.76998414 Ry
     estimated scf accuracy    <       0.21210991 Ry

     iteration # 13     ecut=    30.00 Ry     beta=0.70
     Davidson diagonalization with overlap
     ethr =  2.19E-03,  avg # of iterations =  1.0

     total cpu time spent up to now is        9.3 secs

     total energy              =     -31.76696608 Ry
     Harris-Foulkes estimate   =     -31.76898479 Ry
     estimated scf accuracy    <       0.12055105 Ry

     iteration # 14     ecut=    30.00 Ry     beta=0.70
     Davidson diagonalization with overlap
     ethr =  1.51E-03,  avg # of iterations =  1.0

     total cpu time spent up to now is        9.3 secs

     total energy              =     -31.76615391 Ry
     Harris-Foulkes estimate   =     -31.76736462 Ry
     estimated scf accuracy    <       0.04116490 Ry

     iteration # 15     ecut=    30.00 Ry     beta=0.70
     Davidson diagonalization with overlap
     ethr =  5.15E-04,  avg # of iterations =  1.0

     total cpu time spent up to now is        9.4 secs

     total energy              =     -31.76672204 Ry
     Harris-Foulkes estimate   =     -31.76663334 Ry
     estimated scf accuracy    <       0.00121143 Ry

     iteration # 16     ecut=    30.00 Ry     beta=0.70
     Davidson diagonalization with overlap
     ethr =  1.51E-05,  avg # of iterations =  8.0

     total cpu time spent up to now is        9.5 secs

     total energy              =     -31.76650438 Ry
     Harris-Foulkes estimate   =     -31.76680224 Ry
     estimated scf accuracy    <       0.01077489 Ry

     iteration # 17     ecut=    30.00 Ry     beta=0.70
     Davidson diagonalization with overlap
     ethr =  1.51E-05,  avg # of iterations =  1.0

     total cpu time spent up to now is        9.5 secs

     total energy              =     -31.76661607 Ry
     Harris-Foulkes estimate   =     -31.76661889 Ry
     estimated scf accuracy    <       0.00043112 Ry

     iteration # 18     ecut=    30.00 Ry     beta=0.70
     Davidson diagonalization with overlap
     ethr =  5.39E-06,  avg # of iterations =  1.0

     total cpu time spent up to now is        9.6 secs

     total energy              =     -31.76660527 Ry
     Harris-Foulkes estimate   =     -31.76661646 Ry
     estimated scf accuracy    <       0.00029608 Ry

     iteration # 19     ecut=    30.00 Ry     beta=0.70
     Davidson diagonalization with overlap
     ethr =  3.70E-06,  avg # of iterations =  1.0

     total cpu time spent up to now is        9.6 secs

     total energy              =     -31.76661238 Ry
     Harris-Foulkes estimate   =     -31.76661187 Ry
     estimated scf accuracy    <       0.00000320 Ry

     iteration # 20     ecut=    30.00 Ry     beta=0.70
     Davidson diagonalization with overlap
     ethr =  4.00E-08,  avg # of iterations =  1.0

     total cpu time spent up to now is        9.7 secs

     total energy              =     -31.76661253 Ry
     Harris-Foulkes estimate   =     -31.76661259 Ry
     estimated scf accuracy    <       0.00000211 Ry

     iteration # 21     ecut=    30.00 Ry     beta=0.70
     Davidson diagonalization with overlap
     ethr =  2.64E-08,  avg # of iterations =  1.0

     total cpu time spent up to now is        9.7 secs

     total energy              =     -31.76661252 Ry
     Harris-Foulkes estimate   =     -31.76661255 Ry
     estimated scf accuracy    <       0.00000011 Ry

     iteration # 22     ecut=    30.00 Ry     beta=0.70
     Davidson diagonalization with overlap
     ethr =  1.32E-09,  avg # of iterations =  1.0

     total cpu time spent up to now is        9.8 secs

     total energy              =     -31.76661252 Ry
     Harris-Foulkes estimate   =     -31.76661252 Ry
     estimated scf accuracy    <       0.00000002 Ry

     iteration # 23     ecut=    30.00 Ry     beta=0.70
     Davidson diagonalization with overlap
     ethr =  2.75E-10,  avg # of iterations =  1.0

     total cpu time spent up to now is        9.8 secs

     End of self-consistent calculation

          k = 0.0000 0.0000 0.0000 ( 22119 PWs)   bands (ev):

   -26.7781 -11.2139  -7.3597  -7.2210  -6.9443  -0.3610   0.4742   0.8677

     the Fermi energy is    -7.0459 ev

!    total energy              =     -31.76661252 Ry
     Harris-Foulkes estimate   =     -31.76661252 Ry
     estimated scf accuracy    <          5.4E-10 Ry

     convergence has been achieved in  23 iterations

     Forces acting on atoms (Ry/au):

     atom    1 type  2   force =    -0.88854537    0.11500493    0.27156758
     atom    2 type  1   force =     0.88722172   -0.10481423   -0.27994929
     atom    3 type  1   force =     0.00132364   -0.01019071    0.00838171

     Total force =     1.324078     Total SCF correction =     0.000011

     Entering Dynamics:    iteration =     5
                           time      =   0.0242 pico-seconds


     Andersen thermostat:    3 collisions

ATOMIC_POSITIONS (bohr)
O       12.246670833  16.342717316  18.193581141
H       23.465951577  15.106953783  14.137323832
H       12.606322387   1.073626626  13.870357757


     kinetic energy (Ekin) =     1.14616631 Ry
     temperature           = 60321.71074059 K 
     Ekin + Etot (const)   =   -30.62044620 Ry
     Message from routine dynamics:
     Total linear momentum <> 0

     Linear momentum :   -0.1210900472    0.3090709673    0.1362435771

     Writing output data file pwscf.save

     second order wave-functions extrapolation
     Check: negative starting charge=   -0.346721
     second order charge density extrapolation
     Check: negative starting charge=   -0.340877

     negative rho (up, down):  1.643E+00 0.000E+00

     total cpu time spent up to now is       10.3 secs

     per-process dynamical memory:    20.4 Mb

     Self-consistent Calculation

     iteration #  1     ecut=    30.00 Ry     beta=0.70
     Davidson diagonalization with overlap
     ethr =  1.00E-06,  avg # of iterations = 17.0

     negative rho (up, down):  3.553E-01 0.000E+00

     total cpu time spent up to now is       10.5 secs

     total energy              =     117.74875422 Ry
     Harris-Foulkes estimate   =    -795.75428698 Ry
     estimated scf accuracy    <      36.55082127 Ry

     iteration #  2     ecut=    30.00 Ry     beta=0.70
     Davidson diagonalization with overlap
     ethr =  1.00E-02,  avg # of iterations =  8.0

     negative rho (up, down):  2.019E-01 0.000E+00

     total cpu time spent up to now is       10.6 secs

     total energy              =      31.25957670 Ry
     Harris-Foulkes estimate   =    -229.85593554 Ry
     estimated scf accuracy    <      29.48328702 Ry

     iteration #  3     ecut=    30.00 Ry     beta=0.70
     Davidson diagonalization with overlap
     ethr =  1.00E-02,  avg # of iterations =  9.0

     negative rho (up, down):  1.712E-01 0.000E+00

     total cpu time spent up to now is       10.6 secs

     total energy              =     -35.76921965 Ry
     Harris-Foulkes estimate   =     -42.84512516 Ry
     estimated scf accuracy    <      18.63776541 Ry

     iteration #  4     ecut=    30.00 Ry     beta=0.70
     Davidson diagonalization with overlap
     ethr =  1.00E-02,  avg # of iterations =  2.0

     negative rho (up, down):  1.538E-01 0.000E+00

     total cpu time spent up to now is       10.7 secs

     total energy              =     -34.96140900 Ry
     Harris-Foulkes estimate   =     -36.54294954 Ry
     estimated scf accuracy    <       9.01654290 Ry

     iteration #  5     ecut=    30.00 Ry     beta=0.70
     Davidson diagonalization with overlap
     ethr =  1.00E-02,  avg # of iterations =  2.0

     negative rho (up, down):  1.073E-01 0.000E+00

     total cpu time spent up to now is       10.7 secs

     total energy              =     -32.15480097 Ry
     Harris-Foulkes estimate   =     -35.38112774 Ry
     estimated scf accuracy    <       9.19096848 Ry

     iteration #  6     ecut=    30.00 Ry     beta=0.70
     Davidson diagonalization with overlap
     ethr =  1.00E-02,  avg # of iterations =  3.0

     negative rho (up, down):  9.577E-02 0.000E+00

     total cpu time spent up to now is       10.8 secs

     total energy              =     -34.44611132 Ry
     Harris-Foulkes estimate   =     -33.17930782 Ry
     estimated scf accuracy    <       3.24586752 Ry

     iteration #  7     ecut=    30.00 Ry     beta=0.70
     Davidson diagonalization with overlap
     ethr =  1.00E-02,  avg # of iterations =  3.0

     negative rho (up, down):  9.274E-02 0.000E+00

     total cpu time spent up to now is       10.8 secs

     total energy              =      -2.98727348 Ry
     Harris-Foulkes estimate   =     -81.84385811 Ry
     estimated scf accuracy    <       7.21451982 Ry

     iteration #  8     ecut=    30.00 Ry     beta=0.70
     Davidson diagonalization with overlap
     ethr =  1.00E-02,  avg # of iterations =  4.0

     negative rho (up, down):  5.442E-02 0.000E+00

     total cpu time spent up to now is       10.9 secs

     total energy              =     -31.60939412 Ry
     Harris-Foulkes estimate   =     -32.22529962 Ry
     estimated scf accuracy    <       2.46406631 Ry

     iteration #  9     ecut=    30.00 Ry     beta=0.70
     Davidson diagonalization with overlap
     ethr =  1.00E-02,  avg # of iterations =  2.0

     negative rho (up, down):  7.253E-02 0.000E+00

     total cpu time spent up to now is       11.0 secs

     total energy              =     -31.61551716 Ry
     Harris-Foulkes estimate   =     -31.93244185 Ry
     estimated scf accuracy    <       3.44936146 Ry

     iteration # 10     ecut=    30.00 Ry     beta=0.70
     Davidson diagonalization with overlap
     ethr =  1.00E-02,  avg # of iterations =  2.0

     negative rho (up, down):  5.662E-02 0.000E+00

     total cpu time spent up to now is       11.0 secs

     total energy              =     -31.47178726 Ry
     Harris-Foulkes estimate   =     -32.02005696 Ry
     estimated scf accuracy    <       2.14798808 Ry

     iteration # 11     ecut=    30.00 Ry     beta=0.70
     Davidson diagonalization with overlap
     ethr =  1.00E-02,  avg # of iterations =  4.0

     negative rho (up, down):  1.548E-02 0.000E+00

     total cpu time spent up to now is       11.1 secs

     total energy              =     -20.09782012 Ry
     Harris-Foulkes estimate   =    -154.24753454 Ry
     estimated scf accuracy    <      20.90667097 Ry

     iteration # 12     ecut=    30.00 Ry     beta=0.70
     Davidson diagonalization with overlap
     ethr =  1.00E-02,  avg # of iterations =  4.0

     negative rho (up, down):  2.648E-02 0.000E+00

     total cpu time spent up to now is       11.1 secs

     total energy              =     -41.66467276 Ry
     Harris-Foulkes estimate   =     -70.24892433 Ry
     estimated scf accuracy    <      22.09552197 Ry

     iteration # 13     ecut=    30.00 Ry     beta=0.70
     Davidson diagonalization with overlap
     ethr =  1.00E-02,  avg # of iterations =  4.0

     negative rho (up, down):  6.146E-03 0.000E+00

     total cpu time spent up to now is       11.2 secs

     total energy              =      44.87941113 Ry
     Harris-Foulkes estimate   =    -201.80589955 Ry
     estimated scf accuracy    <      36.22723847 Ry

     iteration # 14     ecut=    30.00 Ry     beta=0.70
     Davidson diagonalization with overlap
     ethr =  1.00E-02,  avg # of iterations =  5.0

     negative rho (up, down):  5.628E-04 0.000E+00

     total cpu time spent up to now is       11.3 secs

     total energy              =     -31.74636582 Ry
     Harris-Foulkes estimate   =     -31.95869250 Ry
     estimated scf accuracy    <       3.22861933 Ry

     iteration # 15     ecut=    30.00 Ry     beta=0.70
     Davidson diagonalization with overlap
     ethr =  1.00E-02,  avg # of iterations =  3.0

     negative rho (up, down):  2.957E-03 0.000E+00

     total cpu time spent up to now is       11.3 secs

     total energy              =     -31.72547611 Ry
     Harris-Foulkes estimate   =     -31.80311966 Ry
     estimated scf accuracy    <       3.04625324 Ry

     iteration # 16     ecut=    30.00 Ry     beta=0.70
     Davidson diagonalization with overlap
     ethr =  1.00E-02,  avg # of iterations =  2.0

     negative rho (up, down):  1.337E-03 0.000E+00

     total cpu time spent up to now is       11.4 secs

     total energy              =     -31.54746765 Ry
     Harris-Foulkes estimate   =     -31.77137755 Ry
     estimated scf accuracy    <       2.70546553 Ry

     iteration # 17     ecut=    30.00 Ry     beta=0.70
     Davidson diagonalization with overlap
     ethr =  1.00E-02,  avg # of iterations =  2.0

     negative rho (up, down):  3.721E-03 0.000E+00

     total cpu time spent up to now is       11.4 secs

     total energy              =     -31.18812795 Ry
     Harris-Foulkes estimate   =     -31.64491397 Ry
     estimated scf accuracy    <       2.51056286 Ry

     iteration # 18     ecut=    30.00 Ry     beta=0.70
     Davidson diagonalization with overlap
     ethr =  1.00E-02,  avg # of iterations =  1.0

     negative rho (up, down):  7.461E-04 0.000E+00

     total cpu time spent up to now is       11.5 secs

     total energy              =     -31.90348470 Ry
     Harris-Foulkes estimate   =     -32.17495903 Ry
     estimated scf accuracy    <       4.49661391 Ry

     iteration # 19     ecut=    30.00 Ry     beta=0.70
     Davidson diagonalization with overlap
     ethr =  1.00E-02,  avg # of iterations =  1.0

     negative rho (up, down):  2.031E-04 0.000E+00

     total cpu time spent up to now is       11.5 secs

     total energy              =     -31.56246625 Ry
     Harris-Foulkes estimate   =     -31.90935766 Ry
     estimated scf accuracy    <       4.00872380 Ry

     iteration # 20     ecut=    30.00 Ry     beta=0.70
     Davidson diagonalization with overlap
     ethr =  1.00E-02,  avg # of iterations =  1.0

     negative rho (up, down):  3.692E-05 0.000E+00

     total cpu time spent up to now is       11.6 secs

     total energy              =     -31.54294623 Ry
     Harris-Foulkes estimate   =     -31.59575498 Ry
     estimated scf accuracy    <       1.36106079 Ry

     iteration # 21     ecut=    30.00 Ry     beta=0.70
     Davidson diagonalization with overlap
     ethr =  1.00E-02,  avg # of iterations =  1.0

     negative rho (up, down):  4.329E-05 0.000E+00

     total cpu time spent up to now is       11.6 secs

     total energy              =     -31.54178550 Ry
     Harris-Foulkes estimate   =     -31.56085976 Ry
     estimated scf accuracy    <       0.31342726 Ry

     iteration # 22     ecut=    30.00 Ry     beta=0.70
     Davidson diagonalization with overlap
     ethr =  3.92E-03,  avg # of iterations =  1.0

     negative rho (up, down):  2.780E-02 0.000E+00

     total cpu time spent up to now is       11.7 secs

     total energy              =     -31.89629601 Ry
     Harris-Foulkes estimate   =     -31.54899253 Ry
     estimated scf accuracy    <       0.46145986 Ry

     iteration # 23     ecut=    30.00 Ry     beta=0.70
     Davidson diagonalization with overlap
     ethr =  3.92E-03,  avg # of iterations =  2.0

     negative rho (up, down):  9.201E-04 0.000E+00

     total cpu time spent up to now is       11.7 secs

     total energy              =     -31.27106596 Ry
     Harris-Foulkes estimate   =     -32.56999004 Ry
     estimated scf accuracy    <       2.58811128 Ry

     iteration # 24     ecut=    30.00 Ry     beta=0.70
     Davidson diagonalization with overlap
     ethr =  3.92E-03,  avg # of iterations =  3.0

     negative rho (up, down):  8.365E-05 0.000E+00

     total cpu time spent up to now is       11.8 secs

     total energy              =     -31.78312483 Ry
     Harris-Foulkes estimate   =     -31.83209092 Ry
     estimated scf accuracy    <       2.92770692 Ry

     iteration # 25     ecut=    30.00 Ry     beta=0.70
     Davidson diagonalization with overlap
     ethr =  3.92E-03,  avg # of iterations =  1.0

     negative rho (up, down):  1.672E-05 0.000E+00

     total cpu time spent up to now is       11.8 secs

     total energy              =     -31.74782367 Ry
     Harris-Foulkes estimate   =     -31.78725089 Ry
     estimated scf accuracy    <       2.84859293 Ry

     iteration # 26     ecut=    30.00 Ry     beta=0.70
     Davidson diagonalization with overlap
     ethr =  3.92E-03,  avg # of iterations =  1.0

[...]
     Harris-Foulkes estimate   =     -59.93873877 Ry
     estimated scf accuracy    <      40.46708386 Ry

     iteration # 59     ecut=    30.00 Ry     beta=0.70
     Davidson diagonalization with overlap
     ethr =  1.00E-02,  avg # of iterations = 10.0

     negative rho (up, down):  2.664E-03 0.000E+00

     total cpu time spent up to now is       57.1 secs

     total energy              =     125.04421415 Ry
     Harris-Foulkes estimate   =    -730.56638830 Ry
     estimated scf accuracy    <      28.45208807 Ry

     iteration # 60     ecut=    30.00 Ry     beta=0.70
     Davidson diagonalization with overlap
     ethr =  1.00E-02,  avg # of iterations =  7.0

     negative rho (up, down):  1.942E-02 0.000E+00

     total cpu time spent up to now is       57.3 secs

     total energy              =      -9.84175086 Ry
     Harris-Foulkes estimate   =    -357.35911828 Ry
     estimated scf accuracy    <      21.89729887 Ry

     iteration # 61     ecut=    30.00 Ry     beta=0.70
     Davidson diagonalization with overlap
     ethr =  1.00E-02,  avg # of iterations =  9.0

     negative rho (up, down):  8.801E-03 0.000E+00

     total cpu time spent up to now is       57.4 secs

     total energy              =     -17.29312323 Ry
     Harris-Foulkes estimate   =     -81.10450341 Ry
     estimated scf accuracy    <      29.88852093 Ry

     iteration # 62     ecut=    30.00 Ry     beta=0.70
     Davidson diagonalization with overlap
     ethr =  1.00E-02,  avg # of iterations = 10.0

     negative rho (up, down):  1.108E-02 0.000E+00

     total cpu time spent up to now is       57.5 secs

     total energy              =     -76.59891144 Ry
     Harris-Foulkes estimate   =     -62.18062986 Ry
     estimated scf accuracy    <      40.62133713 Ry

     iteration # 63     ecut=    30.00 Ry     beta=0.70
     Davidson diagonalization with overlap
     ethr =  1.00E-02,  avg # of iterations =  3.0

     negative rho (up, down):  9.361E-03 0.000E+00

     total cpu time spent up to now is       57.6 secs

     total energy              =     -47.38869006 Ry
     Harris-Foulkes estimate   =    -110.77454442 Ry
     estimated scf accuracy    <      45.35910247 Ry

     iteration # 64     ecut=    30.00 Ry     beta=0.70
     Davidson diagonalization with overlap
     ethr =  1.00E-02,  avg # of iterations =  3.0

     negative rho (up, down):  3.709E-02 0.000E+00

     total cpu time spent up to now is       57.7 secs

     total energy              =     -63.91374628 Ry
     Harris-Foulkes estimate   =     -61.21424833 Ry
     estimated scf accuracy    <      41.34162161 Ry

     iteration # 65     ecut=    30.00 Ry     beta=0.70
     Davidson diagonalization with overlap
     ethr =  1.00E-02,  avg # of iterations =  3.0

     negative rho (up, down):  9.439E-02 0.000E+00

     total cpu time spent up to now is       57.7 secs

     total energy              =     -62.38850700 Ry
     Harris-Foulkes estimate   =     -72.59446754 Ry
     estimated scf accuracy    <      42.15601014 Ry

     iteration # 66     ecut=    30.00 Ry     beta=0.70
     Davidson diagonalization with overlap
     ethr =  1.00E-02,  avg # of iterations =  6.0

     negative rho (up, down):  1.326E-01 0.000E+00

     total cpu time spent up to now is       57.8 secs

     total energy              =      17.00222749 Ry
     Harris-Foulkes estimate   =    -154.62088993 Ry
     estimated scf accuracy    <      34.72213054 Ry

     iteration # 67     ecut=    30.00 Ry     beta=0.70
     Davidson diagonalization with overlap
     ethr =  1.00E-02,  avg # of iterations =  7.0

     negative rho (up, down):  5.355E-02 0.000E+00

     total cpu time spent up to now is       57.9 secs

     total energy              =      33.37438059 Ry
     Harris-Foulkes estimate   =    -319.26304637 Ry
     estimated scf accuracy    <      33.58551423 Ry

     iteration # 68     ecut=    30.00 Ry     beta=0.70
     Davidson diagonalization with overlap
     ethr =  1.00E-02,  avg # of iterations =  6.0

     negative rho (up, down):  5.552E-01 0.000E+00

     total cpu time spent up to now is       58.0 secs

     total energy              =    -890.12766968 Ry
     Harris-Foulkes estimate   =    -304.06474621 Ry
     estimated scf accuracy    <      40.15851384 Ry

     iteration # 69     ecut=    30.00 Ry     beta=0.70
     Davidson diagonalization with overlap
     ethr =  1.00E-02,  avg # of iterations =  8.0

     negative rho (up, down):  7.736E-01 0.000E+00

     total cpu time spent up to now is       58.1 secs

     total energy              =     -10.19178375 Ry
     Harris-Foulkes estimate   =   -5196.79668274 Ry
     estimated scf accuracy    <      29.37154153 Ry

     iteration # 70     ecut=    30.00 Ry     beta=0.70
     Davidson diagonalization with overlap
     ethr =  1.00E-02,  avg # of iterations =  7.0

     negative rho (up, down):  9.717E-01 0.000E+00

     total cpu time spent up to now is       58.2 secs

     total energy              =      28.08652739 Ry
     Harris-Foulkes estimate   =   -2168.24831910 Ry
     estimated scf accuracy    <      37.00563037 Ry

     iteration # 71     ecut=    30.00 Ry     beta=0.70
     Davidson diagonalization with overlap
     ethr =  1.00E-02,  avg # of iterations =  8.0

     negative rho (up, down):  1.130E+00 0.000E+00

     total cpu time spent up to now is       58.2 secs

     total energy              =       2.71585843 Ry
     Harris-Foulkes estimate   =   -1997.98024862 Ry
     estimated scf accuracy    <      35.76129476 Ry

     iteration # 72     ecut=    30.00 Ry     beta=0.70
     Davidson diagonalization with overlap
     ethr =  1.00E-02,  avg # of iterations =  8.0

     negative rho (up, down):  8.355E-01 0.000E+00

     total cpu time spent up to now is       58.3 secs

     total energy              =      51.31502178 Ry
     Harris-Foulkes estimate   =   -1439.27945221 Ry
     estimated scf accuracy    <      22.15432268 Ry

     iteration # 73     ecut=    30.00 Ry     beta=0.70
     Davidson diagonalization with overlap
     ethr =  1.00E-02,  avg # of iterations =  8.0

     negative rho (up, down):  7.249E-01 0.000E+00

     total cpu time spent up to now is       58.4 secs

     total energy              =    -240.74858579 Ry
     Harris-Foulkes estimate   =   -2483.02127975 Ry
     estimated scf accuracy    <      28.87270381 Ry

     iteration # 74     ecut=    30.00 Ry     beta=0.70
     Davidson diagonalization with overlap
     ethr =  1.00E-02,  avg # of iterations = 10.0

     negative rho (up, down):  7.055E-01 0.000E+00

     total cpu time spent up to now is       58.5 secs

     total energy              =    -526.33638741 Ry
     Harris-Foulkes estimate   =   -1212.48379429 Ry
     estimated scf accuracy    <      31.09403288 Ry

     iteration # 75     ecut=    30.00 Ry     beta=0.70
     Davidson diagonalization with overlap
     ethr =  1.00E-02,  avg # of iterations =  7.0

     negative rho (up, down):  5.226E-01 0.000E+00

     total cpu time spent up to now is       58.6 secs

     total energy              =      35.84163087 Ry
     Harris-Foulkes estimate   =   -3286.37964198 Ry
     estimated scf accuracy    <      32.11996624 Ry

     iteration # 76     ecut=    30.00 Ry     beta=0.70
     Davidson diagonalization with overlap
     ethr =  1.00E-02,  avg # of iterations = 10.0

     negative rho (up, down):  2.026E-01 0.000E+00

     total cpu time spent up to now is       58.7 secs

     total energy              =     -10.16720192 Ry
     Harris-Foulkes estimate   =   -2525.61113917 Ry
     estimated scf accuracy    <      25.60488335 Ry

     iteration # 77     ecut=    30.00 Ry     beta=0.70
     Davidson diagonalization with overlap
     ethr =  1.00E-02,  avg # of iterations =  7.0

     negative rho (up, down):  2.683E-01 0.000E+00

     total cpu time spent up to now is       58.8 secs

     total energy              =      -6.56989422 Ry
     Harris-Foulkes estimate   =   -2100.89982056 Ry
     estimated scf accuracy    <      26.59659819 Ry

     iteration # 78     ecut=    30.00 Ry     beta=0.70
     Davidson diagonalization with overlap
     ethr =  1.00E-02,  avg # of iterations =  6.0

     negative rho (up, down):  3.978E-01 0.000E+00

     total cpu time spent up to now is       58.9 secs

     total energy              =      72.82188068 Ry
     Harris-Foulkes estimate   =   -2873.55355470 Ry
     estimated scf accuracy    <      28.66599997 Ry

     iteration # 79     ecut=    30.00 Ry     beta=0.70
     Davidson diagonalization with overlap
     ethr =  1.00E-02,  avg # of iterations =  6.0

     negative rho (up, down):  3.400E-02 0.000E+00

     total cpu time spent up to now is       59.0 secs

     total energy              =      81.77890573 Ry
     Harris-Foulkes estimate   =    -700.93273308 Ry
     estimated scf accuracy    <      23.25083141 Ry

     iteration # 80     ecut=    30.00 Ry     beta=0.70
     Davidson diagonalization with overlap
     ethr =  1.00E-02,  avg # of iterations = 10.0

     negative rho (up, down):  1.972E-01 0.000E+00

     total cpu time spent up to now is       59.1 secs

     total energy              =    -343.75610477 Ry
     Harris-Foulkes estimate   =    -159.74353282 Ry
     estimated scf accuracy    <      23.65449431 Ry

     iteration # 81     ecut=    30.00 Ry     beta=0.70
     Davidson diagonalization with overlap
     ethr =  1.00E-02,  avg # of iterations =  5.0

     negative rho (up, down):  4.405E-01 0.000E+00

     total cpu time spent up to now is       59.2 secs

     total energy              =    -467.75059954 Ry
     Harris-Foulkes estimate   =  -10675.29218429 Ry
     estimated scf accuracy    <      21.19600146 Ry

     iteration # 82     ecut=    30.00 Ry     beta=0.70
     Davidson diagonalization with overlap
     ethr =  1.00E-02,  avg # of iterations =  6.0

     negative rho (up, down):  3.816E-01 0.000E+00

     total cpu time spent up to now is       59.2 secs

     total energy              =    -224.76566902 Ry
     Harris-Foulkes estimate   =   -8490.83915200 Ry
     estimated scf accuracy    <      29.93283106 Ry

     iteration # 83     ecut=    30.00 Ry     beta=0.70
     Davidson diagonalization with overlap
     ethr =  1.00E-02,  avg # of iterations =  7.0

     negative rho (up, down):  2.463E-01 0.000E+00

     total cpu time spent up to now is       59.3 secs

     total energy              =     -74.54301891 Ry
     Harris-Foulkes estimate   =   -4986.80420078 Ry
     estimated scf accuracy    <      30.29532022 Ry

     iteration # 84     ecut=    30.00 Ry     beta=0.70
     Davidson diagonalization with overlap
     ethr =  1.00E-02,  avg # of iterations =  8.0

     negative rho (up, down):  1.810E-03 0.000E+00

     total cpu time spent up to now is       59.5 secs

     total energy              =      87.73672953 Ry
     Harris-Foulkes estimate   =   -3613.78226097 Ry
     estimated scf accuracy    <      17.80637541 Ry

     iteration # 85     ecut=    30.00 Ry     beta=0.70
     Davidson diagonalization with overlap
     ethr =  1.00E-02,  avg # of iterations =  9.0

     negative rho (up, down):  3.484E-03 0.000E+00

     total cpu time spent up to now is       59.6 secs

     total energy              =     -15.47003221 Ry
     Harris-Foulkes estimate   =     -44.76151483 Ry
     estimated scf accuracy    <      10.95582652 Ry

     iteration # 86     ecut=    30.00 Ry     beta=0.70
     Davidson diagonalization with overlap
     ethr =  1.00E-02,  avg # of iterations =  4.0

     negative rho (up, down):  1.063E-02 0.000E+00

     total cpu time spent up to now is       59.6 secs

     total energy              =      -7.57239576 Ry
     Harris-Foulkes estimate   =    -254.07238211 Ry
     estimated scf accuracy    <      13.90182239 Ry

     iteration # 87     ecut=    30.00 Ry     beta=0.70
     Davidson diagonalization with overlap
     ethr =  1.00E-02,  avg # of iterations =  5.0

     negative rho (up, down):  4.072E-02 0.000E+00

     total cpu time spent up to now is       59.7 secs

     total energy              =      -5.54117927 Ry
     Harris-Foulkes estimate   =     -89.51081444 Ry
     estimated scf accuracy    <      12.18645607 Ry

     iteration # 88     ecut=    30.00 Ry     beta=0.70
     Davidson diagonalization with overlap
     ethr =  1.00E-02,  avg # of iterations =  5.0

     negative rho (up, down):  5.003E-02 0.000E+00

     total cpu time spent up to now is       59.8 secs

     total energy              =      -6.37296827 Ry
     Harris-Foulkes estimate   =     -97.11488056 Ry
     estimated scf accuracy    <      16.43410322 Ry

     iteration # 89     ecut=    30.00 Ry     beta=0.70
     Davidson diagonalization with overlap
     ethr =  1.00E-02,  avg # of iterations =  5.0

     negative rho (up, down):  1.028E-01 0.000E+00

     total cpu time spent up to now is       59.8 secs

     total energy              =     -50.73235328 Ry
     Harris-Foulkes estimate   =    -772.74142776 Ry
     estimated scf accuracy    <      19.86216302 Ry

     iteration # 90     ecut=    30.00 Ry     beta=0.70
     Davidson diagonalization with overlap
     ethr =  1.00E-02,  avg # of iterations =  5.0

     negative rho (up, down):  7.639E-02 0.000E+00

     total cpu time spent up to now is       59.9 secs

     total energy              =      36.68591474 Ry
     Harris-Foulkes estimate   =   -3316.58087095 Ry
     estimated scf accuracy    <      17.45067068 Ry

     iteration # 91     ecut=    30.00 Ry     beta=0.70
     Davidson diagonalization with overlap
     ethr =  1.00E-02,  avg # of iterations =  4.0

     negative rho (up, down):  2.117E-02 0.000E+00

     total cpu time spent up to now is       60.0 secs

     total energy              =      11.91770595 Ry
     Harris-Foulkes estimate   =    -525.93310427 Ry
     estimated scf accuracy    <      11.45604914 Ry

     iteration # 92     ecut=    30.00 Ry     beta=0.70
     Davidson diagonalization with overlap
     ethr =  1.00E-02,  avg # of iterations =  5.0

     negative rho (up, down):  7.461E-02 0.000E+00

     total cpu time spent up to now is       60.1 secs

     total energy              =    -925.01024025 Ry
     Harris-Foulkes estimate   =    -462.36591372 Ry
     estimated scf accuracy    <      24.48859253 Ry

     iteration # 93     ecut=    30.00 Ry     beta=0.70
     Davidson diagonalization with overlap
     ethr =  1.00E-02,  avg # of iterations =  4.0

     negative rho (up, down):  8.094E-02 0.000E+00

     total cpu time spent up to now is       60.1 secs

     total energy              =    -165.77622742 Ry
     Harris-Foulkes estimate   =   -3445.63278757 Ry
     estimated scf accuracy    <      31.03076079 Ry

     iteration # 94     ecut=    30.00 Ry     beta=0.70
     Davidson diagonalization with overlap
     ethr =  1.00E-02,  avg # of iterations =  4.0

     negative rho (up, down):  8.848E-02 0.000E+00

     total cpu time spent up to now is       60.2 secs

     total energy              =   -6298.24441547 Ry
     Harris-Foulkes estimate   =   -1166.64414143 Ry
     estimated scf accuracy    <      34.32860608 Ry

     iteration # 95     ecut=    30.00 Ry     beta=0.70
     Davidson diagonalization with overlap
     ethr =  1.00E-02,  avg # of iterations =  5.0

     negative rho (up, down):  1.074E-01 0.000E+00

     total cpu time spent up to now is       60.3 secs

     total energy              =    -967.11879088 Ry
     Harris-Foulkes estimate   =  -15012.81183707 Ry
     estimated scf accuracy    <      21.05506150 Ry

     iteration # 96     ecut=    30.00 Ry     beta=0.70
     Davidson diagonalization with overlap
     ethr =  1.00E-02,  avg # of iterations =  6.0

     negative rho (up, down):  1.749E-01 0.000E+00

     total cpu time spent up to now is       60.4 secs

     total energy              =   -4041.86049915 Ry
     Harris-Foulkes estimate   =   -1865.46799365 Ry
     estimated scf accuracy    <      30.86327163 Ry

     iteration # 97     ecut=    30.00 Ry     beta=0.70
     Davidson diagonalization with overlap
     ethr =  1.00E-02,  avg # of iterations =  7.0

     negative rho (up, down):  2.156E-01 0.000E+00

     total cpu time spent up to now is       60.5 secs

     total energy              =     -58.31550742 Ry
     Harris-Foulkes estimate   =   -6321.32242592 Ry
     estimated scf accuracy    <      26.38334004 Ry

     iteration # 98     ecut=    30.00 Ry     beta=0.70
     Davidson diagonalization with overlap
     ethr =  1.00E-02,  avg # of iterations = 11.0

     negative rho (up, down):  1.534E-01 0.000E+00

     total cpu time spent up to now is       60.6 secs

     total energy              =   -2194.21838518 Ry
     Harris-Foulkes estimate   =   -1392.80643728 Ry
     estimated scf accuracy    <      27.94375126 Ry

     iteration # 99     ecut=    30.00 Ry     beta=0.70
     Davidson diagonalization with overlap
     ethr =  1.00E-02,  avg # of iterations =  8.0

     negative rho (up, down):  1.568E-01 0.000E+00

     total cpu time spent up to now is       60.6 secs

     total energy              =      38.22340650 Ry
     Harris-Foulkes estimate   =   -2818.61564851 Ry
     estimated scf accuracy    <      19.56165319 Ry

     iteration #100     ecut=    30.00 Ry     beta=0.70
     Davidson diagonalization with overlap
     ethr =  1.00E-02,  avg # of iterations =  7.0

     negative rho (up, down):  3.539E-01 0.000E+00

     total cpu time spent up to now is       60.7 secs

     total energy              =      38.12962475 Ry
     Harris-Foulkes estimate   =    -353.89655201 Ry
     estimated scf accuracy    <      31.18300680 Ry

     End of self-consistent calculation

     convergence NOT achieved after 100 iterations: stopping

     Writing output data file pwscf.save
 
     init_run     :      0.17s CPU      0.19s WALL (       1 calls)
     electrons    :     42.00s CPU     50.67s WALL (      18 calls)
     update_pot   :      4.40s CPU      6.64s WALL (      17 calls)
     forces       :      0.83s CPU      0.87s WALL (      17 calls)

     Called by init_run:
     wfcinit      :      0.01s CPU      0.02s WALL (       1 calls)
     potinit      :      0.05s CPU      0.05s WALL (       1 calls)

     Called by electrons:
     c_bands      :     19.99s CPU     21.32s WALL (     675 calls)
     sum_band     :      4.36s CPU      4.63s WALL (     675 calls)
     v_of_rho     :      9.62s CPU     10.20s WALL (     693 calls)
     mix_rho      :      6.13s CPU     10.58s WALL (     675 calls)

     Called by c_bands:
     init_us_2    :      0.10s CPU      0.13s WALL (    1351 calls)
     cegterg      :     19.75s CPU     20.72s WALL (     675 calls)

     Called by sum_band:

     Called by *egterg:
     h_psi        :     16.71s CPU     17.48s WALL (    2679 calls)
     g_psi        :      0.15s CPU      0.15s WALL (    2003 calls)
     cdiaghg      :      1.16s CPU      1.25s WALL (    2661 calls)

     Called by h_psi:
     h_psi:pot    :     16.63s CPU     17.39s WALL (    2679 calls)
     h_psi:calbec :      0.89s CPU      0.95s WALL (    2679 calls)
     vloc_psi     :     15.68s CPU     16.38s WALL (    2679 calls)
     add_vuspsi   :      0.04s CPU      0.04s WALL (    2679 calls)

     General routines
     calbec       :      0.98s CPU      1.06s WALL (    2763 calls)
     fft          :      6.46s CPU      6.80s WALL (    7657 calls)
     fftw         :     17.42s CPU     18.30s WALL (   36818 calls)
     davcio       :      0.80s CPU      3.70s WALL (   11911 calls)
 
     Parallel routines
     fft_scatter  :     10.74s CPU     11.69s WALL (   44475 calls)
 
     PWSCF        :  0m48.38s CPU     1m 0.85s WALL

 
   This run was terminated on:  18:29:18  13Feb2018            

=------------------------------------------------------------------------------=
   JOB DONE.
=------------------------------------------------------------------------------=
