
     Program PWSCF v.6.0 (svn rev. 13079) starts on  3Aug2017 at 19:55:34 

     This program is part of the open-source Quantum ESPRESSO suite
     for quantum simulation of materials; please cite
         "P. Giannozzi et al., J. Phys.:Condens. Matter 21 395502 (2009);
          URL http://www.quantum-espresso.org", 
     in publications or presentations arising from this work. More details at
     http://www.quantum-espresso.org/quote

     Parallel version (MPI), running on    10 processors
     R & G space division:  proc/nbgrp/npool/nimage =      10
     Reading input from input/multi/minchecks-Gold5-416.in

     Current dimensions of program PWSCF are:
     Max number of different atomic species (ntypx) = 10
     Max number of k-points (npk) =  40000
     Max angular momentum in pseudopotentials (lmaxx) =  3
     Message from routine iosys:
     pot_extrapolation='second-order' not available, using 'atomic'
     Message from routine iosys:
     wfc_extrapolation='second-order' not available, using 'atomic'

     Subspace diagonalization in iterative solution of the eigenvalue problem:
     a serial algorithm will be used

 
     Parallelization info
     --------------------
     sticks:   dense  smooth     PW     G-vecs:    dense   smooth      PW
     Min         380     380     94                17748    17748    2208
     Max         381     381     95                17753    17753    2213
     Sum        3809    3809    949               177509   177509   22119
 


     bravais-lattice index     =            1
     lattice parameter (alat)  =      20.0000  a.u.
     unit-cell volume          =    8000.0000 (a.u.)^3
     number of atoms/cell      =            5
     number of atomic types    =            1
     number of electrons       =        55.00
     number of Kohn-Sham states=           34
     kinetic-energy cutoff     =      30.0000  Ry
     charge density cutoff     =     120.0000  Ry
     convergence threshold     =      1.0E-08
     mixing beta               =       0.7000
     number of iterations used =            8  plain     mixing
     Exchange-correlation      = BLYP ( 1  3  1  3 0 0)
     nstep                     =           50


     celldm(1)=  20.000000  celldm(2)=   0.000000  celldm(3)=   0.000000
     celldm(4)=   0.000000  celldm(5)=   0.000000  celldm(6)=   0.000000

     crystal axes: (cart. coord. in units of alat)
               a(1) = (   1.000000   0.000000   0.000000 )  
               a(2) = (   0.000000   1.000000   0.000000 )  
               a(3) = (   0.000000   0.000000   1.000000 )  

     reciprocal axes: (cart. coord. in units 2 pi/alat)
               b(1) = (  1.000000  0.000000  0.000000 )  
               b(2) = (  0.000000  1.000000  0.000000 )  
               b(3) = (  0.000000  0.000000  1.000000 )  


     PseudoPot. # 1 for Au read from file:
     ./Au.blyp-d-hgh.UPF
     MD5 check sum: c10d8bae01f806c36a1643a1c69a8479
     Pseudo is Norm-conserving, Zval = 11.0
     Generated in analytical, separable form
     Using radial grid of 1279 points,  6 beta functions with: 
                l(1) =   0
                l(2) =   0
                l(3) =   1
                l(4) =   1
                l(5) =   2
                l(6) =   2

     atomic species   valence    mass     pseudopotential
        Au            11.00    28.08600     Au( 1.00)

     No symmetry found



   Cartesian axes

     site n.     atom                  positions (alat units)
         1           Au  tau(   1) = (  -0.0942591   0.1354819  -0.0537612  )
         2           Au  tau(   2) = (  -0.0429144   0.1891364   0.1907428  )
         3           Au  tau(   3) = (   0.1697394   0.0976359   0.0145664  )
         4           Au  tau(   4) = (   0.1951840   0.1808959   0.2856011  )
         5           Au  tau(   5) = (   0.3797682   0.0633649   0.1618137  )

     number of k points=     1  Marzari-Vanderbilt smearing, width (Ry)=  0.0250
                       cart. coord. in units 2pi/alat
        k(    1) = (   0.0000000   0.0000000   0.0000000), wk =   2.0000000

     Dense  grid:   177509 G-vectors     FFT dimensions: (  72,  72,  72)

     Estimated max dynamical RAM per process >      15.04Mb

     Estimated total allocated dynamical RAM >     150.39Mb

     Initial potential from superposition of free atoms
     Check: negative starting charge=   -0.006295

     starting charge   54.99940, renormalised to   55.00000

     negative rho (up, down):  6.295E-03 0.000E+00
     Starting wfc are   45 randomized atomic wfcs

     total cpu time spent up to now is        0.3 secs

     per-process dynamical memory:    41.0 Mb

     Self-consistent Calculation

     iteration #  1     ecut=    30.00 Ry     beta=0.70
     Davidson diagonalization with overlap
     ethr =  1.00E-02,  avg # of iterations =  3.0

     Threshold (ethr) on eigenvalues was too large:
     Diagonalizing with lowered threshold

     Davidson diagonalization with overlap
     ethr =  3.87E-04,  avg # of iterations =  5.0

     negative rho (up, down):  8.592E-04 0.000E+00

     total cpu time spent up to now is        0.7 secs

     total energy              =    -329.37090997 Ry
     Harris-Foulkes estimate   =    -329.52938891 Ry
     estimated scf accuracy    <       0.26546830 Ry

     iteration #  2     ecut=    30.00 Ry     beta=0.70
     Davidson diagonalization with overlap
     ethr =  4.83E-04,  avg # of iterations =  3.0

     negative rho (up, down):  3.807E-04 0.000E+00

     total cpu time spent up to now is        0.9 secs

     total energy              =    -329.40402059 Ry
     Harris-Foulkes estimate   =    -329.54637792 Ry
     estimated scf accuracy    <       0.29367102 Ry

     iteration #  3     ecut=    30.00 Ry     beta=0.70
     Davidson diagonalization with overlap
     ethr =  4.83E-04,  avg # of iterations =  2.0

     negative rho (up, down):  1.394E-04 0.000E+00

     total cpu time spent up to now is        1.1 secs

     total energy              =    -329.46439572 Ry
     Harris-Foulkes estimate   =    -329.48842676 Ry
     estimated scf accuracy    <       0.06213196 Ry

     iteration #  4     ecut=    30.00 Ry     beta=0.70
     Davidson diagonalization with overlap
     ethr =  1.13E-04,  avg # of iterations =  2.0

     negative rho (up, down):  4.133E-06 0.000E+00

     total cpu time spent up to now is        1.3 secs

     total energy              =    -329.47560902 Ry
     Harris-Foulkes estimate   =    -329.47664392 Ry
     estimated scf accuracy    <       0.00257709 Ry

     iteration #  5     ecut=    30.00 Ry     beta=0.70
     Davidson diagonalization with overlap
     ethr =  4.69E-06,  avg # of iterations =  6.0

     total cpu time spent up to now is        1.6 secs

     total energy              =    -329.47622662 Ry
     Harris-Foulkes estimate   =    -329.47709273 Ry
     estimated scf accuracy    <       0.00229900 Ry

     iteration #  6     ecut=    30.00 Ry     beta=0.70
     Davidson diagonalization with overlap
     ethr =  4.18E-06,  avg # of iterations =  2.0

     total cpu time spent up to now is        1.8 secs

     total energy              =    -329.47657993 Ry
     Harris-Foulkes estimate   =    -329.47670944 Ry
     estimated scf accuracy    <       0.00032358 Ry

     iteration #  7     ecut=    30.00 Ry     beta=0.70
     Davidson diagonalization with overlap
     ethr =  5.88E-07,  avg # of iterations =  2.0

     total cpu time spent up to now is        2.0 secs

     total energy              =    -329.47664104 Ry
     Harris-Foulkes estimate   =    -329.47665906 Ry
     estimated scf accuracy    <       0.00004393 Ry

     iteration #  8     ecut=    30.00 Ry     beta=0.70
     Davidson diagonalization with overlap
     ethr =  7.99E-08,  avg # of iterations =  2.0

     total cpu time spent up to now is        2.3 secs

     total energy              =    -329.47665031 Ry
     Harris-Foulkes estimate   =    -329.47665541 Ry
     estimated scf accuracy    <       0.00001280 Ry

     iteration #  9     ecut=    30.00 Ry     beta=0.70
     Davidson diagonalization with overlap
     ethr =  2.33E-08,  avg # of iterations =  2.0

     total cpu time spent up to now is        2.5 secs

     total energy              =    -329.47665258 Ry
     Harris-Foulkes estimate   =    -329.47665334 Ry
     estimated scf accuracy    <       0.00000116 Ry

     iteration # 10     ecut=    30.00 Ry     beta=0.70
     Davidson diagonalization with overlap
     ethr =  2.12E-09,  avg # of iterations =  2.0

     total cpu time spent up to now is        2.7 secs

     total energy              =    -329.47665281 Ry
     Harris-Foulkes estimate   =    -329.47665299 Ry
     estimated scf accuracy    <       0.00000030 Ry

     iteration # 11     ecut=    30.00 Ry     beta=0.70
     Davidson diagonalization with overlap
     ethr =  5.49E-10,  avg # of iterations =  2.0

     total cpu time spent up to now is        2.9 secs

     total energy              =    -329.47665284 Ry
     Harris-Foulkes estimate   =    -329.47665288 Ry
     estimated scf accuracy    <       0.00000003 Ry

     iteration # 12     ecut=    30.00 Ry     beta=0.70
     Davidson diagonalization with overlap
     ethr =  5.07E-11,  avg # of iterations =  3.0

     total cpu time spent up to now is        3.2 secs

     total energy              =    -329.47665281 Ry
     Harris-Foulkes estimate   =    -329.47665285 Ry
     estimated scf accuracy    <       0.00000001 Ry

     iteration # 13     ecut=    30.00 Ry     beta=0.70
     Davidson diagonalization with overlap
     ethr =  2.00E-11,  avg # of iterations =  2.0

     total cpu time spent up to now is        3.4 secs

     End of self-consistent calculation

          k = 0.0000 0.0000 0.0000 ( 22119 PWs)   bands (ev):

    -8.0571  -7.5167  -7.4879  -7.1007  -6.8214  -6.6954  -6.5616  -6.3591
    -6.2124  -6.0232  -5.8099  -5.6482  -5.6286  -5.5737  -5.4367  -5.4143
    -5.3365  -5.2147  -5.1984  -5.1764  -5.1372  -5.1163  -5.0702  -4.8971
    -4.8172  -4.7895  -4.4110  -3.7898  -2.7307  -2.1426  -0.4981  -0.2067
     0.3544   0.6680

     the Fermi energy is    -3.7677 ev

!    total energy              =    -329.47665282 Ry
     Harris-Foulkes estimate   =    -329.47665281 Ry
     estimated scf accuracy    <          3.1E-09 Ry

     The total energy is the sum of the following terms:

     one-electron contribution =    -592.70190362 Ry
     hartree contribution      =     317.89861895 Ry
     xc contribution           =     -51.36204846 Ry
     ewald contribution        =      -3.30911269 Ry
     smearing contrib. (-TS)   =      -0.00220699 Ry

     convergence has been achieved in  13 iterations

     Forces acting on atoms (Ry/au):

     atom    1 type  1   force =     0.02874495   -0.00279264    0.00585311
     atom    2 type  1   force =     0.00633104   -0.00189997   -0.00987796
     atom    3 type  1   force =    -0.02617519    0.00682195    0.01901587
     atom    4 type  1   force =    -0.00633687    0.00061761   -0.00110961
     atom    5 type  1   force =    -0.00256393   -0.00274695   -0.01388141

     Total force =     0.048492     Total SCF correction =     0.000253

     BFGS Geometry Optimization

     number of scf cycles    =   1
     number of bfgs steps    =   0

     energy   new            =    -329.4766528173 Ry

     new trust radius        =       0.0330648270 bohr
     new conv_thr            =       0.0000000100 Ry


ATOMIC_POSITIONS (bohr)
Au      -1.856437054   2.706845360  -1.069369894
Au      -0.851957961   3.780827028   3.804977043
Au       3.368611811   1.959539954   0.310342867
Au       3.897343135   3.618535610   5.710911391
Au       7.592800070   1.264550047   3.222392593



     Writing output data file pwscf.save
     Check: negative starting charge=   -0.006295
     NEW-OLD atomic charge density approx. for the potential
     Check: negative starting charge=   -0.006287

     negative rho (up, down):  1.855E-04 0.000E+00

     total cpu time spent up to now is        3.6 secs

     per-process dynamical memory:    42.9 Mb

     Self-consistent Calculation

     iteration #  1     ecut=    30.00 Ry     beta=0.70
     Davidson diagonalization with overlap
     ethr =  1.00E-06,  avg # of iterations =  4.0

     negative rho (up, down):  3.235E-06 0.000E+00

     total cpu time spent up to now is        4.0 secs

     total energy              =    -329.47882409 Ry
     Harris-Foulkes estimate   =    -329.47881008 Ry
     estimated scf accuracy    <       0.00014354 Ry

     iteration #  2     ecut=    30.00 Ry     beta=0.70
     Davidson diagonalization with overlap
     ethr =  2.61E-07,  avg # of iterations =  3.0

     negative rho (up, down):  8.121E-07 0.000E+00

     total cpu time spent up to now is        4.2 secs

     total energy              =    -329.47879467 Ry
     Harris-Foulkes estimate   =    -329.47895693 Ry
     estimated scf accuracy    <       0.00043042 Ry

     iteration #  3     ecut=    30.00 Ry     beta=0.70
     Davidson diagonalization with overlap
     ethr =  2.61E-07,  avg # of iterations =  2.0

     total cpu time spent up to now is        4.4 secs

     total energy              =    -329.47887902 Ry
     Harris-Foulkes estimate   =    -329.47888926 Ry
     estimated scf accuracy    <       0.00003898 Ry

     iteration #  4     ecut=    30.00 Ry     beta=0.70
     Davidson diagonalization with overlap
     ethr =  7.09E-08,  avg # of iterations =  2.0

     total cpu time spent up to now is        4.6 secs

     total energy              =    -329.47888710 Ry
     Harris-Foulkes estimate   =    -329.47888820 Ry
     estimated scf accuracy    <       0.00000540 Ry

     iteration #  5     ecut=    30.00 Ry     beta=0.70
     Davidson diagonalization with overlap
     ethr =  9.82E-09,  avg # of iterations =  2.0

     total cpu time spent up to now is        4.8 secs

     total energy              =    -329.47888787 Ry
     Harris-Foulkes estimate   =    -329.47888858 Ry
     estimated scf accuracy    <       0.00000081 Ry

     iteration #  6     ecut=    30.00 Ry     beta=0.70
     Davidson diagonalization with overlap
     ethr =  1.47E-09,  avg # of iterations =  2.0

     total cpu time spent up to now is        5.0 secs

     total energy              =    -329.47888801 Ry
     Harris-Foulkes estimate   =    -329.47888810 Ry
     estimated scf accuracy    <       0.00000012 Ry

     iteration #  7     ecut=    30.00 Ry     beta=0.70
     Davidson diagonalization with overlap
     ethr =  2.16E-10,  avg # of iterations =  2.0

     total cpu time spent up to now is        5.3 secs

     total energy              =    -329.47888805 Ry
     Harris-Foulkes estimate   =    -329.47888805 Ry
     estimated scf accuracy    <       0.00000004 Ry

     iteration #  8     ecut=    30.00 Ry     beta=0.70
     Davidson diagonalization with overlap
     ethr =  7.52E-11,  avg # of iterations =  2.0

     total cpu time spent up to now is        5.4 secs

     End of self-consistent calculation

          k = 0.0000 0.0000 0.0000 ( 22119 PWs)   bands (ev):

    -8.0817  -7.5398  -7.5159  -7.1291  -6.8370  -6.7081  -6.5657  -6.3796
    -6.2348  -6.0258  -5.8240  -5.6615  -5.6412  -5.5836  -5.4377  -5.4157
    -5.3360  -5.2185  -5.1954  -5.1759  -5.1423  -5.1154  -5.0763  -4.8926
    -4.8171  -4.7845  -4.4109  -3.7844  -2.7109  -2.1361  -0.5032  -0.2044
     0.3633   0.6724

     the Fermi energy is    -3.7615 ev

!    total energy              =    -329.47888801 Ry
     Harris-Foulkes estimate   =    -329.47888806 Ry
     estimated scf accuracy    <          1.3E-09 Ry

     The total energy is the sum of the following terms:

     one-electron contribution =    -594.68740444 Ry
     hartree contribution      =     318.87822463 Ry
     xc contribution           =     -51.36684726 Ry
     ewald contribution        =      -2.30048492 Ry
     smearing contrib. (-TS)   =      -0.00237603 Ry

     convergence has been achieved in   8 iterations

     Forces acting on atoms (Ry/au):

     atom    1 type  1   force =     0.02626717   -0.00276369    0.00266137
     atom    2 type  1   force =     0.00530540   -0.00113790   -0.00716735
     atom    3 type  1   force =    -0.02386959    0.00608176    0.01844203
     atom    4 type  1   force =    -0.00423069    0.00014461   -0.00051393
     atom    5 type  1   force =    -0.00347230   -0.00232478   -0.01342211

     Total force =     0.044138     Total SCF correction =     0.000138

     number of scf cycles    =   2
     number of bfgs steps    =   1

     energy   old            =    -329.4766528173 Ry
     energy   new            =    -329.4788880092 Ry

     CASE: energy  _new < energy  _old


     WARNING: bfgs curvature condition failed, Theta= 0.883
     new trust radius        =       0.0363713097 bohr
     new conv_thr            =       0.0000000022 Ry


ATOMIC_POSITIONS (bohr)
Au      -1.825248002   2.703625640  -1.065425324
Au      -0.845518336   3.779301242   3.795923922
Au       3.340255194   1.966805721   0.331929508
Au       3.891864288   3.618829865   5.710155178
Au       7.589006856   1.261735533   3.206670716



     Writing output data file pwscf.save
     Check: negative starting charge=   -0.006287
     NEW-OLD atomic charge density approx. for the potential
     Check: negative starting charge=   -0.006273

     negative rho (up, down):  2.246E-04 0.000E+00

     total cpu time spent up to now is        5.7 secs

     per-process dynamical memory:    50.7 Mb

     Self-consistent Calculation

     iteration #  1     ecut=    30.00 Ry     beta=0.70
     Davidson diagonalization with overlap
     ethr =  1.00E-06,  avg # of iterations =  4.0

     negative rho (up, down):  4.665E-06 0.000E+00

     total cpu time spent up to now is        6.0 secs

     total energy              =    -329.48101722 Ry
     Harris-Foulkes estimate   =    -329.48098903 Ry
     estimated scf accuracy    <       0.00016331 Ry

     iteration #  2     ecut=    30.00 Ry     beta=0.70
     Davidson diagonalization with overlap
     ethr =  2.97E-07,  avg # of iterations =  3.0

     negative rho (up, down):  1.158E-06 0.000E+00

     total cpu time spent up to now is        6.3 secs

     total energy              =    -329.48098948 Ry
     Harris-Foulkes estimate   =    -329.48115716 Ry
     estimated scf accuracy    <       0.00043158 Ry

     iteration #  3     ecut=    30.00 Ry     beta=0.70
     Davidson diagonalization with overlap
     ethr =  2.97E-07,  avg # of iterations =  2.0

     total cpu time spent up to now is        6.5 secs

     total energy              =    -329.48107636 Ry
     Harris-Foulkes estimate   =    -329.48109080 Ry
     estimated scf accuracy    <       0.00005091 Ry

     iteration #  4     ecut=    30.00 Ry     beta=0.70
     Davidson diagonalization with overlap
     ethr =  9.26E-08,  avg # of iterations =  2.0

     total cpu time spent up to now is        6.7 secs

     total energy              =    -329.48108622 Ry
     Harris-Foulkes estimate   =    -329.48108794 Ry
     estimated scf accuracy    <       0.00000621 Ry

     iteration #  5     ecut=    30.00 Ry     beta=0.70
     Davidson diagonalization with overlap
     ethr =  1.13E-08,  avg # of iterations =  2.0

     total cpu time spent up to now is        6.9 secs

     total energy              =    -329.48108724 Ry
     Harris-Foulkes estimate   =    -329.48108795 Ry
     estimated scf accuracy    <       0.00000102 Ry

     iteration #  6     ecut=    30.00 Ry     beta=0.70
     Davidson diagonalization with overlap
     ethr =  1.85E-09,  avg # of iterations =  2.0

     total cpu time spent up to now is        7.1 secs

     total energy              =    -329.48108742 Ry
     Harris-Foulkes estimate   =    -329.48108752 Ry
     estimated scf accuracy    <       0.00000014 Ry

     iteration #  7     ecut=    30.00 Ry     beta=0.70
     Davidson diagonalization with overlap
     ethr =  2.56E-10,  avg # of iterations =  2.0

     total cpu time spent up to now is        7.3 secs

     total energy              =    -329.48108731 Ry
     Harris-Foulkes estimate   =    -329.48108747 Ry
     estimated scf accuracy    <       0.00000005 Ry

     iteration #  8     ecut=    30.00 Ry     beta=0.70
     Davidson diagonalization with overlap
     ethr =  8.59E-11,  avg # of iterations =  2.0

     total cpu time spent up to now is        7.5 secs

     End of self-consistent calculation

          k = 0.0000 0.0000 0.0000 ( 22119 PWs)   bands (ev):

    -8.1139  -7.5705  -7.5411  -7.1589  -6.8539  -6.7190  -6.5751  -6.4008
    -6.2578  -6.0276  -5.8404  -5.6754  -5.6541  -5.5943  -5.4389  -5.4165
    -5.3351  -5.2217  -5.1926  -5.1754  -5.1488  -5.1140  -5.0806  -4.8884
    -4.8173  -4.7784  -4.4112  -3.7790  -2.6887  -2.1304  -0.5088  -0.2019
     0.3729   0.6777

     the Fermi energy is    -3.7551 ev

!    total energy              =    -329.48108731 Ry
     Harris-Foulkes estimate   =    -329.48108732 Ry
     estimated scf accuracy    <          1.5E-09 Ry

     The total energy is the sum of the following terms:

     one-electron contribution =    -596.79769757 Ry
     hartree contribution      =     319.91880415 Ry
     xc contribution           =     -51.37215572 Ry
     ewald contribution        =      -1.22747678 Ry
     smearing contrib. (-TS)   =      -0.00256138 Ry

     convergence has been achieved in   8 iterations

     Forces acting on atoms (Ry/au):

     atom    1 type  1   force =     0.02417177   -0.00292050   -0.00027398
     atom    2 type  1   force =     0.00402271   -0.00021889   -0.00443024
     atom    3 type  1   force =    -0.02149422    0.00514375    0.01746830
     atom    4 type  1   force =    -0.00239420   -0.00012999    0.00023228
     atom    5 type  1   force =    -0.00430605   -0.00187436   -0.01299637

     Total force =     0.040238     Total SCF correction =     0.000150

     number of scf cycles    =   3
     number of bfgs steps    =   2

     energy   old            =    -329.4788880092 Ry
     energy   new            =    -329.4810873059 Ry

     CASE: energy  _new < energy  _old

     new trust radius        =       0.0545569646 bohr
     new conv_thr            =       0.0000000022 Ry


ATOMIC_POSITIONS (bohr)
Au      -1.778225170   2.698216486  -1.063391138
Au      -0.837073753   3.778208389   3.785408379
Au       3.298212865   1.977085975   0.365144284
Au       3.885751589   3.618908200   5.710043977
Au       7.581694470   1.257878950   3.182048497



     Writing output data file pwscf.save
     Check: negative starting charge=   -0.006273
     NEW-OLD atomic charge density approx. for the potential
     Check: negative starting charge=   -0.006260

     negative rho (up, down):  5.240E-04 0.000E+00

     total cpu time spent up to now is        7.7 secs

     per-process dynamical memory:    50.7 Mb

     Self-consistent Calculation

     iteration #  1     ecut=    30.00 Ry     beta=0.70
     Davidson diagonalization with overlap
     ethr =  1.00E-06,  avg # of iterations =  5.0

     negative rho (up, down):  2.195E-05 0.000E+00

     total cpu time spent up to now is        8.1 secs

     total energy              =    -329.48380640 Ry
     Harris-Foulkes estimate   =    -329.48360275 Ry
     estimated scf accuracy    <       0.00035158 Ry

     iteration #  2     ecut=    30.00 Ry     beta=0.70
     Davidson diagonalization with overlap
     ethr =  6.39E-07,  avg # of iterations =  4.0

     negative rho (up, down):  6.914E-06 0.000E+00

     total cpu time spent up to now is        8.4 secs

     total energy              =    -329.48376232 Ry
     Harris-Foulkes estimate   =    -329.48408126 Ry
     estimated scf accuracy    <       0.00079238 Ry

     iteration #  3     ecut=    30.00 Ry     beta=0.70
     Davidson diagonalization with overlap
     ethr =  6.39E-07,  avg # of iterations =  2.0

     negative rho (up, down):  1.239E-07 0.000E+00

     total cpu time spent up to now is        8.6 secs

     total energy              =    -329.48392695 Ry
     Harris-Foulkes estimate   =    -329.48396464 Ry
     estimated scf accuracy    <       0.00012642 Ry

     iteration #  4     ecut=    30.00 Ry     beta=0.70
     Davidson diagonalization with overlap
     ethr =  2.30E-07,  avg # of iterations =  2.0

     total cpu time spent up to now is        8.8 secs

     total energy              =    -329.48395136 Ry
     Harris-Foulkes estimate   =    -329.48395474 Ry
     estimated scf accuracy    <       0.00001309 Ry

     iteration #  5     ecut=    30.00 Ry     beta=0.70
     Davidson diagonalization with overlap
     ethr =  2.38E-08,  avg # of iterations =  2.0

     total cpu time spent up to now is        9.0 secs

     total energy              =    -329.48395407 Ry
     Harris-Foulkes estimate   =    -329.48395511 Ry
     estimated scf accuracy    <       0.00000249 Ry

     iteration #  6     ecut=    30.00 Ry     beta=0.70
     Davidson diagonalization with overlap
     ethr =  4.52E-09,  avg # of iterations =  2.0

     total cpu time spent up to now is        9.2 secs

     total energy              =    -329.48395428 Ry
     Harris-Foulkes estimate   =    -329.48395471 Ry
     estimated scf accuracy    <       0.00000030 Ry

     iteration #  7     ecut=    30.00 Ry     beta=0.70
     Davidson diagonalization with overlap
     ethr =  5.40E-10,  avg # of iterations =  2.0

     total cpu time spent up to now is        9.4 secs

     total energy              =    -329.48395438 Ry
     Harris-Foulkes estimate   =    -329.48395438 Ry
     estimated scf accuracy    <       0.00000011 Ry

     iteration #  8     ecut=    30.00 Ry     beta=0.70
     Davidson diagonalization with overlap
     ethr =  1.91E-10,  avg # of iterations =  2.0

     total cpu time spent up to now is        9.6 secs

     total energy              =    -329.48395434 Ry
     Harris-Foulkes estimate   =    -329.48395441 Ry
     estimated scf accuracy    <          4.5E-09 Ry

     iteration #  9     ecut=    30.00 Ry     beta=0.70
     Davidson diagonalization with overlap
     ethr =  8.24E-12,  avg # of iterations =  3.0

     total cpu time spent up to now is        9.9 secs

     End of self-consistent calculation

          k = 0.0000 0.0000 0.0000 ( 22119 PWs)   bands (ev):

    -8.1705  -7.6189  -7.5749  -7.2008  -6.8782  -6.7308  -6.5992  -6.4280
    -6.2891  -6.0296  -5.8669  -5.6954  -5.6715  -5.6109  -5.4409  -5.4164
    -5.3330  -5.2245  -5.1897  -5.1753  -5.1588  -5.1140  -5.0805  -4.8840
    -4.8180  -4.7677  -4.4125  -3.7715  -2.6542  -2.1244  -0.5170  -0.1985
     0.3872   0.6862

     the Fermi energy is    -3.7463 ev

!    total energy              =    -329.48395428 Ry
     Harris-Foulkes estimate   =    -329.48395434 Ry
     estimated scf accuracy    <          1.5E-09 Ry

     The total energy is the sum of the following terms:

     one-electron contribution =    -599.83720063 Ry
     hartree contribution      =     321.41713753 Ry
     xc contribution           =     -51.38023103 Ry
     ewald contribution        =       0.31916826 Ry
     smearing contrib. (-TS)   =      -0.00282841 Ry

     convergence has been achieved in   9 iterations

     Forces acting on atoms (Ry/au):

     atom    1 type  1   force =     0.02090631   -0.00289618   -0.00374892
     atom    2 type  1   force =     0.00169633    0.00127772   -0.00044266
     atom    3 type  1   force =    -0.01645640    0.00299855    0.01456925
     atom    4 type  1   force =    -0.00052124   -0.00021544    0.00176925
     atom    5 type  1   force =    -0.00562500   -0.00116464   -0.01214692

     Total force =     0.033768     Total SCF correction =     0.000162

     number of scf cycles    =   4
     number of bfgs steps    =   3

     energy   old            =    -329.4810873059 Ry
     energy   new            =    -329.4839542766 Ry

     CASE: energy  _new < energy  _old

     new trust radius        =       0.0818354469 bohr
     new conv_thr            =       0.0000000021 Ry


ATOMIC_POSITIONS (bohr)
Au      -1.704320296   2.689157750  -1.065563970
Au      -0.826706255   3.778839612   3.774216484
Au       3.235761810   1.990813905   0.416217271
Au       3.878424750   3.618939392   5.712425561
Au       7.567199991   1.252547341   3.141958654



     Writing output data file pwscf.save
     Check: negative starting charge=   -0.006260
     NEW-OLD atomic charge density approx. for the potential
     Check: negative starting charge=   -0.006262

     negative rho (up, down):  1.138E-03 0.000E+00

     total cpu time spent up to now is       10.1 secs

     per-process dynamical memory:    50.7 Mb

     Self-consistent Calculation

     iteration #  1     ecut=    30.00 Ry     beta=0.70
     Davidson diagonalization with overlap
     ethr =  1.00E-06,  avg # of iterations =  9.0

     negative rho (up, down):  8.007E-05 0.000E+00

     total cpu time spent up to now is       10.5 secs

     total energy              =    -329.48692526 Ry
     Harris-Foulkes estimate   =    -329.48616538 Ry
     estimated scf accuracy    <       0.00078572 Ry

     iteration #  2     ecut=    30.00 Ry     beta=0.70
     Davidson diagonalization with overlap
     ethr =  1.43E-06,  avg # of iterations =  5.0

     negative rho (up, down):  2.954E-05 0.000E+00

     total cpu time spent up to now is       10.8 secs

     total energy              =    -329.48685607 Ry
     Harris-Foulkes estimate   =    -329.48746442 Ry
     estimated scf accuracy    <       0.00145076 Ry

     iteration #  3     ecut=    30.00 Ry     beta=0.70
     Davidson diagonalization with overlap
     ethr =  1.43E-06,  avg # of iterations =  3.0

     negative rho (up, down):  1.447E-06 0.000E+00

     total cpu time spent up to now is       11.0 secs

     total energy              =    -329.48717047 Ry
     Harris-Foulkes estimate   =    -329.48726856 Ry
     estimated scf accuracy    <       0.00032190 Ry

     iteration #  4     ecut=    30.00 Ry     beta=0.70
     Davidson diagonalization with overlap
     ethr =  5.85E-07,  avg # of iterations =  2.0

     total cpu time spent up to now is       11.2 secs

     total energy              =    -329.48723240 Ry
     Harris-Foulkes estimate   =    -329.48723838 Ry
     estimated scf accuracy    <       0.00002670 Ry

     iteration #  5     ecut=    30.00 Ry     beta=0.70
     Davidson diagonalization with overlap
     ethr =  4.85E-08,  avg # of iterations =  3.0

     total cpu time spent up to now is       11.4 secs

     total energy              =    -329.48723785 Ry
     Harris-Foulkes estimate   =    -329.48724028 Ry
     estimated scf accuracy    <       0.00000528 Ry

     iteration #  6     ecut=    30.00 Ry     beta=0.70
     Davidson diagonalization with overlap
     ethr =  9.60E-09,  avg # of iterations =  2.0

     total cpu time spent up to now is       11.7 secs

     total energy              =    -329.48723872 Ry
     Harris-Foulkes estimate   =    -329.48723916 Ry
     estimated scf accuracy    <       0.00000056 Ry

     iteration #  7     ecut=    30.00 Ry     beta=0.70
     Davidson diagonalization with overlap
     ethr =  1.03E-09,  avg # of iterations =  2.0

     total cpu time spent up to now is       11.9 secs

     total energy              =    -329.48723878 Ry
     Harris-Foulkes estimate   =    -329.48723892 Ry
     estimated scf accuracy    <       0.00000023 Ry

     iteration #  8     ecut=    30.00 Ry     beta=0.70
     Davidson diagonalization with overlap
     ethr =  4.17E-10,  avg # of iterations =  2.0

     total cpu time spent up to now is       12.1 secs

     total energy              =    -329.48723887 Ry
     Harris-Foulkes estimate   =    -329.48723884 Ry
     estimated scf accuracy    <       0.00000002 Ry

     iteration #  9     ecut=    30.00 Ry     beta=0.70
     Davidson diagonalization with overlap
     ethr =  2.94E-11,  avg # of iterations =  2.0

     total cpu time spent up to now is       12.3 secs

     total energy              =    -329.48723885 Ry
     Harris-Foulkes estimate   =    -329.48723887 Ry
     estimated scf accuracy    <          5.3E-09 Ry

     iteration # 10     ecut=    30.00 Ry     beta=0.70
     Davidson diagonalization with overlap
     ethr =  9.70E-12,  avg # of iterations =  2.0

     total cpu time spent up to now is       12.5 secs

     End of self-consistent calculation

          k = 0.0000 0.0000 0.0000 ( 22119 PWs)   bands (ev):

    -8.2734  -7.6920  -7.6253  -7.2584  -6.9127  -6.7407  -6.6568  -6.4592
    -6.3290  -6.0335  -5.9101  -5.7246  -5.6940  -5.6371  -5.4434  -5.4139
    -5.3289  -5.2238  -5.1909  -5.1775  -5.1698  -5.1173  -5.0667  -4.8814
    -4.8186  -4.7483  -4.4148  -3.7622  -2.5987  -2.1190  -0.5290  -0.1945
     0.4103   0.7008

     the Fermi energy is    -3.7354 ev

!    total energy              =    -329.48723885 Ry
     Harris-Foulkes estimate   =    -329.48723885 Ry
     estimated scf accuracy    <          9.2E-10 Ry

     The total energy is the sum of the following terms:

     one-electron contribution =    -604.28156492 Ry
     hartree contribution      =     323.60797219 Ry
     xc contribution           =     -51.39326835 Ry
     ewald contribution        =       2.58278205 Ry
     smearing contrib. (-TS)   =      -0.00315981 Ry

     convergence has been achieved in  10 iterations

     Forces acting on atoms (Ry/au):

     atom    1 type  1   force =     0.01260372   -0.00289164   -0.00915018
     atom    2 type  1   force =    -0.00137256    0.00338821    0.00435083
     atom    3 type  1   force =    -0.00703098    0.00022853    0.01255526
     atom    4 type  1   force =     0.00247398   -0.00036881    0.00353119
     atom    5 type  1   force =    -0.00667416   -0.00035629   -0.01128710

     Total force =     0.026099     Total SCF correction =     0.000113

     number of scf cycles    =   5
     number of bfgs steps    =   4

     energy   old            =    -329.4839542766 Ry
     energy   new            =    -329.4872388466 Ry

     CASE: energy  _new < energy  _old

     new trust radius        =       0.1227531703 bohr
     new conv_thr            =       0.0000000013 Ry


ATOMIC_POSITIONS (bohr)
Au      -1.594002342   2.673487905  -1.080818936
Au      -0.815423719   3.784513455   3.765139077
Au       3.147984047   2.008519179   0.500181124
Au       3.872021813   3.618724250   5.720435250
Au       7.539780200   1.245053211   3.074317485



     Writing output data file pwscf.save
     Check: negative starting charge=   -0.006262
     NEW-OLD atomic charge density approx. for the potential
     Check: negative starting charge=   -0.006321

     negative rho (up, down):  2.222E-03 0.000E+00

     total cpu time spent up to now is       12.7 secs

     per-process dynamical memory:    50.7 Mb

     Self-consistent Calculation

     iteration #  1     ecut=    30.00 Ry     beta=0.70
     Davidson diagonalization with overlap
     ethr =  1.00E-06,  avg # of iterations = 11.0

     negative rho (up, down):  2.203E-04 0.000E+00

     total cpu time spent up to now is       13.2 secs

     total energy              =    -329.48892152 Ry
     Harris-Foulkes estimate   =    -329.48784776 Ry
     estimated scf accuracy    <       0.00172930 Ry

     iteration #  2     ecut=    30.00 Ry     beta=0.70
     Davidson diagonalization with overlap
     ethr =  3.14E-06,  avg # of iterations =  8.0

     negative rho (up, down):  8.244E-05 0.000E+00

     total cpu time spent up to now is       13.5 secs

     total energy              =    -329.48894624 Ry
     Harris-Foulkes estimate   =    -329.48988692 Ry
     estimated scf accuracy    <       0.00213789 Ry

     iteration #  3     ecut=    30.00 Ry     beta=0.70
     Davidson diagonalization with overlap
     ethr =  3.14E-06,  avg # of iterations =  3.0

     negative rho (up, down):  8.617E-06 0.000E+00

     total cpu time spent up to now is       13.8 secs

     total energy              =    -329.48942434 Ry
     Harris-Foulkes estimate   =    -329.48967745 Ry
     estimated scf accuracy    <       0.00079237 Ry

     iteration #  4     ecut=    30.00 Ry     beta=0.70
     Davidson diagonalization with overlap
     ethr =  1.44E-06,  avg # of iterations =  2.0

     total cpu time spent up to now is       13.9 secs

     total energy              =    -329.48958160 Ry
     Harris-Foulkes estimate   =    -329.48959272 Ry
     estimated scf accuracy    <       0.00006138 Ry

     iteration #  5     ecut=    30.00 Ry     beta=0.70
     Davidson diagonalization with overlap
     ethr =  1.12E-07,  avg # of iterations =  2.0

     total cpu time spent up to now is       14.2 secs

     total energy              =    -329.48959298 Ry
     Harris-Foulkes estimate   =    -329.48959854 Ry
     estimated scf accuracy    <       0.00001179 Ry

     iteration #  6     ecut=    30.00 Ry     beta=0.70
     Davidson diagonalization with overlap
     ethr =  2.14E-08,  avg # of iterations =  2.0

     total cpu time spent up to now is       14.4 secs

     total energy              =    -329.48959469 Ry
     Harris-Foulkes estimate   =    -329.48959585 Ry
     estimated scf accuracy    <       0.00000123 Ry

     iteration #  7     ecut=    30.00 Ry     beta=0.70
     Davidson diagonalization with overlap
     ethr =  2.24E-09,  avg # of iterations =  2.0

     total cpu time spent up to now is       14.6 secs

     total energy              =    -329.48959479 Ry
     Harris-Foulkes estimate   =    -329.48959510 Ry
     estimated scf accuracy    <       0.00000040 Ry

     iteration #  8     ecut=    30.00 Ry     beta=0.70
     Davidson diagonalization with overlap
     ethr =  7.23E-10,  avg # of iterations =  2.0

     total cpu time spent up to now is       14.8 secs

     total energy              =    -329.48959479 Ry
     Harris-Foulkes estimate   =    -329.48959489 Ry
     estimated scf accuracy    <       0.00000004 Ry

     iteration #  9     ecut=    30.00 Ry     beta=0.70
     Davidson diagonalization with overlap
     ethr =  7.13E-11,  avg # of iterations =  3.0

     total cpu time spent up to now is       15.0 secs

     total energy              =    -329.48959482 Ry
     Harris-Foulkes estimate   =    -329.48959480 Ry
     estimated scf accuracy    <       0.00000001 Ry

     iteration # 10     ecut=    30.00 Ry     beta=0.70
     Davidson diagonalization with overlap
     ethr =  2.51E-11,  avg # of iterations =  3.0

     total cpu time spent up to now is       15.2 secs

     total energy              =    -329.48959481 Ry
     Harris-Foulkes estimate   =    -329.48959483 Ry
     estimated scf accuracy    <          1.7E-09 Ry

     iteration # 11     ecut=    30.00 Ry     beta=0.70
     Davidson diagonalization with overlap
     ethr =  3.09E-12,  avg # of iterations =  2.0

     total cpu time spent up to now is       15.5 secs

     End of self-consistent calculation

          k = 0.0000 0.0000 0.0000 ( 22119 PWs)   bands (ev):

    -8.4558  -7.8017  -7.7037  -7.3291  -6.9529  -6.7866  -6.7260  -6.5008
    -6.3703  -6.0449  -5.9750  -5.7660  -5.7205  -5.6762  -5.4473  -5.4058
    -5.3217  -5.2193  -5.2064  -5.1882  -5.1695  -5.1151  -5.0300  -4.8862
    -4.8164  -4.7183  -4.4215  -3.7518  -2.5109  -2.1188  -0.5462  -0.1893
     0.4476   0.7254

     the Fermi energy is    -3.7228 ev

!    total energy              =    -329.48959481 Ry
     Harris-Foulkes estimate   =    -329.48959481 Ry
     estimated scf accuracy    <          1.1E-10 Ry

     The total energy is the sum of the following terms:

     one-electron contribution =    -610.55277781 Ry
     hartree contribution      =     326.69982498 Ry
     xc contribution           =     -51.41432106 Ry
     ewald contribution        =       5.78127504 Ry
     smearing contrib. (-TS)   =      -0.00359596 Ry

     convergence has been achieved in  11 iterations

     Forces acting on atoms (Ry/au):

     atom    1 type  1   force =    -0.00501054   -0.00124459   -0.01694113
     atom    2 type  1   force =    -0.00529517    0.00618429    0.00939833
     atom    3 type  1   force =     0.00901160   -0.00467472    0.00997328
     atom    4 type  1   force =     0.00688744   -0.00054580    0.00584877
     atom    5 type  1   force =    -0.00559334    0.00028082   -0.00827925

     Total force =     0.029200     Total SCF correction =     0.000054

     number of scf cycles    =   6
     number of bfgs steps    =   5

     energy   old            =    -329.4872388466 Ry
     energy   new            =    -329.4895948137 Ry

     CASE: energy  _new < energy  _old

     new trust radius        =       0.0259551233 bohr
     new conv_thr            =       0.0000000017 Ry


ATOMIC_POSITIONS (bohr)
Au      -1.579330975   2.669821289  -1.097850737
Au      -0.817738886   3.790865504   3.770580072
Au       3.140494314   2.007548955   0.525013179
Au       3.876342901   3.618390717   5.726940392
Au       7.530592645   1.243671536   3.054571093



     Writing output data file pwscf.save
     Check: negative starting charge=   -0.006321
     NEW-OLD atomic charge density approx. for the potential
     Check: negative starting charge=   -0.006326

     negative rho (up, down):  1.463E-04 0.000E+00

     total cpu time spent up to now is       15.7 secs

     per-process dynamical memory:    50.7 Mb

     Self-consistent Calculation

     iteration #  1     ecut=    30.00 Ry     beta=0.70
     Davidson diagonalization with overlap
     ethr =  1.00E-06,  avg # of iterations =  4.0

     negative rho (up, down):  1.984E-06 0.000E+00

     total cpu time spent up to now is       16.1 secs

     total energy              =    -329.49025664 Ry
     Harris-Foulkes estimate   =    -329.49024622 Ry
     estimated scf accuracy    <       0.00011021 Ry

     iteration #  2     ecut=    30.00 Ry     beta=0.70
     Davidson diagonalization with overlap
     ethr =  2.00E-07,  avg # of iterations =  3.0

     negative rho (up, down):  1.862E-07 0.000E+00

     total cpu time spent up to now is       16.3 secs

     total energy              =    -329.49026482 Ry
     Harris-Foulkes estimate   =    -329.49031642 Ry
     estimated scf accuracy    <       0.00010969 Ry

     iteration #  3     ecut=    30.00 Ry     beta=0.70
     Davidson diagonalization with overlap
     ethr =  1.99E-07,  avg # of iterations =  2.0

     total cpu time spent up to now is       16.5 secs

     total energy              =    -329.49028797 Ry
     Harris-Foulkes estimate   =    -329.49030328 Ry
     estimated scf accuracy    <       0.00004466 Ry

     iteration #  4     ecut=    30.00 Ry     beta=0.70
     Davidson diagonalization with overlap
     ethr =  8.12E-08,  avg # of iterations =  2.0

     total cpu time spent up to now is       16.7 secs

     total energy              =    -329.49029676 Ry
     Harris-Foulkes estimate   =    -329.49029788 Ry
     estimated scf accuracy    <       0.00000355 Ry

     iteration #  5     ecut=    30.00 Ry     beta=0.70
     Davidson diagonalization with overlap
     ethr =  6.46E-09,  avg # of iterations =  2.0

     total cpu time spent up to now is       16.9 secs

     total energy              =    -329.49029726 Ry
     Harris-Foulkes estimate   =    -329.49029768 Ry
     estimated scf accuracy    <       0.00000070 Ry

     iteration #  6     ecut=    30.00 Ry     beta=0.70
     Davidson diagonalization with overlap
     ethr =  1.28E-09,  avg # of iterations =  2.0

     total cpu time spent up to now is       17.1 secs

     total energy              =    -329.49029751 Ry
     Harris-Foulkes estimate   =    -329.49029744 Ry
     estimated scf accuracy    <       0.00000010 Ry

     iteration #  7     ecut=    30.00 Ry     beta=0.70
     Davidson diagonalization with overlap
     ethr =  1.76E-10,  avg # of iterations =  2.0

     total cpu time spent up to now is       17.3 secs

     total energy              =    -329.49029744 Ry
     Harris-Foulkes estimate   =    -329.49029754 Ry
     estimated scf accuracy    <       0.00000001 Ry

     iteration #  8     ecut=    30.00 Ry     beta=0.70
     Davidson diagonalization with overlap
     ethr =  2.37E-11,  avg # of iterations =  2.0

     total cpu time spent up to now is       17.6 secs

     total energy              =    -329.49029745 Ry
     Harris-Foulkes estimate   =    -329.49029744 Ry
     estimated scf accuracy    <          1.9E-09 Ry

     iteration #  9     ecut=    30.00 Ry     beta=0.70
     Davidson diagonalization with overlap
     ethr =  3.38E-12,  avg # of iterations =  2.0

     total cpu time spent up to now is       17.8 secs

     End of self-consistent calculation

          k = 0.0000 0.0000 0.0000 ( 22119 PWs)   bands (ev):

    -8.4784  -7.8102  -7.7071  -7.3247  -6.9490  -6.7973  -6.7152  -6.5046
    -6.3654  -6.0444  -5.9837  -5.7711  -5.7259  -5.6813  -5.4471  -5.4020
    -5.3197  -5.2219  -5.2056  -5.1877  -5.1715  -5.1161  -5.0214  -4.8916
    -4.8174  -4.7160  -4.4280  -3.7534  -2.4925  -2.1299  -0.5472  -0.1893
     0.4527   0.7304

     the Fermi energy is    -3.7238 ev

!    total energy              =    -329.49029747 Ry
     Harris-Foulkes estimate   =    -329.49029745 Ry
     estimated scf accuracy    <          2.7E-10 Ry

     The total energy is the sum of the following terms:

     one-electron contribution =    -610.91673258 Ry
     hartree contribution      =     326.87867504 Ry
     xc contribution           =     -51.41499813 Ry
     ewald contribution        =       5.96647309 Ry
     smearing contrib. (-TS)   =      -0.00371490 Ry

     convergence has been achieved in   9 iterations

     Forces acting on atoms (Ry/au):

     atom    1 type  1   force =    -0.00546925   -0.00067436   -0.01441409
     atom    2 type  1   force =    -0.00532775    0.00591374    0.00762296
     atom    3 type  1   force =     0.00830665   -0.00473662    0.00747935
     atom    4 type  1   force =     0.00619123   -0.00049433    0.00588480
     atom    5 type  1   force =    -0.00370088   -0.00000844   -0.00657302

     Total force =     0.025241     Total SCF correction =     0.000085

     number of scf cycles    =   7
     number of bfgs steps    =   6

     energy   old            =    -329.4895948137 Ry
     energy   new            =    -329.4902974726 Ry

     CASE: energy  _new < energy  _old

     new trust radius        =       0.0285506357 bohr
     new conv_thr            =       0.0000000007 Ry


ATOMIC_POSITIONS (bohr)
Au      -1.570818588   2.666362065  -1.123603361
Au      -0.824285794   3.801552312   3.780074873
Au       3.140089856   2.002575865   0.553124451
Au       3.884711041   3.617813783   5.738013447
Au       7.520663486   1.241993976   3.031644590



     Writing output data file pwscf.save
     Check: negative starting charge=   -0.006326
     NEW-OLD atomic charge density approx. for the potential
     Check: negative starting charge=   -0.006326

     negative rho (up, down):  2.332E-04 0.000E+00

     total cpu time spent up to now is       18.0 secs

     per-process dynamical memory:    50.7 Mb

     Self-consistent Calculation

     iteration #  1     ecut=    30.00 Ry     beta=0.70
     Davidson diagonalization with overlap
     ethr =  1.00E-06,  avg # of iterations =  4.0

     negative rho (up, down):  4.857E-06 0.000E+00

     total cpu time spent up to now is       18.4 secs

     total energy              =    -329.49106923 Ry
     Harris-Foulkes estimate   =    -329.49105786 Ry
     estimated scf accuracy    <       0.00018286 Ry

     iteration #  2     ecut=    30.00 Ry     beta=0.70
     Davidson diagonalization with overlap
     ethr =  3.32E-07,  avg # of iterations =  3.0

     negative rho (up, down):  9.494E-07 0.000E+00

     total cpu time spent up to now is       18.6 secs

     total energy              =    -329.49106011 Ry
     Harris-Foulkes estimate   =    -329.49120541 Ry
     estimated scf accuracy    <       0.00034069 Ry

     iteration #  3     ecut=    30.00 Ry     beta=0.70
     Davidson diagonalization with overlap
     ethr =  3.32E-07,  avg # of iterations =  2.0

     negative rho (up, down):  1.805E-08 0.000E+00

     total cpu time spent up to now is       18.8 secs

     total energy              =    -329.49113274 Ry
     Harris-Foulkes estimate   =    -329.49115426 Ry
     estimated scf accuracy    <       0.00006829 Ry

     iteration #  4     ecut=    30.00 Ry     beta=0.70
     Davidson diagonalization with overlap
     ethr =  1.24E-07,  avg # of iterations =  2.0

     total cpu time spent up to now is       19.0 secs

     total energy              =    -329.49114600 Ry
     Harris-Foulkes estimate   =    -329.49114646 Ry
     estimated scf accuracy    <       0.00000338 Ry

     iteration #  5     ecut=    30.00 Ry     beta=0.70
     Davidson diagonalization with overlap
     ethr =  6.14E-09,  avg # of iterations =  3.0

     total cpu time spent up to now is       19.2 secs

     total energy              =    -329.49114667 Ry
     Harris-Foulkes estimate   =    -329.49114713 Ry
     estimated scf accuracy    <       0.00000090 Ry

     iteration #  6     ecut=    30.00 Ry     beta=0.70
     Davidson diagonalization with overlap
     ethr =  1.64E-09,  avg # of iterations =  2.0

     total cpu time spent up to now is       19.5 secs

     total energy              =    -329.49114683 Ry
     Harris-Foulkes estimate   =    -329.49114688 Ry
     estimated scf accuracy    <       0.00000014 Ry

     iteration #  7     ecut=    30.00 Ry     beta=0.70
     Davidson diagonalization with overlap
     ethr =  2.53E-10,  avg # of iterations =  2.0

     total cpu time spent up to now is       19.7 secs

     total energy              =    -329.49114678 Ry
     Harris-Foulkes estimate   =    -329.49114687 Ry
     estimated scf accuracy    <       0.00000002 Ry

     iteration #  8     ecut=    30.00 Ry     beta=0.70
     Davidson diagonalization with overlap
     ethr =  4.37E-11,  avg # of iterations =  2.0

     total cpu time spent up to now is       19.9 secs

     total energy              =    -329.49114683 Ry
     Harris-Foulkes estimate   =    -329.49114679 Ry
     estimated scf accuracy    <          4.2E-09 Ry

     iteration #  9     ecut=    30.00 Ry     beta=0.70
     Davidson diagonalization with overlap
     ethr =  7.65E-12,  avg # of iterations =  2.0

     total cpu time spent up to now is       20.1 secs

     End of self-consistent calculation

          k = 0.0000 0.0000 0.0000 ( 22119 PWs)   bands (ev):

    -8.4881  -7.8057  -7.6985  -7.3053  -6.9358  -6.7998  -6.6951  -6.5016
    -6.3510  -6.0449  -5.9851  -5.7722  -5.7304  -5.6830  -5.4456  -5.3967
    -5.3176  -5.2265  -5.2039  -5.1837  -5.1749  -5.1185  -5.0133  -4.9004
    -4.8205  -4.7166  -4.4383  -3.7578  -2.4754  -2.1496  -0.5462  -0.1902
     0.4555   0.7350

     the Fermi energy is    -3.7275 ev

!    total energy              =    -329.49114680 Ry
     Harris-Foulkes estimate   =    -329.49114683 Ry
     estimated scf accuracy    <          6.8E-10 Ry

     The total energy is the sum of the following terms:

     one-electron contribution =    -610.47293404 Ry
     hartree contribution      =     326.65875071 Ry
     xc contribution           =     -51.41244258 Ry
     ewald contribution        =       5.73933833 Ry
     smearing contrib. (-TS)   =      -0.00385921 Ry

     convergence has been achieved in   9 iterations

     Forces acting on atoms (Ry/au):

     atom    1 type  1   force =    -0.00353283   -0.00013988   -0.00929522
     atom    2 type  1   force =    -0.00423629    0.00507330    0.00435054
     atom    3 type  1   force =     0.00405221   -0.00399134    0.00399512
     atom    4 type  1   force =     0.00448754   -0.00045366    0.00516348
     atom    5 type  1   force =    -0.00077064   -0.00048842   -0.00421392

     Total force =     0.016596     Total SCF correction =     0.000113

     number of scf cycles    =   8
     number of bfgs steps    =   7

     energy   old            =    -329.4902974726 Ry
     energy   new            =    -329.4911468040 Ry

     CASE: energy  _new < energy  _old

     new trust radius        =       0.0428259535 bohr
     new conv_thr            =       0.0000000008 Ry


ATOMIC_POSITIONS (bohr)
Au      -1.557631344   2.661671467  -1.163354342
Au      -0.836164442   3.820882012   3.793476883
Au       3.136445053   1.992809919   0.594662434
Au       3.898746665   3.616612852   5.758165437
Au       7.508964067   1.238321750   2.996303589



     Writing output data file pwscf.save
     Check: negative starting charge=   -0.006326
     NEW-OLD atomic charge density approx. for the potential
     Check: negative starting charge=   -0.006329

     negative rho (up, down):  5.791E-04 0.000E+00

     total cpu time spent up to now is       20.3 secs

     per-process dynamical memory:    50.7 Mb

     Self-consistent Calculation

     iteration #  1     ecut=    30.00 Ry     beta=0.70
     Davidson diagonalization with overlap
     ethr =  1.00E-06,  avg # of iterations =  5.0

     negative rho (up, down):  2.630E-05 0.000E+00

     total cpu time spent up to now is       20.7 secs

     total energy              =    -329.49162494 Ry
     Harris-Foulkes estimate   =    -329.49142619 Ry
     estimated scf accuracy    <       0.00043525 Ry

     iteration #  2     ecut=    30.00 Ry     beta=0.70
     Davidson diagonalization with overlap
     ethr =  7.91E-07,  avg # of iterations =  4.0

     negative rho (up, down):  6.627E-06 0.000E+00

     total cpu time spent up to now is       21.0 secs

     total energy              =    -329.49162437 Ry
     Harris-Foulkes estimate   =    -329.49192501 Ry
     estimated scf accuracy    <       0.00068295 Ry

     iteration #  3     ecut=    30.00 Ry     beta=0.70
     Davidson diagonalization with overlap
     ethr =  7.91E-07,  avg # of iterations =  2.0

     negative rho (up, down):  3.504E-07 0.000E+00

     total cpu time spent up to now is       21.2 secs

     total energy              =    -329.49177121 Ry
     Harris-Foulkes estimate   =    -329.49182650 Ry
     estimated scf accuracy    <       0.00017151 Ry

     iteration #  4     ecut=    30.00 Ry     beta=0.70
     Davidson diagonalization with overlap
     ethr =  3.12E-07,  avg # of iterations =  2.0

     total cpu time spent up to now is       21.4 secs

     total energy              =    -329.49180532 Ry
     Harris-Foulkes estimate   =    -329.49180631 Ry
     estimated scf accuracy    <       0.00000909 Ry

     iteration #  5     ecut=    30.00 Ry     beta=0.70
     Davidson diagonalization with overlap
     ethr =  1.65E-08,  avg # of iterations =  2.0

     total cpu time spent up to now is       21.6 secs

     total energy              =    -329.49180678 Ry
     Harris-Foulkes estimate   =    -329.49180812 Ry
     estimated scf accuracy    <       0.00000211 Ry

     iteration #  6     ecut=    30.00 Ry     beta=0.70
     Davidson diagonalization with overlap
     ethr =  3.83E-09,  avg # of iterations =  2.0

     total cpu time spent up to now is       21.8 secs

     total energy              =    -329.49180716 Ry
     Harris-Foulkes estimate   =    -329.49180727 Ry
     estimated scf accuracy    <       0.00000031 Ry

     iteration #  7     ecut=    30.00 Ry     beta=0.70
     Davidson diagonalization with overlap
     ethr =  5.57E-10,  avg # of iterations =  2.0

     total cpu time spent up to now is       22.0 secs

     total energy              =    -329.49180709 Ry
     Harris-Foulkes estimate   =    -329.49180725 Ry
     estimated scf accuracy    <       0.00000006 Ry

     iteration #  8     ecut=    30.00 Ry     beta=0.70
     Davidson diagonalization with overlap
     ethr =  1.14E-10,  avg # of iterations =  2.0

     total cpu time spent up to now is       22.2 secs

     total energy              =    -329.49180713 Ry
     Harris-Foulkes estimate   =    -329.49180711 Ry
     estimated scf accuracy    <          9.9E-09 Ry

     iteration #  9     ecut=    30.00 Ry     beta=0.70
     Davidson diagonalization with overlap
     ethr =  1.79E-11,  avg # of iterations =  2.0

     total cpu time spent up to now is       22.5 secs

     total energy              =    -329.49180709 Ry
     Harris-Foulkes estimate   =    -329.49180713 Ry
     estimated scf accuracy    <          1.3E-09 Ry

     iteration # 10     ecut=    30.00 Ry     beta=0.70
     Davidson diagonalization with overlap
     ethr =  2.32E-12,  avg # of iterations =  3.0

     total cpu time spent up to now is       22.7 secs

     End of self-consistent calculation

          k = 0.0000 0.0000 0.0000 ( 22119 PWs)   bands (ev):

    -8.5029  -7.7949  -7.6818  -7.2694  -6.9114  -6.8065  -6.6590  -6.4928
    -6.3252  -6.0562  -5.9747  -5.7714  -5.7338  -5.6841  -5.4433  -5.3870
    -5.3146  -5.2354  -5.2035  -5.1815  -5.1729  -5.1207  -5.0011  -4.9152
    -4.8261  -4.7176  -4.4554  -3.7653  -2.4513  -2.1823  -0.5439  -0.1918
     0.4589   0.7423

     the Fermi energy is    -3.7339 ev

!    total energy              =    -329.49180708 Ry
     Harris-Foulkes estimate   =    -329.49180709 Ry
     estimated scf accuracy    <          5.1E-10 Ry

     The total energy is the sum of the following terms:

     one-electron contribution =    -609.46137553 Ry
     hartree contribution      =     326.15788984 Ry
     xc contribution           =     -51.40765624 Ry
     ewald contribution        =       5.22342090 Ry
     smearing contrib. (-TS)   =      -0.00408605 Ry

     convergence has been achieved in  10 iterations

     Forces acting on atoms (Ry/au):

     atom    1 type  1   force =    -0.00086102    0.00054149   -0.00242478
     atom    2 type  1   force =    -0.00196512    0.00371619    0.00013544
     atom    3 type  1   force =    -0.00241269   -0.00276010   -0.00044061
     atom    4 type  1   force =     0.00210145   -0.00052347    0.00329937
     atom    5 type  1   force =     0.00313738   -0.00097411   -0.00056942

     Total force =     0.008058     Total SCF correction =     0.000086

     number of scf cycles    =   9
     number of bfgs steps    =   8

     energy   old            =    -329.4911468040 Ry
     energy   new            =    -329.4918070803 Ry

     CASE: energy  _new < energy  _old

     new trust radius        =       0.0194223591 bohr
     new conv_thr            =       0.0000000004 Ry


ATOMIC_POSITIONS (bohr)
Au      -1.550533543   2.660210891  -1.180622133
Au      -0.842181127   3.832350543   3.797860329
Au       3.129211269   1.986616422   0.611589955
Au       3.905917573   3.615551458   5.769385164
Au       7.507945829   1.235568686   2.981040685



     Writing output data file pwscf.save
     Check: negative starting charge=   -0.006329
     NEW-OLD atomic charge density approx. for the potential
     Check: negative starting charge=   -0.006333

     negative rho (up, down):  1.031E-04 0.000E+00

     total cpu time spent up to now is       22.9 secs

     per-process dynamical memory:    50.7 Mb

     Self-consistent Calculation

     iteration #  1     ecut=    30.00 Ry     beta=0.70
     Davidson diagonalization with overlap
     ethr =  1.00E-06,  avg # of iterations =  4.0

     negative rho (up, down):  1.008E-06 0.000E+00

     total cpu time spent up to now is       23.3 secs

     total energy              =    -329.49190117 Ry
     Harris-Foulkes estimate   =    -329.49190582 Ry
     estimated scf accuracy    <       0.00009078 Ry

     iteration #  2     ecut=    30.00 Ry     beta=0.70
     Davidson diagonalization with overlap
     ethr =  1.65E-07,  avg # of iterations =  3.0

     negative rho (up, down):  5.952E-08 0.000E+00

     total cpu time spent up to now is       23.5 secs

     total energy              =    -329.49191295 Ry
     Harris-Foulkes estimate   =    -329.49194986 Ry
     estimated scf accuracy    <       0.00007707 Ry

     iteration #  3     ecut=    30.00 Ry     beta=0.70
     Davidson diagonalization with overlap
     ethr =  1.40E-07,  avg # of iterations =  2.0

     total cpu time spent up to now is       23.7 secs

     total energy              =    -329.49192772 Ry
     Harris-Foulkes estimate   =    -329.49193792 Ry
     estimated scf accuracy    <       0.00002612 Ry

     iteration #  4     ecut=    30.00 Ry     beta=0.70
     Davidson diagonalization with overlap
     ethr =  4.75E-08,  avg # of iterations =  2.0

     total cpu time spent up to now is       23.9 secs

     total energy              =    -329.49193378 Ry
     Harris-Foulkes estimate   =    -329.49193482 Ry
     estimated scf accuracy    <       0.00000440 Ry

     iteration #  5     ecut=    30.00 Ry     beta=0.70
     Davidson diagonalization with overlap
     ethr =  8.00E-09,  avg # of iterations =  2.0

     total cpu time spent up to now is       24.1 secs

     total energy              =    -329.49193419 Ry
     Harris-Foulkes estimate   =    -329.49193466 Ry
     estimated scf accuracy    <       0.00000031 Ry

     iteration #  6     ecut=    30.00 Ry     beta=0.70
     Davidson diagonalization with overlap
     ethr =  5.59E-10,  avg # of iterations =  2.0

     total cpu time spent up to now is       24.3 secs

     total energy              =    -329.49193421 Ry
     Harris-Foulkes estimate   =    -329.49193428 Ry
     estimated scf accuracy    <       0.00000004 Ry

     iteration #  7     ecut=    30.00 Ry     beta=0.70
     Davidson diagonalization with overlap
     ethr =  7.74E-11,  avg # of iterations =  2.0

     total cpu time spent up to now is       24.5 secs

     total energy              =    -329.49193414 Ry
     Harris-Foulkes estimate   =    -329.49193423 Ry
     estimated scf accuracy    <       0.00000002 Ry

     iteration #  8     ecut=    30.00 Ry     beta=0.70
     Davidson diagonalization with overlap
     ethr =  3.50E-11,  avg # of iterations =  2.0

     total cpu time spent up to now is       24.7 secs

     total energy              =    -329.49193419 Ry
     Harris-Foulkes estimate   =    -329.49193415 Ry
     estimated scf accuracy    <          1.2E-09 Ry

     iteration #  9     ecut=    30.00 Ry     beta=0.70
     Davidson diagonalization with overlap
     ethr =  2.10E-12,  avg # of iterations =  3.0

     total cpu time spent up to now is       25.0 secs

     End of self-consistent calculation

          k = 0.0000 0.0000 0.0000 ( 22119 PWs)   bands (ev):

    -8.5074  -7.7875  -7.6713  -7.2501  -6.8976  -6.8083  -6.6407  -6.4871
    -6.3119  -6.0634  -5.9664  -5.7706  -5.7335  -5.6842  -5.4427  -5.3819
    -5.3133  -5.2395  -5.2039  -5.1820  -5.1698  -5.1215  -4.9964  -4.9226
    -4.8295  -4.7181  -4.4641  -3.7688  -2.4422  -2.1983  -0.5423  -0.1922
     0.4597   0.7456

     the Fermi energy is    -3.7368 ev

!    total energy              =    -329.49193418 Ry
     Harris-Foulkes estimate   =    -329.49193419 Ry
     estimated scf accuracy    <          3.1E-10 Ry

     The total energy is the sum of the following terms:

     one-electron contribution =    -608.80289809 Ry
     hartree contribution      =     325.83195410 Ry
     xc contribution           =     -51.40482339 Ry
     ewald contribution        =       4.88804376 Ry
     smearing contrib. (-TS)   =      -0.00421055 Ry

     convergence has been achieved in   9 iterations

     Forces acting on atoms (Ry/au):

     atom    1 type  1   force =    -0.00041324    0.00086279   -0.00024318
     atom    2 type  1   force =    -0.00069484    0.00306637   -0.00125050
     atom    3 type  1   force =    -0.00368128   -0.00229931   -0.00119750
     atom    4 type  1   force =     0.00128782   -0.00078054    0.00201909
     atom    5 type  1   force =     0.00350155   -0.00084931    0.00067209

     Total force =     0.007244     Total SCF correction =     0.000066

     number of scf cycles    =  10
     number of bfgs steps    =   9

     energy   old            =    -329.4918070803 Ry
     energy   new            =    -329.4919341769 Ry

     CASE: energy  _new < energy  _old

     new trust radius        =       0.0179939225 bohr
     new conv_thr            =       0.0000000001 Ry


ATOMIC_POSITIONS (bohr)
Au      -1.545086029   2.660191119  -1.194248404
Au      -0.847356075   3.845205343   3.799484095
Au       3.118328146   1.978932847   0.623685474
Au       3.913082542   3.613574698   5.780394701
Au       7.511391416   1.232393993   2.969938134



     Writing output data file pwscf.save
     Check: negative starting charge=   -0.006333
     NEW-OLD atomic charge density approx. for the potential
     Check: negative starting charge=   -0.006336

     negative rho (up, down):  7.498E-05 0.000E+00

     total cpu time spent up to now is       25.2 secs

     per-process dynamical memory:    50.7 Mb

     Self-consistent Calculation

     iteration #  1     ecut=    30.00 Ry     beta=0.70
     Davidson diagonalization with overlap
     ethr =  1.00E-06,  avg # of iterations =  4.0

     negative rho (up, down):  5.137E-07 0.000E+00

     total cpu time spent up to now is       25.5 secs

     total energy              =    -329.49200058 Ry
     Harris-Foulkes estimate   =    -329.49200995 Ry
     estimated scf accuracy    <       0.00007557 Ry

     iteration #  2     ecut=    30.00 Ry     beta=0.70
     Davidson diagonalization with overlap
     ethr =  1.37E-07,  avg # of iterations =  3.0

     negative rho (up, down):  1.519E-08 0.000E+00

     total cpu time spent up to now is       25.7 secs

     total energy              =    -329.49201667 Ry
     Harris-Foulkes estimate   =    -329.49203810 Ry
     estimated scf accuracy    <       0.00004641 Ry

     iteration #  3     ecut=    30.00 Ry     beta=0.70
     Davidson diagonalization with overlap
     ethr =  8.44E-08,  avg # of iterations =  2.0

     total cpu time spent up to now is       26.0 secs

     total energy              =    -329.49202645 Ry
     Harris-Foulkes estimate   =    -329.49202813 Ry
     estimated scf accuracy    <       0.00000377 Ry

     iteration #  4     ecut=    30.00 Ry     beta=0.70
     Davidson diagonalization with overlap
     ethr =  6.85E-09,  avg # of iterations =  3.0

     total cpu time spent up to now is       26.2 secs

     total energy              =    -329.49202690 Ry
     Harris-Foulkes estimate   =    -329.49202886 Ry
     estimated scf accuracy    <       0.00000536 Ry

     iteration #  5     ecut=    30.00 Ry     beta=0.70
     Davidson diagonalization with overlap
     ethr =  6.85E-09,  avg # of iterations =  2.0

     total cpu time spent up to now is       26.4 secs

     total energy              =    -329.49202789 Ry
     Harris-Foulkes estimate   =    -329.49202796 Ry
     estimated scf accuracy    <       0.00000032 Ry

     iteration #  6     ecut=    30.00 Ry     beta=0.70
     Davidson diagonalization with overlap
     ethr =  5.74E-10,  avg # of iterations =  2.0

     total cpu time spent up to now is       26.6 secs

     total energy              =    -329.49202788 Ry
     Harris-Foulkes estimate   =    -329.49202797 Ry
     estimated scf accuracy    <       0.00000002 Ry

     iteration #  7     ecut=    30.00 Ry     beta=0.70
     Davidson diagonalization with overlap
     ethr =  3.88E-11,  avg # of iterations =  2.0

     total cpu time spent up to now is       26.8 secs

     total energy              =    -329.49202791 Ry
     Harris-Foulkes estimate   =    -329.49202789 Ry
     estimated scf accuracy    <       0.00000001 Ry

     iteration #  8     ecut=    30.00 Ry     beta=0.70
     Davidson diagonalization with overlap
     ethr =  2.08E-11,  avg # of iterations =  2.0

     total cpu time spent up to now is       27.1 secs

     total energy              =    -329.49202794 Ry
     Harris-Foulkes estimate   =    -329.49202791 Ry
     estimated scf accuracy    <          1.8E-09 Ry

     iteration #  9     ecut=    30.00 Ry     beta=0.70
     Davidson diagonalization with overlap
     ethr =  3.26E-12,  avg # of iterations =  2.0

     total cpu time spent up to now is       27.3 secs

     total energy              =    -329.49202794 Ry
     Harris-Foulkes estimate   =    -329.49202794 Ry
     estimated scf accuracy    <          2.1E-10 Ry

     iteration # 10     ecut=    30.00 Ry     beta=0.70
     Davidson diagonalization with overlap
     ethr =  3.78E-13,  avg # of iterations =  2.0

     total cpu time spent up to now is       27.5 secs

     End of self-consistent calculation

          k = 0.0000 0.0000 0.0000 ( 22119 PWs)   bands (ev):

    -8.5066  -7.7782  -7.6589  -7.2319  -6.8834  -6.8063  -6.6249  -6.4806
    -6.2997  -6.0684  -5.9585  -5.7693  -5.7318  -5.6836  -5.4428  -5.3771
    -5.3122  -5.2429  -5.2043  -5.1813  -5.1684  -5.1226  -4.9940  -4.9293
    -4.8336  -4.7189  -4.4725  -3.7714  -2.4374  -2.2124  -0.5404  -0.1922
     0.4593   0.7481

     the Fermi energy is    -3.7388 ev

!    total energy              =    -329.49202795 Ry
     Harris-Foulkes estimate   =    -329.49202794 Ry
     estimated scf accuracy    <          2.8E-11 Ry

     The total energy is the sum of the following terms:

     one-electron contribution =    -608.03429205 Ry
     hartree contribution      =     325.45144811 Ry
     xc contribution           =     -51.40159216 Ry
     ewald contribution        =       4.49675651 Ry
     smearing contrib. (-TS)   =      -0.00434836 Ry

     convergence has been achieved in  10 iterations

     Forces acting on atoms (Ry/au):

     atom    1 type  1   force =    -0.00058005    0.00115152    0.00095417
     atom    2 type  1   force =     0.00056946    0.00248962   -0.00207580
     atom    3 type  1   force =    -0.00306624   -0.00198859   -0.00072092
     atom    4 type  1   force =     0.00068287   -0.00119200    0.00064061
     atom    5 type  1   force =     0.00239397   -0.00046055    0.00120193

     Total force =     0.006080     Total SCF correction =     0.000019

     number of scf cycles    =  11
     number of bfgs steps    =  10

     energy   old            =    -329.4919341769 Ry
     energy   new            =    -329.4920279517 Ry

     CASE: energy  _new < energy  _old

     new trust radius        =       0.0180135823 bohr
     new conv_thr            =            1.0E-10 Ry


ATOMIC_POSITIONS (bohr)
Au      -1.543138696   2.662264650  -1.204332348
Au      -0.850969080   3.860169108   3.797893950
Au       3.105729921   1.968835268   0.631673764
Au       3.920511424   3.609862449   5.790611050
Au       7.518226431   1.229166524   2.963407585



     Writing output data file pwscf.save
     Check: negative starting charge=   -0.006336
     NEW-OLD atomic charge density approx. for the potential
     Check: negative starting charge=   -0.006337

     negative rho (up, down):  6.507E-05 0.000E+00

     total cpu time spent up to now is       27.7 secs

     per-process dynamical memory:    50.7 Mb

     Self-consistent Calculation

     iteration #  1     ecut=    30.00 Ry     beta=0.70
     Davidson diagonalization with overlap
     ethr =  1.00E-06,  avg # of iterations =  4.0

     negative rho (up, down):  3.601E-07 0.000E+00

     total cpu time spent up to now is       28.1 secs

     total energy              =    -329.49207730 Ry
     Harris-Foulkes estimate   =    -329.49209395 Ry
     estimated scf accuracy    <       0.00007477 Ry

     iteration #  2     ecut=    30.00 Ry     beta=0.70
     Davidson diagonalization with overlap
     ethr =  1.36E-07,  avg # of iterations =  3.0

     negative rho (up, down):  1.348E-08 0.000E+00

     total cpu time spent up to now is       28.3 secs

     total energy              =    -329.49209199 Ry
     Harris-Foulkes estimate   =    -329.49211734 Ry
     estimated scf accuracy    <       0.00005447 Ry

     iteration #  3     ecut=    30.00 Ry     beta=0.70
     Davidson diagonalization with overlap
     ethr =  9.90E-08,  avg # of iterations =  2.0

     total cpu time spent up to now is       28.5 secs

     total energy              =    -329.49210375 Ry
     Harris-Foulkes estimate   =    -329.49210574 Ry
     estimated scf accuracy    <       0.00000617 Ry

     iteration #  4     ecut=    30.00 Ry     beta=0.70
     Davidson diagonalization with overlap
     ethr =  1.12E-08,  avg # of iterations =  2.0

     total cpu time spent up to now is       28.7 secs

     total energy              =    -329.49210496 Ry
     Harris-Foulkes estimate   =    -329.49210735 Ry
     estimated scf accuracy    <       0.00000718 Ry

     iteration #  5     ecut=    30.00 Ry     beta=0.70
     Davidson diagonalization with overlap
     ethr =  1.12E-08,  avg # of iterations =  2.0

     total cpu time spent up to now is       28.9 secs

     total energy              =    -329.49210608 Ry
     Harris-Foulkes estimate   =    -329.49210625 Ry
     estimated scf accuracy    <       0.00000032 Ry

     iteration #  6     ecut=    30.00 Ry     beta=0.70
     Davidson diagonalization with overlap
     ethr =  5.78E-10,  avg # of iterations =  3.0

     total cpu time spent up to now is       29.1 secs

     total energy              =    -329.49210612 Ry
     Harris-Foulkes estimate   =    -329.49210618 Ry
     estimated scf accuracy    <       0.00000004 Ry

     iteration #  7     ecut=    30.00 Ry     beta=0.70
     Davidson diagonalization with overlap
     ethr =  6.56E-11,  avg # of iterations =  3.0

     total cpu time spent up to now is       29.4 secs

     total energy              =    -329.49210605 Ry
     Harris-Foulkes estimate   =    -329.49210613 Ry
     estimated scf accuracy    <          9.1E-09 Ry

     iteration #  8     ecut=    30.00 Ry     beta=0.70
     Davidson diagonalization with overlap
     ethr =  1.65E-11,  avg # of iterations =  2.0

     total cpu time spent up to now is       29.6 secs

     total energy              =    -329.49210606 Ry
     Harris-Foulkes estimate   =    -329.49210605 Ry
     estimated scf accuracy    <          1.0E-09 Ry

     iteration #  9     ecut=    30.00 Ry     beta=0.70
     Davidson diagonalization with overlap
     ethr =  1.86E-12,  avg # of iterations =  3.0

     total cpu time spent up to now is       29.8 secs

     total energy              =    -329.49210607 Ry
     Harris-Foulkes estimate   =    -329.49210606 Ry
     estimated scf accuracy    <          1.4E-10 Ry

     iteration # 10     ecut=    30.00 Ry     beta=0.70
     Davidson diagonalization with overlap
     ethr =  2.49E-13,  avg # of iterations =  2.0

     total cpu time spent up to now is       30.0 secs

     End of self-consistent calculation

          k = 0.0000 0.0000 0.0000 ( 22119 PWs)   bands (ev):

    -8.5003  -7.7676  -7.6449  -7.2163  -6.8690  -6.8009  -6.6130  -6.4736
    -6.2892  -6.0706  -5.9522  -5.7672  -5.7289  -5.6824  -5.4439  -5.3729
    -5.3111  -5.2456  -5.2043  -5.1801  -5.1684  -5.1236  -4.9942  -4.9348
    -4.8382  -4.7200  -4.4801  -3.7729  -2.4370  -2.2242  -0.5383  -0.1916
     0.4572   0.7501

     the Fermi energy is    -3.7396 ev

!    total energy              =    -329.49210608 Ry
     Harris-Foulkes estimate   =    -329.49210607 Ry
     estimated scf accuracy    <          4.1E-11 Ry

     The total energy is the sum of the following terms:

     one-electron contribution =    -607.18821979 Ry
     hartree contribution      =     325.03243701 Ry
     xc contribution           =     -51.39809822 Ry
     ewald contribution        =       4.06627947 Ry
     smearing contrib. (-TS)   =      -0.00450455 Ry

     convergence has been achieved in  10 iterations

     Forces acting on atoms (Ry/au):

     atom    1 type  1   force =    -0.00095790    0.00137370    0.00150077
     atom    2 type  1   force =     0.00181353    0.00197063   -0.00243609
     atom    3 type  1   force =    -0.00132864   -0.00172342    0.00049144
     atom    4 type  1   force =     0.00010958   -0.00163984   -0.00070266
     atom    5 type  1   force =     0.00036344    0.00001893    0.00114654

     Total force =     0.005271     Total SCF correction =     0.000023

     number of scf cycles    =  12
     number of bfgs steps    =  11

     energy   old            =    -329.4920279517 Ry
     energy   new            =    -329.4921060814 Ry

     CASE: energy  _new < energy  _old

     new trust radius        =       0.0146879192 bohr
     new conv_thr            =            1.0E-10 Ry


ATOMIC_POSITIONS (bohr)
Au      -1.545806749   2.666327260  -1.208567977
Au      -0.851141012   3.874030803   3.793156350
Au       3.096084219   1.958338578   0.635211404
Au       3.926249224   3.604622137   5.796845464
Au       7.524974317   1.226979222   2.962608760



     Writing output data file pwscf.save
     Check: negative starting charge=   -0.006337
     NEW-OLD atomic charge density approx. for the potential
     Check: negative starting charge=   -0.006339

     negative rho (up, down):  3.530E-05 0.000E+00

     total cpu time spent up to now is       30.3 secs

     per-process dynamical memory:    50.7 Mb

     Self-consistent Calculation

     iteration #  1     ecut=    30.00 Ry     beta=0.70
     Davidson diagonalization with overlap
     ethr =  1.00E-06,  avg # of iterations =  4.0

     Threshold (ethr) on eigenvalues was too large:
     Diagonalizing with lowered threshold

     Davidson diagonalization with overlap
     ethr =  9.72E-08,  avg # of iterations =  1.0

     negative rho (up, down):  9.224E-08 0.000E+00

     total cpu time spent up to now is       30.8 secs

     total energy              =    -329.49214653 Ry
     Harris-Foulkes estimate   =    -329.49216238 Ry
     estimated scf accuracy    <       0.00005371 Ry

     iteration #  2     ecut=    30.00 Ry     beta=0.70
     Davidson diagonalization with overlap
     ethr =  9.76E-08,  avg # of iterations =  2.0

     total cpu time spent up to now is       31.0 secs

     total energy              =    -329.49215540 Ry
     Harris-Foulkes estimate   =    -329.49217673 Ry
     estimated scf accuracy    <       0.00004520 Ry

     iteration #  3     ecut=    30.00 Ry     beta=0.70
     Davidson diagonalization with overlap
     ethr =  8.22E-08,  avg # of iterations =  2.0

     total cpu time spent up to now is       31.2 secs

     total energy              =    -329.49216473 Ry
     Harris-Foulkes estimate   =    -329.49216698 Ry
     estimated scf accuracy    <       0.00000602 Ry

     iteration #  4     ecut=    30.00 Ry     beta=0.70
     Davidson diagonalization with overlap
     ethr =  1.09E-08,  avg # of iterations =  2.0

     total cpu time spent up to now is       31.4 secs

     total energy              =    -329.49216689 Ry
     Harris-Foulkes estimate   =    -329.49216776 Ry
     estimated scf accuracy    <       0.00000506 Ry

     iteration #  5     ecut=    30.00 Ry     beta=0.70
     Davidson diagonalization with overlap
     ethr =  9.20E-09,  avg # of iterations =  2.0

     total cpu time spent up to now is       31.6 secs

     total energy              =    -329.49216779 Ry
     Harris-Foulkes estimate   =    -329.49216777 Ry
     estimated scf accuracy    <       0.00000020 Ry

     iteration #  6     ecut=    30.00 Ry     beta=0.70
     Davidson diagonalization with overlap
     ethr =  3.61E-10,  avg # of iterations =  3.0

     total cpu time spent up to now is       31.8 secs

     total energy              =    -329.49216785 Ry
     Harris-Foulkes estimate   =    -329.49216787 Ry
     estimated scf accuracy    <       0.00000002 Ry

     iteration #  7     ecut=    30.00 Ry     beta=0.70
     Davidson diagonalization with overlap
     ethr =  4.29E-11,  avg # of iterations =  3.0

     total cpu time spent up to now is       32.0 secs

     total energy              =    -329.49216781 Ry
     Harris-Foulkes estimate   =    -329.49216786 Ry
     estimated scf accuracy    <          7.0E-09 Ry

     iteration #  8     ecut=    30.00 Ry     beta=0.70
     Davidson diagonalization with overlap
     ethr =  1.28E-11,  avg # of iterations =  2.0

[...]

     convergence has been achieved in  10 iterations

     Forces acting on atoms (Ry/au):

     atom    1 type  1   force =     0.00130550    0.00045358    0.00108467
     atom    2 type  1   force =     0.00023643   -0.00019055   -0.00127837
     atom    3 type  1   force =    -0.00095501    0.00062931   -0.00001065
     atom    4 type  1   force =    -0.00043228   -0.00075672    0.00104298
     atom    5 type  1   force =    -0.00015464   -0.00013562   -0.00083862

     Total force =     0.002952     Total SCF correction =     0.000013

     number of scf cycles    =  35
     number of bfgs steps    =  33

     energy   old            =    -329.4931630320 Ry
     energy   new            =    -329.4931860910 Ry

     CASE: energy  _new < energy  _old

     new trust radius        =       0.0050426483 bohr
     new conv_thr            =            1.0E-10 Ry


ATOMIC_POSITIONS (bohr)
Au      -1.578952579   2.745145162  -1.168764986
Au      -0.750419081   4.202298156   3.711291144
Au       3.068638965   1.867715511   0.655754181
Au       3.909902010   3.434782214   5.814269926
Au       7.501190685   1.080356957   2.966703734



     Writing output data file pwscf.save
     Check: negative starting charge=   -0.006352
     NEW-OLD atomic charge density approx. for the potential
     Check: negative starting charge=   -0.006353

     negative rho (up, down):  1.778E-07 0.000E+00

     total cpu time spent up to now is       88.7 secs

     per-process dynamical memory:    50.7 Mb

     Self-consistent Calculation

     iteration #  1     ecut=    30.00 Ry     beta=0.70
     Davidson diagonalization with overlap
     ethr =  1.00E-06,  avg # of iterations =  3.0

     Threshold (ethr) on eigenvalues was too large:
     Diagonalizing with lowered threshold

     Davidson diagonalization with overlap
     ethr =  9.15E-09,  avg # of iterations =  2.0

     total cpu time spent up to now is       89.2 secs

     total energy              =    -329.49319482 Ry
     Harris-Foulkes estimate   =    -329.49319666 Ry
     estimated scf accuracy    <       0.00000536 Ry

     iteration #  2     ecut=    30.00 Ry     beta=0.70
     Davidson diagonalization with overlap
     ethr =  9.75E-09,  avg # of iterations =  3.0

     total cpu time spent up to now is       89.4 secs

     total energy              =    -329.49319465 Ry
     Harris-Foulkes estimate   =    -329.49319863 Ry
     estimated scf accuracy    <       0.00000872 Ry

     iteration #  3     ecut=    30.00 Ry     beta=0.70
     Davidson diagonalization with overlap
     ethr =  9.75E-09,  avg # of iterations =  2.0

     total cpu time spent up to now is       89.6 secs

     total energy              =    -329.49319638 Ry
     Harris-Foulkes estimate   =    -329.49319702 Ry
     estimated scf accuracy    <       0.00000168 Ry

     iteration #  4     ecut=    30.00 Ry     beta=0.70
     Davidson diagonalization with overlap
     ethr =  3.05E-09,  avg # of iterations =  2.0

     total cpu time spent up to now is       89.8 secs

     total energy              =    -329.49319657 Ry
     Harris-Foulkes estimate   =    -329.49319681 Ry
     estimated scf accuracy    <       0.00000021 Ry

     iteration #  5     ecut=    30.00 Ry     beta=0.70
     Davidson diagonalization with overlap
     ethr =  3.88E-10,  avg # of iterations =  2.0

     total cpu time spent up to now is       90.1 secs

     total energy              =    -329.49319652 Ry
     Harris-Foulkes estimate   =    -329.49319662 Ry
     estimated scf accuracy    <       0.00000002 Ry

     iteration #  6     ecut=    30.00 Ry     beta=0.70
     Davidson diagonalization with overlap
     ethr =  3.85E-11,  avg # of iterations =  2.0

     total cpu time spent up to now is       90.3 secs

     total energy              =    -329.49319655 Ry
     Harris-Foulkes estimate   =    -329.49319653 Ry
     estimated scf accuracy    <          2.9E-09 Ry

     iteration #  7     ecut=    30.00 Ry     beta=0.70
     Davidson diagonalization with overlap
     ethr =  5.34E-12,  avg # of iterations =  2.0

     total cpu time spent up to now is       90.5 secs

     total energy              =    -329.49319654 Ry
     Harris-Foulkes estimate   =    -329.49319655 Ry
     estimated scf accuracy    <          1.6E-09 Ry

     iteration #  8     ecut=    30.00 Ry     beta=0.70
     Davidson diagonalization with overlap
     ethr =  2.85E-12,  avg # of iterations =  2.0

     total cpu time spent up to now is       90.7 secs

     End of self-consistent calculation

          k = 0.0000 0.0000 0.0000 ( 22119 PWs)   bands (ev):

    -8.4851  -7.7702  -7.6506  -7.2406  -6.8555  -6.7984  -6.6214  -6.4760
    -6.3160  -6.0622  -5.9558  -5.7637  -5.7231  -5.6800  -5.4596  -5.3599
    -5.3147  -5.2449  -5.1977  -5.1789  -5.1748  -5.1226  -5.0087  -4.9181
    -4.8349  -4.7405  -4.4776  -3.7711  -2.4515  -2.1966  -0.5374  -0.1893
     0.4547   0.7866

     the Fermi energy is    -3.7376 ev

!    total energy              =    -329.49319654 Ry
     Harris-Foulkes estimate   =    -329.49319654 Ry
     estimated scf accuracy    <          8.0E-11 Ry

     The total energy is the sum of the following terms:

     one-electron contribution =    -606.59238154 Ry
     hartree contribution      =     324.73143183 Ry
     xc contribution           =     -51.39762051 Ry
     ewald contribution        =       3.76994928 Ry
     smearing contrib. (-TS)   =      -0.00457559 Ry

     convergence has been achieved in   8 iterations

     Forces acting on atoms (Ry/au):

     atom    1 type  1   force =     0.00110508    0.00042342    0.00077177
     atom    2 type  1   force =    -0.00006372   -0.00015039   -0.00116111
     atom    3 type  1   force =    -0.00095044    0.00053478   -0.00006241
     atom    4 type  1   force =     0.00024479   -0.00092950    0.00085799
     atom    5 type  1   force =    -0.00033571    0.00012169   -0.00040624

     Total force =     0.002553     Total SCF correction =     0.000033

     number of scf cycles    =  36
     number of bfgs steps    =  34

     energy   old            =    -329.4931860910 Ry
     energy   new            =    -329.4931965424 Ry

     CASE: energy  _new < energy  _old

     new trust radius        =       0.0055469132 bohr
     new conv_thr            =            1.0E-10 Ry


ATOMIC_POSITIONS (bohr)
Au      -1.576136788   2.746383654  -1.166088085
Au      -0.748789459   4.203547632   3.708165502
Au       3.068367978   1.869805276   0.656371975
Au       3.906485096   3.431845850   5.817505774
Au       7.500433173   1.078715588   2.963298834



     Writing output data file pwscf.save
     Check: negative starting charge=   -0.006353
     NEW-OLD atomic charge density approx. for the potential
     Check: negative starting charge=   -0.006355

     negative rho (up, down):  3.428E-07 0.000E+00

     total cpu time spent up to now is       90.9 secs

     per-process dynamical memory:    50.7 Mb

     Self-consistent Calculation

     iteration #  1     ecut=    30.00 Ry     beta=0.70
     Davidson diagonalization with overlap
     ethr =  1.00E-06,  avg # of iterations =  3.0

     Threshold (ethr) on eigenvalues was too large:
     Diagonalizing with lowered threshold

     Davidson diagonalization with overlap
     ethr =  1.03E-08,  avg # of iterations =  2.0

     total cpu time spent up to now is       91.4 secs

     total energy              =    -329.49320564 Ry
     Harris-Foulkes estimate   =    -329.49320672 Ry
     estimated scf accuracy    <       0.00000610 Ry

     iteration #  2     ecut=    30.00 Ry     beta=0.70
     Davidson diagonalization with overlap
     ethr =  1.11E-08,  avg # of iterations =  3.0

     total cpu time spent up to now is       91.6 secs

     total energy              =    -329.49320518 Ry
     Harris-Foulkes estimate   =    -329.49321042 Ry
     estimated scf accuracy    <       0.00001210 Ry

     iteration #  3     ecut=    30.00 Ry     beta=0.70
     Davidson diagonalization with overlap
     ethr =  1.11E-08,  avg # of iterations =  2.0

     total cpu time spent up to now is       91.9 secs

     total energy              =    -329.49320744 Ry
     Harris-Foulkes estimate   =    -329.49320825 Ry
     estimated scf accuracy    <       0.00000183 Ry

     iteration #  4     ecut=    30.00 Ry     beta=0.70
     Davidson diagonalization with overlap
     ethr =  3.33E-09,  avg # of iterations =  2.0

     total cpu time spent up to now is       92.1 secs

     total energy              =    -329.49320780 Ry
     Harris-Foulkes estimate   =    -329.49320791 Ry
     estimated scf accuracy    <       0.00000024 Ry

     iteration #  5     ecut=    30.00 Ry     beta=0.70
     Davidson diagonalization with overlap
     ethr =  4.27E-10,  avg # of iterations =  2.0

     total cpu time spent up to now is       92.3 secs

     total energy              =    -329.49320782 Ry
     Harris-Foulkes estimate   =    -329.49320786 Ry
     estimated scf accuracy    <       0.00000002 Ry

     iteration #  6     ecut=    30.00 Ry     beta=0.70
     Davidson diagonalization with overlap
     ethr =  4.29E-11,  avg # of iterations =  2.0

     total cpu time spent up to now is       92.5 secs

     total energy              =    -329.49320790 Ry
     Harris-Foulkes estimate   =    -329.49320783 Ry
     estimated scf accuracy    <          1.6E-09 Ry

     iteration #  7     ecut=    30.00 Ry     beta=0.70
     Davidson diagonalization with overlap
     ethr =  2.95E-12,  avg # of iterations =  3.0

     total cpu time spent up to now is       92.7 secs

     total energy              =    -329.49320789 Ry
     Harris-Foulkes estimate   =    -329.49320790 Ry
     estimated scf accuracy    <          1.2E-09 Ry

     iteration #  8     ecut=    30.00 Ry     beta=0.70
     Davidson diagonalization with overlap
     ethr =  2.15E-12,  avg # of iterations =  2.0

     total cpu time spent up to now is       92.9 secs

     End of self-consistent calculation

          k = 0.0000 0.0000 0.0000 ( 22119 PWs)   bands (ev):

    -8.4900  -7.7735  -7.6537  -7.2420  -6.8574  -6.8019  -6.6216  -6.4777
    -6.3171  -6.0641  -5.9561  -5.7649  -5.7242  -5.6809  -5.4593  -5.3599
    -5.3147  -5.2450  -5.1977  -5.1783  -5.1753  -5.1225  -5.0074  -4.9176
    -4.8346  -4.7393  -4.4770  -3.7711  -2.4492  -2.1956  -0.5379  -0.1896
     0.4566   0.7877

     the Fermi energy is    -3.7376 ev

!    total energy              =    -329.49320792 Ry
     Harris-Foulkes estimate   =    -329.49320789 Ry
     estimated scf accuracy    <          8.3E-11 Ry

     The total energy is the sum of the following terms:

     one-electron contribution =    -606.79849134 Ry
     hartree contribution      =     324.83349473 Ry
     xc contribution           =     -51.39846699 Ry
     ewald contribution        =       3.87481234 Ry
     smearing contrib. (-TS)   =      -0.00455665 Ry

     convergence has been achieved in   8 iterations

     Forces acting on atoms (Ry/au):

     atom    1 type  1   force =     0.00053203    0.00035199    0.00009688
     atom    2 type  1   force =    -0.00025598    0.00001221   -0.00066450
     atom    3 type  1   force =    -0.00050029    0.00034087   -0.00002476
     atom    4 type  1   force =     0.00072578   -0.00103885    0.00060623
     atom    5 type  1   force =    -0.00050154    0.00033378   -0.00001385

     Total force =     0.001905     Total SCF correction =     0.000038

     number of scf cycles    =  37
     number of bfgs steps    =  35

     energy   old            =    -329.4931965424 Ry
     energy   new            =    -329.4932079195 Ry

     CASE: energy  _new < energy  _old

     new trust radius        =       0.0047802221 bohr
     new conv_thr            =            1.0E-10 Ry


ATOMIC_POSITIONS (bohr)
Au      -1.573303878   2.747850215  -1.164200365
Au      -0.748156212   4.203949112   3.705002781
Au       3.067182178   1.871628531   0.656749937
Au       3.905557505   3.428415989   5.820703610
Au       7.499080407   1.078454152   2.960998037



     Writing output data file pwscf.save
     Check: negative starting charge=   -0.006355
     NEW-OLD atomic charge density approx. for the potential
     Check: negative starting charge=   -0.006356

     negative rho (up, down):  1.442E-07 0.000E+00

     total cpu time spent up to now is       93.1 secs

     per-process dynamical memory:    50.7 Mb

     Self-consistent Calculation

     iteration #  1     ecut=    30.00 Ry     beta=0.70
     Davidson diagonalization with overlap
     ethr =  1.00E-06,  avg # of iterations =  3.0

     Threshold (ethr) on eigenvalues was too large:
     Diagonalizing with lowered threshold

     Davidson diagonalization with overlap
     ethr =  7.56E-09,  avg # of iterations =  2.0

     total cpu time spent up to now is       93.6 secs

     total energy              =    -329.49321298 Ry
     Harris-Foulkes estimate   =    -329.49321295 Ry
     estimated scf accuracy    <       0.00000448 Ry

     iteration #  2     ecut=    30.00 Ry     beta=0.70
     Davidson diagonalization with overlap
     ethr =  8.15E-09,  avg # of iterations =  3.0

     total cpu time spent up to now is       93.8 secs

     total energy              =    -329.49321275 Ry
     Harris-Foulkes estimate   =    -329.49321634 Ry
     estimated scf accuracy    <       0.00000785 Ry

     iteration #  3     ecut=    30.00 Ry     beta=0.70
     Davidson diagonalization with overlap
     ethr =  8.15E-09,  avg # of iterations =  2.0

     total cpu time spent up to now is       94.0 secs

     total energy              =    -329.49321417 Ry
     Harris-Foulkes estimate   =    -329.49321478 Ry
     estimated scf accuracy    <       0.00000128 Ry

     iteration #  4     ecut=    30.00 Ry     beta=0.70
     Davidson diagonalization with overlap
     ethr =  2.33E-09,  avg # of iterations =  2.0

     total cpu time spent up to now is       94.2 secs

     total energy              =    -329.49321449 Ry
     Harris-Foulkes estimate   =    -329.49321451 Ry
     estimated scf accuracy    <       0.00000020 Ry

     iteration #  5     ecut=    30.00 Ry     beta=0.70
     Davidson diagonalization with overlap
     ethr =  3.68E-10,  avg # of iterations =  2.0

     total cpu time spent up to now is       94.4 secs

     total energy              =    -329.49321440 Ry
     Harris-Foulkes estimate   =    -329.49321454 Ry
     estimated scf accuracy    <       0.00000002 Ry

     iteration #  6     ecut=    30.00 Ry     beta=0.70
     Davidson diagonalization with overlap
     ethr =  4.47E-11,  avg # of iterations =  2.0

     total cpu time spent up to now is       94.6 secs

     total energy              =    -329.49321444 Ry
     Harris-Foulkes estimate   =    -329.49321440 Ry
     estimated scf accuracy    <          3.7E-09 Ry

     iteration #  7     ecut=    30.00 Ry     beta=0.70
     Davidson diagonalization with overlap
     ethr =  6.69E-12,  avg # of iterations =  2.0

     total cpu time spent up to now is       94.9 secs

     total energy              =    -329.49321448 Ry
     Harris-Foulkes estimate   =    -329.49321444 Ry
     estimated scf accuracy    <          7.3E-10 Ry

     iteration #  8     ecut=    30.00 Ry     beta=0.70
     Davidson diagonalization with overlap
     ethr =  1.33E-12,  avg # of iterations =  2.0

     total cpu time spent up to now is       95.1 secs

     total energy              =    -329.49321449 Ry
     Harris-Foulkes estimate   =    -329.49321448 Ry
     estimated scf accuracy    <          1.7E-10 Ry

     iteration #  9     ecut=    30.00 Ry     beta=0.70
     Davidson diagonalization with overlap
     ethr =  3.16E-13,  avg # of iterations =  2.0

     total cpu time spent up to now is       95.3 secs

     End of self-consistent calculation

          k = 0.0000 0.0000 0.0000 ( 22119 PWs)   bands (ev):

    -8.4953  -7.7778  -7.6546  -7.2435  -6.8583  -6.8055  -6.6242  -6.4793
    -6.3169  -6.0662  -5.9580  -5.7660  -5.7256  -5.6817  -5.4596  -5.3594
    -5.3141  -5.2453  -5.1972  -5.1787  -5.1753  -5.1225  -5.0062  -4.9177
    -4.8353  -4.7374  -4.4769  -3.7699  -2.4471  -2.1953  -0.5383  -0.1895
     0.4578   0.7883

     the Fermi energy is    -3.7364 ev

!    total energy              =    -329.49321448 Ry
     Harris-Foulkes estimate   =    -329.49321449 Ry
     estimated scf accuracy    <          3.1E-11 Ry

     The total energy is the sum of the following terms:

     one-electron contribution =    -606.99394322 Ry
     hartree contribution      =     324.92997125 Ry
     xc contribution           =     -51.39923417 Ry
     ewald contribution        =       3.97457264 Ry
     smearing contrib. (-TS)   =      -0.00458098 Ry

     convergence has been achieved in   9 iterations

     Forces acting on atoms (Ry/au):

     atom    1 type  1   force =    -0.00008715    0.00028007   -0.00058282
     atom    2 type  1   force =    -0.00019906    0.00016240   -0.00004028
     atom    3 type  1   force =     0.00006519    0.00014967    0.00005766
     atom    4 type  1   force =     0.00071139   -0.00097002    0.00041539
     atom    5 type  1   force =    -0.00049038    0.00037788    0.00015006

     Total force =     0.001596     Total SCF correction =     0.000020

     bfgs converged in  38 scf cycles and  36 bfgs steps
     (criteria: energy <  1.0E-04, force <  1.0E-03)

     End of BFGS Geometry Optimization

     Final energy   =    -329.4932144794 Ry
Begin final coordinates

ATOMIC_POSITIONS (bohr)
Au      -1.573303878   2.747850215  -1.164200365
Au      -0.748156212   4.203949112   3.705002781
Au       3.067182178   1.871628531   0.656749937
Au       3.905557505   3.428415989   5.820703610
Au       7.499080407   1.078454152   2.960998037
End final coordinates



     Writing output data file pwscf.save
 
     init_run     :      0.15s CPU      0.18s WALL (       1 calls)
     electrons    :     82.82s CPU     88.47s WALL (      38 calls)
     update_pot   :      2.42s CPU      2.99s WALL (      37 calls)
     forces       :      1.58s CPU      1.61s WALL (      38 calls)

     Called by init_run:
     wfcinit      :      0.07s CPU      0.09s WALL (       1 calls)
     potinit      :      0.03s CPU      0.03s WALL (       1 calls)

     Called by electrons:
     c_bands      :     63.05s CPU     63.79s WALL (     382 calls)
     sum_band     :      9.01s CPU      9.22s WALL (     382 calls)
     v_of_rho     :      7.17s CPU      7.26s WALL (     403 calls)
     mix_rho      :      2.70s CPU      5.86s WALL (     382 calls)

     Called by c_bands:
     init_us_2    :      1.20s CPU      1.25s WALL (     765 calls)
     cegterg      :     56.13s CPU     56.55s WALL (     382 calls)

     Called by sum_band:

     Called by *egterg:
     h_psi        :     43.90s CPU     44.19s WALL (    1325 calls)
     g_psi        :      0.45s CPU      0.45s WALL (     942 calls)
     cdiaghg      :      2.97s CPU      2.98s WALL (    1270 calls)

     Called by h_psi:
     h_psi:pot    :     43.25s CPU     43.55s WALL (    1325 calls)
     h_psi:calbec :      2.37s CPU      2.38s WALL (    1325 calls)
     vloc_psi     :     38.22s CPU     38.50s WALL (    1325 calls)
     add_vuspsi   :      2.67s CPU      2.67s WALL (    1325 calls)

     General routines
     calbec       :      2.82s CPU      2.85s WALL (    1477 calls)
     fft          :      4.00s CPU      4.09s WALL (    4542 calls)
     fftw         :     40.19s CPU     40.79s WALL (   84860 calls)
     davcio       :      0.42s CPU      2.93s WALL (    3777 calls)
 
     Parallel routines
     fft_scatter  :     10.27s CPU      9.89s WALL (   89402 calls)
 
     PWSCF        :  1m28.00s CPU     1m35.65s WALL

 
   This run was terminated on:  19:57:10   3Aug2017            

=------------------------------------------------------------------------------=
   JOB DONE.
=------------------------------------------------------------------------------=
