
     Program PWSCF v.6.0 (svn rev. 13079) starts on  4Aug2017 at  4:41: 6 

     This program is part of the open-source Quantum ESPRESSO suite
     for quantum simulation of materials; please cite
         "P. Giannozzi et al., J. Phys.:Condens. Matter 21 395502 (2009);
          URL http://www.quantum-espresso.org", 
     in publications or presentations arising from this work. More details at
     http://www.quantum-espresso.org/quote

     Parallel version (MPI), running on    10 processors
     R & G space division:  proc/nbgrp/npool/nimage =      10
     Reading input from input/multi/minchecks-Gold5-732.in

     Current dimensions of program PWSCF are:
     Max number of different atomic species (ntypx) = 10
     Max number of k-points (npk) =  40000
     Max angular momentum in pseudopotentials (lmaxx) =  3
     Message from routine iosys:
     pot_extrapolation='second-order' not available, using 'atomic'
     Message from routine iosys:
     wfc_extrapolation='second-order' not available, using 'atomic'

     Subspace diagonalization in iterative solution of the eigenvalue problem:
     a serial algorithm will be used

 
     Parallelization info
     --------------------
     sticks:   dense  smooth     PW     G-vecs:    dense   smooth      PW
     Min         380     380     94                17748    17748    2208
     Max         381     381     95                17753    17753    2213
     Sum        3809    3809    949               177509   177509   22119
 


     bravais-lattice index     =            1
     lattice parameter (alat)  =      20.0000  a.u.
     unit-cell volume          =    8000.0000 (a.u.)^3
     number of atoms/cell      =            5
     number of atomic types    =            1
     number of electrons       =        55.00
     number of Kohn-Sham states=           34
     kinetic-energy cutoff     =      30.0000  Ry
     charge density cutoff     =     120.0000  Ry
     convergence threshold     =      1.0E-08
     mixing beta               =       0.7000
     number of iterations used =            8  plain     mixing
     Exchange-correlation      = BLYP ( 1  3  1  3 0 0)
     nstep                     =           50


     celldm(1)=  20.000000  celldm(2)=   0.000000  celldm(3)=   0.000000
     celldm(4)=   0.000000  celldm(5)=   0.000000  celldm(6)=   0.000000

     crystal axes: (cart. coord. in units of alat)
               a(1) = (   1.000000   0.000000   0.000000 )  
               a(2) = (   0.000000   1.000000   0.000000 )  
               a(3) = (   0.000000   0.000000   1.000000 )  

     reciprocal axes: (cart. coord. in units 2 pi/alat)
               b(1) = (  1.000000  0.000000  0.000000 )  
               b(2) = (  0.000000  1.000000  0.000000 )  
               b(3) = (  0.000000  0.000000  1.000000 )  


     PseudoPot. # 1 for Au read from file:
     ./Au.blyp-d-hgh.UPF
     MD5 check sum: c10d8bae01f806c36a1643a1c69a8479
     Pseudo is Norm-conserving, Zval = 11.0
     Generated in analytical, separable form
     Using radial grid of 1279 points,  6 beta functions with: 
                l(1) =   0
                l(2) =   0
                l(3) =   1
                l(4) =   1
                l(5) =   2
                l(6) =   2

     atomic species   valence    mass     pseudopotential
        Au            11.00    28.08600     Au( 1.00)

     No symmetry found



   Cartesian axes

     site n.     atom                  positions (alat units)
         1           Au  tau(   1) = (  -0.0815481   0.0568208  -0.0143791  )
         2           Au  tau(   2) = (  -0.0101984   0.1726780   0.1992391  )
         3           Au  tau(   3) = (   0.1587294   0.1373386  -0.0105320  )
         4           Au  tau(   4) = (   0.2226939   0.2363004   0.2848482  )
         5           Au  tau(   5) = (   0.3020146   0.0247279   0.1564563  )

     number of k points=     1  Marzari-Vanderbilt smearing, width (Ry)=  0.0250
                       cart. coord. in units 2pi/alat
        k(    1) = (   0.0000000   0.0000000   0.0000000), wk =   2.0000000

     Dense  grid:   177509 G-vectors     FFT dimensions: (  72,  72,  72)

     Estimated max dynamical RAM per process >      15.04Mb

     Estimated total allocated dynamical RAM >     150.39Mb

     Initial potential from superposition of free atoms
     Check: negative starting charge=   -0.006158

     starting charge   54.99940, renormalised to   55.00000

     negative rho (up, down):  6.158E-03 0.000E+00
     Starting wfc are   45 randomized atomic wfcs

     total cpu time spent up to now is        0.3 secs

     per-process dynamical memory:    41.0 Mb

     Self-consistent Calculation

     iteration #  1     ecut=    30.00 Ry     beta=0.70
     Davidson diagonalization with overlap
     ethr =  1.00E-02,  avg # of iterations =  5.0

     Threshold (ethr) on eigenvalues was too large:
     Diagonalizing with lowered threshold

     Davidson diagonalization with overlap
     ethr =  3.74E-04,  avg # of iterations =  3.0

     negative rho (up, down):  8.128E-04 0.000E+00

     total cpu time spent up to now is        0.7 secs

     total energy              =    -329.34603560 Ry
     Harris-Foulkes estimate   =    -329.50217696 Ry
     estimated scf accuracy    <       0.26059154 Ry

     iteration #  2     ecut=    30.00 Ry     beta=0.70
     Davidson diagonalization with overlap
     ethr =  4.74E-04,  avg # of iterations =  3.0

     negative rho (up, down):  4.065E-04 0.000E+00

     total cpu time spent up to now is        0.9 secs

     total energy              =    -329.35463495 Ry
     Harris-Foulkes estimate   =    -329.54028533 Ry
     estimated scf accuracy    <       0.41178958 Ry

     iteration #  3     ecut=    30.00 Ry     beta=0.70
     Davidson diagonalization with overlap
     ethr =  4.74E-04,  avg # of iterations =  3.0

     negative rho (up, down):  1.332E-04 0.000E+00

     total cpu time spent up to now is        1.2 secs

     total energy              =    -329.43564320 Ry
     Harris-Foulkes estimate   =    -329.46896794 Ry
     estimated scf accuracy    <       0.08899011 Ry

     iteration #  4     ecut=    30.00 Ry     beta=0.70
     Davidson diagonalization with overlap
     ethr =  1.62E-04,  avg # of iterations =  2.0

     negative rho (up, down):  2.206E-05 0.000E+00

     total cpu time spent up to now is        1.4 secs

     total energy              =    -329.45003844 Ry
     Harris-Foulkes estimate   =    -329.45222870 Ry
     estimated scf accuracy    <       0.00514568 Ry

     iteration #  5     ecut=    30.00 Ry     beta=0.70
     Davidson diagonalization with overlap
     ethr =  9.36E-06,  avg # of iterations =  5.0

     negative rho (up, down):  1.159E-07 0.000E+00

     total cpu time spent up to now is        1.7 secs

     total energy              =    -329.45143914 Ry
     Harris-Foulkes estimate   =    -329.45228660 Ry
     estimated scf accuracy    <       0.00235799 Ry

     iteration #  6     ecut=    30.00 Ry     beta=0.70
     Davidson diagonalization with overlap
     ethr =  4.29E-06,  avg # of iterations =  2.0

     total cpu time spent up to now is        1.9 secs

     total energy              =    -329.45180633 Ry
     Harris-Foulkes estimate   =    -329.45198485 Ry
     estimated scf accuracy    <       0.00040995 Ry

     iteration #  7     ecut=    30.00 Ry     beta=0.70
     Davidson diagonalization with overlap
     ethr =  7.45E-07,  avg # of iterations =  2.0

     total cpu time spent up to now is        2.1 secs

     total energy              =    -329.45189878 Ry
     Harris-Foulkes estimate   =    -329.45193547 Ry
     estimated scf accuracy    <       0.00009133 Ry

     iteration #  8     ecut=    30.00 Ry     beta=0.70
     Davidson diagonalization with overlap
     ethr =  1.66E-07,  avg # of iterations =  2.0

     total cpu time spent up to now is        2.3 secs

     total energy              =    -329.45191533 Ry
     Harris-Foulkes estimate   =    -329.45192226 Ry
     estimated scf accuracy    <       0.00001501 Ry

     iteration #  9     ecut=    30.00 Ry     beta=0.70
     Davidson diagonalization with overlap
     ethr =  2.73E-08,  avg # of iterations =  2.0

     total cpu time spent up to now is        2.6 secs

     total energy              =    -329.45191799 Ry
     Harris-Foulkes estimate   =    -329.45191876 Ry
     estimated scf accuracy    <       0.00000104 Ry

     iteration # 10     ecut=    30.00 Ry     beta=0.70
     Davidson diagonalization with overlap
     ethr =  1.89E-09,  avg # of iterations =  2.0

     total cpu time spent up to now is        2.8 secs

     total energy              =    -329.45191788 Ry
     Harris-Foulkes estimate   =    -329.45191835 Ry
     estimated scf accuracy    <       0.00000038 Ry

     iteration # 11     ecut=    30.00 Ry     beta=0.70
     Davidson diagonalization with overlap
     ethr =  7.00E-10,  avg # of iterations =  2.0

     total cpu time spent up to now is        3.0 secs

     total energy              =    -329.45191794 Ry
     Harris-Foulkes estimate   =    -329.45191798 Ry
     estimated scf accuracy    <       0.00000006 Ry

     iteration # 12     ecut=    30.00 Ry     beta=0.70
     Davidson diagonalization with overlap
     ethr =  1.15E-10,  avg # of iterations =  2.0

     total cpu time spent up to now is        3.2 secs

     End of self-consistent calculation

          k = 0.0000 0.0000 0.0000 ( 22119 PWs)   bands (ev):

    -8.0863  -7.6538  -7.3828  -7.2226  -6.9216  -6.8548  -6.6092  -6.5046
    -6.4267  -6.0701  -5.9104  -5.7221  -5.6049  -5.5431  -5.4838  -5.3498
    -5.2762  -5.2227  -5.1593  -5.0953  -5.0192  -5.0078  -4.8712  -4.8283
    -4.6226  -4.4973  -4.2179  -3.7159  -2.5633  -2.2238  -0.3362  -0.1503
     0.2850   0.5475

     the Fermi energy is    -3.7213 ev

!    total energy              =    -329.45191793 Ry
     Harris-Foulkes estimate   =    -329.45191796 Ry
     estimated scf accuracy    <          5.8E-09 Ry

     The total energy is the sum of the following terms:

     one-electron contribution =    -612.49190113 Ry
     hartree contribution      =     327.85762727 Ry
     xc contribution           =     -51.41526118 Ry
     ewald contribution        =       6.59399560 Ry
     smearing contrib. (-TS)   =       0.00362151 Ry

     convergence has been achieved in  12 iterations

     Forces acting on atoms (Ry/au):

     atom    1 type  1   force =    -0.01297769    0.00173799   -0.00832979
     atom    2 type  1   force =     0.00441451   -0.00015522   -0.00454336
     atom    3 type  1   force =    -0.01601860    0.00294986   -0.00801303
     atom    4 type  1   force =     0.00414419   -0.00984503    0.00022819
     atom    5 type  1   force =     0.02043759    0.00531239    0.02065799

     Total force =     0.039966     Total SCF correction =     0.000349

     BFGS Geometry Optimization

     number of scf cycles    =   1
     number of bfgs steps    =   0

     energy   new            =    -329.4519179302 Ry

     new trust radius        =       0.0295409756 bohr
     new conv_thr            =       0.0000000100 Ry


ATOMIC_POSITIONS (bohr)
Au      -1.643940687   1.138154994  -0.295911792
Au      -0.199552488   3.453404784   3.980238639
Au       3.158569400   2.749720862  -0.218653028
Au       4.458022189   4.716162966   5.697191188
Au       6.060730587   0.499870395   3.149784994



     Writing output data file pwscf.save
     Check: negative starting charge=   -0.006158
     NEW-OLD atomic charge density approx. for the potential
     Check: negative starting charge=   -0.006154

     negative rho (up, down):  1.199E-04 0.000E+00

     total cpu time spent up to now is        3.4 secs

     per-process dynamical memory:    42.9 Mb

     Self-consistent Calculation

     iteration #  1     ecut=    30.00 Ry     beta=0.70
     Davidson diagonalization with overlap
     ethr =  1.00E-06,  avg # of iterations =  4.0

     negative rho (up, down):  1.414E-06 0.000E+00

     total cpu time spent up to now is        3.8 secs

     total energy              =    -329.45334031 Ry
     Harris-Foulkes estimate   =    -329.45332946 Ry
     estimated scf accuracy    <       0.00009371 Ry

     iteration #  2     ecut=    30.00 Ry     beta=0.70
     Davidson diagonalization with overlap
     ethr =  1.70E-07,  avg # of iterations =  3.0

     negative rho (up, down):  9.909E-08 0.000E+00

     total cpu time spent up to now is        4.0 secs

     total energy              =    -329.45334702 Ry
     Harris-Foulkes estimate   =    -329.45338800 Ry
     estimated scf accuracy    <       0.00008858 Ry

     iteration #  3     ecut=    30.00 Ry     beta=0.70
     Davidson diagonalization with overlap
     ethr =  1.61E-07,  avg # of iterations =  2.0

     total cpu time spent up to now is        4.3 secs

     total energy              =    -329.45336803 Ry
     Harris-Foulkes estimate   =    -329.45337393 Ry
     estimated scf accuracy    <       0.00001781 Ry

     iteration #  4     ecut=    30.00 Ry     beta=0.70
     Davidson diagonalization with overlap
     ethr =  3.24E-08,  avg # of iterations =  2.0

     total cpu time spent up to now is        4.5 secs

     total energy              =    -329.45337173 Ry
     Harris-Foulkes estimate   =    -329.45337339 Ry
     estimated scf accuracy    <       0.00000471 Ry

     iteration #  5     ecut=    30.00 Ry     beta=0.70
     Davidson diagonalization with overlap
     ethr =  8.56E-09,  avg # of iterations =  2.0

     total cpu time spent up to now is        4.7 secs

     total energy              =    -329.45337285 Ry
     Harris-Foulkes estimate   =    -329.45337294 Ry
     estimated scf accuracy    <       0.00000089 Ry

     iteration #  6     ecut=    30.00 Ry     beta=0.70
     Davidson diagonalization with overlap
     ethr =  1.61E-09,  avg # of iterations =  2.0

     total cpu time spent up to now is        4.9 secs

     total energy              =    -329.45337324 Ry
     Harris-Foulkes estimate   =    -329.45337310 Ry
     estimated scf accuracy    <       0.00000016 Ry

     iteration #  7     ecut=    30.00 Ry     beta=0.70
     Davidson diagonalization with overlap
     ethr =  2.98E-10,  avg # of iterations =  2.0

     total cpu time spent up to now is        5.1 secs

     total energy              =    -329.45337328 Ry
     Harris-Foulkes estimate   =    -329.45337329 Ry
     estimated scf accuracy    <       0.00000005 Ry

     iteration #  8     ecut=    30.00 Ry     beta=0.70
     Davidson diagonalization with overlap
     ethr =  8.23E-11,  avg # of iterations =  2.0

     total cpu time spent up to now is        5.3 secs

     End of self-consistent calculation

          k = 0.0000 0.0000 0.0000 ( 22119 PWs)   bands (ev):

    -8.0787  -7.6429  -7.3691  -7.2096  -6.9265  -6.8468  -6.6007  -6.4944
    -6.4329  -6.0694  -5.9081  -5.7129  -5.6114  -5.5476  -5.4849  -5.3487
    -5.2753  -5.2196  -5.1602  -5.0978  -5.0252  -5.0150  -4.8791  -4.8359
    -4.6296  -4.4973  -4.2313  -3.7058  -2.5730  -2.2283  -0.3366  -0.1464
     0.2789   0.5468

     the Fermi energy is    -3.7080 ev

!    total energy              =    -329.45337332 Ry
     Harris-Foulkes estimate   =    -329.45337329 Ry
     estimated scf accuracy    <          2.9E-09 Ry

     The total energy is the sum of the following terms:

     one-electron contribution =    -611.77127702 Ry
     hartree contribution      =     327.49642345 Ry
     xc contribution           =     -51.41147730 Ry
     ewald contribution        =       6.23000201 Ry
     smearing contrib. (-TS)   =       0.00295554 Ry

     convergence has been achieved in   8 iterations

     Forces acting on atoms (Ry/au):

     atom    1 type  1   force =    -0.01277503    0.00209937   -0.00781191
     atom    2 type  1   force =     0.00429672   -0.00035644   -0.00477396
     atom    3 type  1   force =    -0.01212976   -0.00024154   -0.00401378
     atom    4 type  1   force =     0.00356550   -0.00872342    0.00087914
     atom    5 type  1   force =     0.01704258    0.00722203    0.01572052

     Total force =     0.033356     Total SCF correction =     0.000166

     number of scf cycles    =   2
     number of bfgs steps    =   1

     energy   old            =    -329.4519179302 Ry
     energy   new            =    -329.4533733152 Ry

     CASE: energy  _new < energy  _old


     WARNING: bfgs curvature condition failed, Theta= 0.973
     new trust radius        =       0.0324950732 bohr
     new conv_thr            =       0.0000000015 Ry


ATOMIC_POSITIONS (bohr)
Au      -1.660657294   1.140841303  -0.306194651
Au      -0.193922425   3.452970232   3.974038914
Au       3.142127790   2.749896959  -0.224511406
Au       4.462768202   4.704596600   5.698239157
Au       6.083512728   0.509008906   3.171077986



     Writing output data file pwscf.save
     Check: negative starting charge=   -0.006154
     NEW-OLD atomic charge density approx. for the potential
     Check: negative starting charge=   -0.006154

     negative rho (up, down):  1.539E-04 0.000E+00

     total cpu time spent up to now is        5.5 secs

     per-process dynamical memory:    50.7 Mb

     Self-consistent Calculation

     iteration #  1     ecut=    30.00 Ry     beta=0.70
     Davidson diagonalization with overlap
     ethr =  1.00E-06,  avg # of iterations =  4.0

     negative rho (up, down):  2.297E-06 0.000E+00

     total cpu time spent up to now is        5.9 secs

     total energy              =    -329.45468146 Ry
     Harris-Foulkes estimate   =    -329.45467116 Ry
     estimated scf accuracy    <       0.00012515 Ry

     iteration #  2     ecut=    30.00 Ry     beta=0.70
     Davidson diagonalization with overlap
     ethr =  2.28E-07,  avg # of iterations =  3.0

     negative rho (up, down):  1.628E-07 0.000E+00

     total cpu time spent up to now is        6.1 secs

     total energy              =    -329.45469639 Ry
     Harris-Foulkes estimate   =    -329.45474618 Ry
     estimated scf accuracy    <       0.00010979 Ry

     iteration #  3     ecut=    30.00 Ry     beta=0.70
     Davidson diagonalization with overlap
     ethr =  2.00E-07,  avg # of iterations =  2.0

     total cpu time spent up to now is        6.3 secs

     total energy              =    -329.45472142 Ry
     Harris-Foulkes estimate   =    -329.45472799 Ry
     estimated scf accuracy    <       0.00001808 Ry

     iteration #  4     ecut=    30.00 Ry     beta=0.70
     Davidson diagonalization with overlap
     ethr =  3.29E-08,  avg # of iterations =  2.0

     total cpu time spent up to now is        6.5 secs

     total energy              =    -329.45472585 Ry
     Harris-Foulkes estimate   =    -329.45472758 Ry
     estimated scf accuracy    <       0.00000637 Ry

     iteration #  5     ecut=    30.00 Ry     beta=0.70
     Davidson diagonalization with overlap
     ethr =  1.16E-08,  avg # of iterations =  2.0

     total cpu time spent up to now is        6.8 secs

     total energy              =    -329.45472705 Ry
     Harris-Foulkes estimate   =    -329.45472746 Ry
     estimated scf accuracy    <       0.00000126 Ry

     iteration #  6     ecut=    30.00 Ry     beta=0.70
     Davidson diagonalization with overlap
     ethr =  2.30E-09,  avg # of iterations =  2.0

     total cpu time spent up to now is        7.0 secs

     total energy              =    -329.45472720 Ry
     Harris-Foulkes estimate   =    -329.45472738 Ry
     estimated scf accuracy    <       0.00000021 Ry

     iteration #  7     ecut=    30.00 Ry     beta=0.70
     Davidson diagonalization with overlap
     ethr =  3.82E-10,  avg # of iterations =  2.0

     total cpu time spent up to now is        7.2 secs

     total energy              =    -329.45472723 Ry
     Harris-Foulkes estimate   =    -329.45472726 Ry
     estimated scf accuracy    <       0.00000005 Ry

     iteration #  8     ecut=    30.00 Ry     beta=0.70
     Davidson diagonalization with overlap
     ethr =  8.34E-11,  avg # of iterations =  2.0

     total cpu time spent up to now is        7.4 secs

     total energy              =    -329.45472725 Ry
     Harris-Foulkes estimate   =    -329.45472724 Ry
     estimated scf accuracy    <          3.4E-09 Ry

     iteration #  9     ecut=    30.00 Ry     beta=0.70
     Davidson diagonalization with overlap
     ethr =  6.27E-12,  avg # of iterations =  2.0

     total cpu time spent up to now is        7.6 secs

     End of self-consistent calculation

          k = 0.0000 0.0000 0.0000 ( 22119 PWs)   bands (ev):

    -8.0762  -7.6376  -7.3610  -7.2000  -6.9384  -6.8365  -6.5955  -6.4874
    -6.4404  -6.0715  -5.9055  -5.7048  -5.6203  -5.5536  -5.4862  -5.3495
    -5.2758  -5.2147  -5.1612  -5.1013  -5.0318  -5.0237  -4.8889  -4.8451
    -4.6387  -4.4966  -4.2481  -3.6940  -2.5820  -2.2338  -0.3379  -0.1420
     0.2724   0.5473

     the Fermi energy is    -3.6912 ev

!    total energy              =    -329.45472727 Ry
     Harris-Foulkes estimate   =    -329.45472726 Ry
     estimated scf accuracy    <          4.3E-10 Ry

     The total energy is the sum of the following terms:

     one-electron contribution =    -611.13934641 Ry
     hartree contribution      =     327.17564906 Ry
     xc contribution           =     -51.40773694 Ry
     ewald contribution        =       5.91473375 Ry
     smearing contrib. (-TS)   =       0.00197326 Ry

     convergence has been achieved in   9 iterations

     Forces acting on atoms (Ry/au):

     atom    1 type  1   force =    -0.01234479    0.00255862   -0.00727430
     atom    2 type  1   force =     0.00398865   -0.00048349   -0.00489106
     atom    3 type  1   force =    -0.00848519   -0.00308063   -0.00083950
     atom    4 type  1   force =     0.00267577   -0.00716174    0.00169512
     atom    5 type  1   force =     0.01416556    0.00816724    0.01130974

     Total force =     0.028120     Total SCF correction =     0.000072

     number of scf cycles    =   3
     number of bfgs steps    =   2

     energy   old            =    -329.4533733152 Ry
     energy   new            =    -329.4547272679 Ry

     CASE: energy  _new < energy  _old

     new trust radius        =       0.0487426097 bohr
     new conv_thr            =       0.0000000014 Ry


ATOMIC_POSITIONS (bohr)
Au      -1.688558809   1.146140291  -0.322959082
Au      -0.184785697   3.452043947   3.963275973
Au       3.119502540   2.745945303  -0.229823671
Au       4.469499268   4.687236982   5.701284792
Au       6.118171699   0.525947477   3.200871987



     Writing output data file pwscf.save
     Check: negative starting charge=   -0.006154
     NEW-OLD atomic charge density approx. for the potential
     Check: negative starting charge=   -0.006159

     negative rho (up, down):  3.821E-04 0.000E+00

     total cpu time spent up to now is        7.8 secs

     per-process dynamical memory:    50.7 Mb

     Self-consistent Calculation

     iteration #  1     ecut=    30.00 Ry     beta=0.70
     Davidson diagonalization with overlap
     ethr =  1.00E-06,  avg # of iterations =  4.0

     negative rho (up, down):  1.306E-05 0.000E+00

     total cpu time spent up to now is        8.2 secs

     total energy              =    -329.45625190 Ry
     Harris-Foulkes estimate   =    -329.45616770 Ry
     estimated scf accuracy    <       0.00031426 Ry

     iteration #  2     ecut=    30.00 Ry     beta=0.70
     Davidson diagonalization with overlap
     ethr =  5.71E-07,  avg # of iterations =  6.0

     negative rho (up, down):  1.674E-06 0.000E+00

     total cpu time spent up to now is        8.4 secs

     total energy              =    -329.45629946 Ry
     Harris-Foulkes estimate   =    -329.45641921 Ry
     estimated scf accuracy    <       0.00026639 Ry

     iteration #  3     ecut=    30.00 Ry     beta=0.70
     Davidson diagonalization with overlap
     ethr =  4.84E-07,  avg # of iterations =  2.0

     total cpu time spent up to now is        8.7 secs

     total energy              =    -329.45635999 Ry
     Harris-Foulkes estimate   =    -329.45637240 Ry
     estimated scf accuracy    <       0.00003636 Ry

     iteration #  4     ecut=    30.00 Ry     beta=0.70
     Davidson diagonalization with overlap
     ethr =  6.61E-08,  avg # of iterations =  2.0

     total cpu time spent up to now is        8.9 secs

     total energy              =    -329.45636839 Ry
     Harris-Foulkes estimate   =    -329.45637377 Ry
     estimated scf accuracy    <       0.00001624 Ry

     iteration #  5     ecut=    30.00 Ry     beta=0.70
     Davidson diagonalization with overlap
     ethr =  2.95E-08,  avg # of iterations =  2.0

     total cpu time spent up to now is        9.1 secs

     total energy              =    -329.45637148 Ry
     Harris-Foulkes estimate   =    -329.45637244 Ry
     estimated scf accuracy    <       0.00000335 Ry

     iteration #  6     ecut=    30.00 Ry     beta=0.70
     Davidson diagonalization with overlap
     ethr =  6.09E-09,  avg # of iterations =  2.0

     total cpu time spent up to now is        9.3 secs

     total energy              =    -329.45637217 Ry
     Harris-Foulkes estimate   =    -329.45637234 Ry
     estimated scf accuracy    <       0.00000049 Ry

     iteration #  7     ecut=    30.00 Ry     beta=0.70
     Davidson diagonalization with overlap
     ethr =  8.90E-10,  avg # of iterations =  2.0

     total cpu time spent up to now is        9.5 secs

     total energy              =    -329.45637199 Ry
     Harris-Foulkes estimate   =    -329.45637230 Ry
     estimated scf accuracy    <       0.00000009 Ry

     iteration #  8     ecut=    30.00 Ry     beta=0.70
     Davidson diagonalization with overlap
     ethr =  1.58E-10,  avg # of iterations =  2.0

     total cpu time spent up to now is        9.7 secs

     total energy              =    -329.45637199 Ry
     Harris-Foulkes estimate   =    -329.45637201 Ry
     estimated scf accuracy    <       0.00000001 Ry

     iteration #  9     ecut=    30.00 Ry     beta=0.70
     Davidson diagonalization with overlap
     ethr =  2.29E-11,  avg # of iterations =  2.0

     total cpu time spent up to now is        9.9 secs

     End of self-consistent calculation

          k = 0.0000 0.0000 0.0000 ( 22119 PWs)   bands (ev):

    -8.0786  -7.6377  -7.3571  -7.1924  -6.9603  -6.8212  -6.5931  -6.4837
    -6.4501  -6.0774  -5.9021  -5.6959  -5.6362  -5.5640  -5.4878  -5.3537
    -5.2787  -5.2065  -5.1619  -5.1072  -5.0453  -5.0349  -4.9060  -4.8598
    -4.6549  -4.4957  -4.2765  -3.6760  -2.5949  -2.2419  -0.3410  -0.1352
     0.2622   0.5489

     the Fermi energy is    -3.6638 ev

!    total energy              =    -329.45637201 Ry
     Harris-Foulkes estimate   =    -329.45637199 Ry
     estimated scf accuracy    <          5.6E-10 Ry

     The total energy is the sum of the following terms:

     one-electron contribution =    -610.33476665 Ry
     hartree contribution      =     326.76177257 Ry
     xc contribution           =     -51.40248942 Ry
     ewald contribution        =       5.51899451 Ry
     smearing contrib. (-TS)   =       0.00011697 Ry

     convergence has been achieved in   9 iterations

     Forces acting on atoms (Ry/au):

     atom    1 type  1   force =    -0.01119357    0.00316024   -0.00630510
     atom    2 type  1   force =     0.00336496   -0.00039510   -0.00483087
     atom    3 type  1   force =    -0.00378638   -0.00657803    0.00244282
     atom    4 type  1   force =     0.00096701   -0.00438460    0.00299972
     atom    5 type  1   force =     0.01064798    0.00819750    0.00569343

     Total force =     0.022706     Total SCF correction =     0.000092

     number of scf cycles    =   4
     number of bfgs steps    =   3

     energy   old            =    -329.4547272679 Ry
     energy   new            =    -329.4563720073 Ry

     CASE: energy  _new < energy  _old

     new trust radius        =       0.0731139146 bohr
     new conv_thr            =       0.0000000011 Ry


ATOMIC_POSITIONS (bohr)
Au      -1.734004173   1.156200603  -0.349819650
Au      -0.170342015   3.450663375   3.945093508
Au       3.088924677   2.733339572  -0.233515130
Au       4.477937199   4.662559189   5.708746570
Au       6.171313312   0.554551260   3.242144702



     Writing output data file pwscf.save
     Check: negative starting charge=   -0.006159
     NEW-OLD atomic charge density approx. for the potential
     Check: negative starting charge=   -0.006175

     negative rho (up, down):  8.324E-04 0.000E+00

     total cpu time spent up to now is       10.1 secs

     per-process dynamical memory:    50.7 Mb

     Self-consistent Calculation

     iteration #  1     ecut=    30.00 Ry     beta=0.70
     Davidson diagonalization with overlap
     ethr =  1.00E-06,  avg # of iterations =  6.0

     negative rho (up, down):  4.998E-05 0.000E+00

     total cpu time spent up to now is       10.5 secs

     total energy              =    -329.45776476 Ry
     Harris-Foulkes estimate   =    -329.45737997 Ry
     estimated scf accuracy    <       0.00077250 Ry

     iteration #  2     ecut=    30.00 Ry     beta=0.70
     Davidson diagonalization with overlap
     ethr =  1.40E-06,  avg # of iterations =  8.0

     negative rho (up, down):  1.065E-05 0.000E+00

     total cpu time spent up to now is       10.8 secs

     total energy              =    -329.45787912 Ry
     Harris-Foulkes estimate   =    -329.45818414 Ry
     estimated scf accuracy    <       0.00066923 Ry

     iteration #  3     ecut=    30.00 Ry     beta=0.70
     Davidson diagonalization with overlap
     ethr =  1.22E-06,  avg # of iterations =  2.0

     negative rho (up, down):  1.278E-07 0.000E+00

     total cpu time spent up to now is       11.1 secs

     total energy              =    -329.45802885 Ry
     Harris-Foulkes estimate   =    -329.45805750 Ry
     estimated scf accuracy    <       0.00008647 Ry

     iteration #  4     ecut=    30.00 Ry     beta=0.70
     Davidson diagonalization with overlap
     ethr =  1.57E-07,  avg # of iterations =  2.0

     total cpu time spent up to now is       11.3 secs

     total energy              =    -329.45804684 Ry
     Harris-Foulkes estimate   =    -329.45806516 Ry
     estimated scf accuracy    <       0.00005574 Ry

     iteration #  5     ecut=    30.00 Ry     beta=0.70
     Davidson diagonalization with overlap
     ethr =  1.01E-07,  avg # of iterations =  2.0

     total cpu time spent up to now is       11.5 secs

     total energy              =    -329.45805605 Ry
     Harris-Foulkes estimate   =    -329.45806072 Ry
     estimated scf accuracy    <       0.00001289 Ry

     iteration #  6     ecut=    30.00 Ry     beta=0.70
     Davidson diagonalization with overlap
     ethr =  2.34E-08,  avg # of iterations =  2.0

     total cpu time spent up to now is       11.7 secs

     total energy              =    -329.45805848 Ry
     Harris-Foulkes estimate   =    -329.45805860 Ry
     estimated scf accuracy    <       0.00000059 Ry

     iteration #  7     ecut=    30.00 Ry     beta=0.70
     Davidson diagonalization with overlap
     ethr =  1.08E-09,  avg # of iterations =  3.0

     total cpu time spent up to now is       11.9 secs

     total energy              =    -329.45805859 Ry
     Harris-Foulkes estimate   =    -329.45805876 Ry
     estimated scf accuracy    <       0.00000017 Ry

     iteration #  8     ecut=    30.00 Ry     beta=0.70
     Davidson diagonalization with overlap
     ethr =  3.18E-10,  avg # of iterations =  2.0

     total cpu time spent up to now is       12.1 secs

     total energy              =    -329.45805858 Ry
     Harris-Foulkes estimate   =    -329.45805864 Ry
     estimated scf accuracy    <       0.00000004 Ry

     iteration #  9     ecut=    30.00 Ry     beta=0.70
     Davidson diagonalization with overlap
     ethr =  6.40E-11,  avg # of iterations =  2.0

     total cpu time spent up to now is       12.3 secs

     total energy              =    -329.45805857 Ry
     Harris-Foulkes estimate   =    -329.45805859 Ry
     estimated scf accuracy    <          2.3E-09 Ry

     iteration # 10     ecut=    30.00 Ry     beta=0.70
     Davidson diagonalization with overlap
     ethr =  4.10E-12,  avg # of iterations =  3.0

     total cpu time spent up to now is       12.6 secs

     total energy              =    -329.45805859 Ry
     Harris-Foulkes estimate   =    -329.45805857 Ry
     estimated scf accuracy    <          1.4E-09 Ry

     iteration # 11     ecut=    30.00 Ry     beta=0.70
     Davidson diagonalization with overlap
     ethr =  2.55E-12,  avg # of iterations =  2.0

     total cpu time spent up to now is       12.8 secs

     End of self-consistent calculation

          k = 0.0000 0.0000 0.0000 ( 22119 PWs)   bands (ev):

    -8.0863  -7.6437  -7.3581  -7.1900  -6.9928  -6.7957  -6.5931  -6.4909
    -6.4547  -6.0874  -5.8958  -5.6875  -5.6597  -5.5775  -5.4879  -5.3627
    -5.2831  -5.1977  -5.1588  -5.1146  -5.0671  -5.0446  -4.9309  -4.8790
    -4.6809  -4.4922  -4.3201  -3.6502  -2.6135  -2.2506  -0.3466  -0.1252
     0.2476   0.5516

     the Fermi energy is    -3.6250 ev

!    total energy              =    -329.45805862 Ry
     Harris-Foulkes estimate   =    -329.45805859 Ry
     estimated scf accuracy    <          1.7E-10 Ry

     The total energy is the sum of the following terms:

     one-electron contribution =    -609.23791097 Ry
     hartree contribution      =     326.19510950 Ry
     xc contribution           =     -51.39590386 Ry
     ewald contribution        =       4.98323845 Ry
     smearing contrib. (-TS)   =      -0.00259173 Ry

     convergence has been achieved in  11 iterations

     Forces acting on atoms (Ry/au):

     atom    1 type  1   force =    -0.00775686    0.00351565   -0.00350861
     atom    2 type  1   force =     0.00195301    0.00012117   -0.00458837
     atom    3 type  1   force =     0.00095866   -0.01046804    0.00505832
     atom    4 type  1   force =    -0.00205275    0.00011429    0.00498258
     atom    5 type  1   force =     0.00689795    0.00671693   -0.00194392

     Total force =     0.019270     Total SCF correction =     0.000047

     number of scf cycles    =   5
     number of bfgs steps    =   4

     energy   old            =    -329.4563720073 Ry
     energy   new            =    -329.4580586207 Ry

     CASE: energy  _new < energy  _old

     new trust radius        =       0.0939197866 bohr
     new conv_thr            =       0.0000000010 Ry


ATOMIC_POSITIONS (bohr)
Au      -1.795363356   1.172395782  -0.384403237
Au      -0.151598458   3.449716487   3.918033751
Au       3.053700574   2.705102848  -0.232903030
Au       4.483828751   4.635438520   5.724659679
Au       6.243261489   0.594660363   3.287262837



     Writing output data file pwscf.save
     Check: negative starting charge=   -0.006175
     NEW-OLD atomic charge density approx. for the potential
     Check: negative starting charge=   -0.006166

     negative rho (up, down):  1.302E-03 0.000E+00

     total cpu time spent up to now is       13.0 secs

     per-process dynamical memory:    50.7 Mb

     Self-consistent Calculation

     iteration #  1     ecut=    30.00 Ry     beta=0.70
     Davidson diagonalization with overlap
     ethr =  1.00E-06,  avg # of iterations =  7.0

     negative rho (up, down):  9.999E-05 0.000E+00

     total cpu time spent up to now is       13.4 secs

     total energy              =    -329.45885064 Ry
     Harris-Foulkes estimate   =    -329.45816422 Ry
     estimated scf accuracy    <       0.00138975 Ry

     iteration #  2     ecut=    30.00 Ry     beta=0.70
     Davidson diagonalization with overlap
     ethr =  2.53E-06,  avg # of iterations =  8.0

     negative rho (up, down):  2.618E-05 0.000E+00

     total cpu time spent up to now is       13.7 secs

     total energy              =    -329.45907884 Ry
     Harris-Foulkes estimate   =    -329.45963050 Ry
     estimated scf accuracy    <       0.00121962 Ry

     iteration #  3     ecut=    30.00 Ry     beta=0.70
     Davidson diagonalization with overlap
     ethr =  2.22E-06,  avg # of iterations =  2.0

     negative rho (up, down):  8.927E-07 0.000E+00

     total cpu time spent up to now is       14.0 secs

     total energy              =    -329.45934094 Ry
     Harris-Foulkes estimate   =    -329.45939350 Ry
     estimated scf accuracy    <       0.00014621 Ry

     iteration #  4     ecut=    30.00 Ry     beta=0.70
     Davidson diagonalization with overlap
     ethr =  2.66E-07,  avg # of iterations =  2.0

     total cpu time spent up to now is       14.2 secs

     total energy              =    -329.45937019 Ry
     Harris-Foulkes estimate   =    -329.45940716 Ry
     estimated scf accuracy    <       0.00011583 Ry

     iteration #  5     ecut=    30.00 Ry     beta=0.70
     Davidson diagonalization with overlap
     ethr =  2.11E-07,  avg # of iterations =  2.0

     total cpu time spent up to now is       14.4 secs

     total energy              =    -329.45938979 Ry
     Harris-Foulkes estimate   =    -329.45939780 Ry
     estimated scf accuracy    <       0.00002401 Ry

     iteration #  6     ecut=    30.00 Ry     beta=0.70
     Davidson diagonalization with overlap
     ethr =  4.37E-08,  avg # of iterations =  2.0

     total cpu time spent up to now is       14.6 secs

     total energy              =    -329.45939412 Ry
     Harris-Foulkes estimate   =    -329.45939426 Ry
     estimated scf accuracy    <       0.00000070 Ry

     iteration #  7     ecut=    30.00 Ry     beta=0.70
     Davidson diagonalization with overlap
     ethr =  1.28E-09,  avg # of iterations =  3.0

     total cpu time spent up to now is       14.8 secs

     total energy              =    -329.45939447 Ry
     Harris-Foulkes estimate   =    -329.45939454 Ry
     estimated scf accuracy    <       0.00000033 Ry

     iteration #  8     ecut=    30.00 Ry     beta=0.70
     Davidson diagonalization with overlap
     ethr =  6.07E-10,  avg # of iterations =  2.0

     total cpu time spent up to now is       15.0 secs

     total energy              =    -329.45939452 Ry
     Harris-Foulkes estimate   =    -329.45939456 Ry
     estimated scf accuracy    <       0.00000007 Ry

     iteration #  9     ecut=    30.00 Ry     beta=0.70
     Davidson diagonalization with overlap
     ethr =  1.22E-10,  avg # of iterations =  2.0

     total cpu time spent up to now is       15.2 secs

     total energy              =    -329.45939449 Ry
     Harris-Foulkes estimate   =    -329.45939454 Ry
     estimated scf accuracy    <          4.1E-09 Ry

     iteration # 10     ecut=    30.00 Ry     beta=0.70
     Davidson diagonalization with overlap
     ethr =  7.45E-12,  avg # of iterations =  3.0

     total cpu time spent up to now is       15.5 secs

     total energy              =    -329.45939448 Ry
     Harris-Foulkes estimate   =    -329.45939449 Ry
     estimated scf accuracy    <          2.1E-09 Ry

     iteration # 11     ecut=    30.00 Ry     beta=0.70
     Davidson diagonalization with overlap
     ethr =  3.90E-12,  avg # of iterations =  2.0

     total cpu time spent up to now is       15.7 secs

     End of self-consistent calculation

          k = 0.0000 0.0000 0.0000 ( 22119 PWs)   bands (ev):

    -8.0970  -7.6522  -7.3633  -7.1928  -7.0291  -6.7575  -6.5933  -6.5048
    -6.4500  -6.0974  -5.8832  -5.6999  -5.6643  -5.5877  -5.4851  -5.3738
    -5.2833  -5.1938  -5.1531  -5.1201  -5.0828  -5.0507  -4.9548  -4.8964
    -4.7121  -4.4834  -4.3702  -3.6236  -2.6329  -2.2540  -0.3537  -0.1145
     0.2327   0.5541

     the Fermi energy is    -3.5886 ev

!    total energy              =    -329.45939447 Ry
     Harris-Foulkes estimate   =    -329.45939448 Ry
     estimated scf accuracy    <          1.9E-10 Ry

     The total energy is the sum of the following terms:

     one-electron contribution =    -607.91453186 Ry
     hartree contribution      =     325.51723177 Ry
     xc contribution           =     -51.39074384 Ry
     ewald contribution        =       4.33347451 Ry
     smearing contrib. (-TS)   =      -0.00482506 Ry

     convergence has been achieved in  11 iterations

     Forces acting on atoms (Ry/au):

     atom    1 type  1   force =    -0.00590834    0.00486491   -0.00181775
     atom    2 type  1   force =     0.00042418    0.00034812   -0.00320972
     atom    3 type  1   force =     0.00488400   -0.01334920    0.00617458
     atom    4 type  1   force =    -0.00501883    0.00454666    0.00806427
     atom    5 type  1   force =     0.00561899    0.00358951   -0.00921138

     Total force =     0.023513     Total SCF correction =     0.000052

     number of scf cycles    =   6
     number of bfgs steps    =   5

     energy   old            =    -329.4580586206 Ry
     energy   new            =    -329.4593944666 Ry

     CASE: energy  _new < energy  _old

     new trust radius        =       0.1033117653 bohr
     new conv_thr            =       0.0000000013 Ry


ATOMIC_POSITIONS (bohr)
Au      -1.866889464   1.195358295  -0.423071941
Au      -0.131687231   3.449236829   3.886691274
Au       3.019953414   2.661905033  -0.228166379
Au       4.484020115   4.612244352   5.751317308
Au       6.328432166   0.638569491   3.325879738



     Writing output data file pwscf.save
     Check: negative starting charge=   -0.006166
     NEW-OLD atomic charge density approx. for the potential
     Check: negative starting charge=   -0.006137

     negative rho (up, down):  1.618E-03 0.000E+00

     total cpu time spent up to now is       15.9 secs

     per-process dynamical memory:    50.7 Mb

     Self-consistent Calculation

     iteration #  1     ecut=    30.00 Ry     beta=0.70
     Davidson diagonalization with overlap
     ethr =  1.00E-06,  avg # of iterations =  8.0

     negative rho (up, down):  1.370E-04 0.000E+00

     total cpu time spent up to now is       16.3 secs

     total energy              =    -329.45989090 Ry
     Harris-Foulkes estimate   =    -329.45913745 Ry
     estimated scf accuracy    <       0.00191938 Ry

     iteration #  2     ecut=    30.00 Ry     beta=0.70
     Davidson diagonalization with overlap
     ethr =  3.49E-06,  avg # of iterations =  7.0

     negative rho (up, down):  4.001E-05 0.000E+00

     total cpu time spent up to now is       16.6 secs

     total energy              =    -329.46021368 Ry
     Harris-Foulkes estimate   =    -329.46101277 Ry
     estimated scf accuracy    <       0.00177362 Ry

     iteration #  3     ecut=    30.00 Ry     beta=0.70
     Davidson diagonalization with overlap
     ethr =  3.22E-06,  avg # of iterations =  2.0

     negative rho (up, down):  2.879E-06 0.000E+00

     total cpu time spent up to now is       16.9 secs

     total energy              =    -329.46057692 Ry
     Harris-Foulkes estimate   =    -329.46066489 Ry
     estimated scf accuracy    <       0.00022944 Ry

     iteration #  4     ecut=    30.00 Ry     beta=0.70
     Davidson diagonalization with overlap
     ethr =  4.17E-07,  avg # of iterations =  2.0

     total cpu time spent up to now is       17.1 secs

     total energy              =    -329.46062140 Ry
     Harris-Foulkes estimate   =    -329.46068159 Ry
     estimated scf accuracy    <       0.00019061 Ry

     iteration #  5     ecut=    30.00 Ry     beta=0.70
     Davidson diagonalization with overlap
     ethr =  3.47E-07,  avg # of iterations =  2.0

     total cpu time spent up to now is       17.3 secs

     total energy              =    -329.46065304 Ry
     Harris-Foulkes estimate   =    -329.46066367 Ry
     estimated scf accuracy    <       0.00003152 Ry

     iteration #  6     ecut=    30.00 Ry     beta=0.70
     Davidson diagonalization with overlap
     ethr =  5.73E-08,  avg # of iterations =  2.0

     total cpu time spent up to now is       17.5 secs

     total energy              =    -329.46065870 Ry
     Harris-Foulkes estimate   =    -329.46065891 Ry
     estimated scf accuracy    <       0.00000090 Ry

     iteration #  7     ecut=    30.00 Ry     beta=0.70
     Davidson diagonalization with overlap
     ethr =  1.64E-09,  avg # of iterations =  3.0

     total cpu time spent up to now is       17.7 secs

     total energy              =    -329.46065896 Ry
     Harris-Foulkes estimate   =    -329.46065925 Ry
     estimated scf accuracy    <       0.00000055 Ry

     iteration #  8     ecut=    30.00 Ry     beta=0.70
     Davidson diagonalization with overlap
     ethr =  9.96E-10,  avg # of iterations =  2.0

     total cpu time spent up to now is       17.9 secs

     total energy              =    -329.46065895 Ry
     Harris-Foulkes estimate   =    -329.46065910 Ry
     estimated scf accuracy    <       0.00000008 Ry

     iteration #  9     ecut=    30.00 Ry     beta=0.70
     Davidson diagonalization with overlap
     ethr =  1.38E-10,  avg # of iterations =  2.0

     total cpu time spent up to now is       18.2 secs

     total energy              =    -329.46065899 Ry
     Harris-Foulkes estimate   =    -329.46065896 Ry
     estimated scf accuracy    <          3.8E-09 Ry

     iteration # 10     ecut=    30.00 Ry     beta=0.70
     Davidson diagonalization with overlap
     ethr =  6.96E-12,  avg # of iterations =  3.0

     total cpu time spent up to now is       18.4 secs

     total energy              =    -329.46065899 Ry
     Harris-Foulkes estimate   =    -329.46065899 Ry
     estimated scf accuracy    <          1.8E-09 Ry

     iteration # 11     ecut=    30.00 Ry     beta=0.70
     Davidson diagonalization with overlap
     ethr =  3.30E-12,  avg # of iterations =  2.0

     total cpu time spent up to now is       18.6 secs

     End of self-consistent calculation

          k = 0.0000 0.0000 0.0000 ( 22119 PWs)   bands (ev):

    -8.1041  -7.6528  -7.3675  -7.1892  -7.0604  -6.7124  -6.5906  -6.5071
    -6.4372  -6.0999  -5.8654  -5.7236  -5.6507  -5.5903  -5.4808  -5.3851
    -5.2796  -5.1920  -5.1534  -5.1245  -5.0861  -5.0553  -4.9749  -4.9107
    -4.7450  -4.4779  -4.4151  -3.6046  -2.6517  -2.2526  -0.3611  -0.1062
     0.2201   0.5539

     the Fermi energy is    -3.5647 ev

!    total energy              =    -329.46065903 Ry
     Harris-Foulkes estimate   =    -329.46065899 Ry
     estimated scf accuracy    <          2.0E-10 Ry

     The total energy is the sum of the following terms:

     one-electron contribution =    -606.11428131 Ry
     hartree contribution      =     324.60792560 Ry
     xc contribution           =     -51.38633047 Ry
     ewald contribution        =       3.43808128 Ry
     smearing contrib. (-TS)   =      -0.00605413 Ry

     convergence has been achieved in  11 iterations

     Forces acting on atoms (Ry/au):

     atom    1 type  1   force =    -0.00432503    0.00618114   -0.00060284
     atom    2 type  1   force =    -0.00114917    0.00030853   -0.00135207
     atom    3 type  1   force =     0.00822154   -0.01559832    0.00644860
     atom    4 type  1   force =    -0.00737158    0.00708050    0.01048027
     atom    5 type  1   force =     0.00462425    0.00202815   -0.01497397

     Total force =     0.029615     Total SCF correction =     0.000053

     number of scf cycles    =   7
     number of bfgs steps    =   6

     energy   old            =    -329.4593944666 Ry
     energy   new            =    -329.4606590339 Ry

     CASE: energy  _new < energy  _old

     new trust radius        =       0.1549676479 bohr
     new conv_thr            =       0.0000000013 Ry


ATOMIC_POSITIONS (bohr)
Au      -1.977441747   1.236496055  -0.481139635
Au      -0.103959954   3.448862220   3.839862390
Au       2.977223759   2.582258284  -0.216999438
Au       4.475964253   4.585021932   5.802700822
Au       6.462042690   0.704675509   3.368225861



     Writing output data file pwscf.save
     Check: negative starting charge=   -0.006137
     NEW-OLD atomic charge density approx. for the potential
     Check: negative starting charge=   -0.006143

     negative rho (up, down):  3.106E-03 0.000E+00

     total cpu time spent up to now is       18.8 secs

     per-process dynamical memory:    50.7 Mb

     Self-consistent Calculation

     iteration #  1     ecut=    30.00 Ry     beta=0.70
     Davidson diagonalization with overlap
     ethr =  1.00E-06,  avg # of iterations =  9.0

     negative rho (up, down):  3.453E-04 0.000E+00

     total cpu time spent up to now is       19.3 secs

     total energy              =    -329.45963038 Ry
     Harris-Foulkes estimate   =    -329.46531281 Ry
     estimated scf accuracy    <       0.00457053 Ry

     iteration #  2     ecut=    30.00 Ry     beta=0.70
     Davidson diagonalization with overlap
     ethr =  8.31E-06,  avg # of iterations =  5.0

     negative rho (up, down):  1.261E-04 0.000E+00

     total cpu time spent up to now is       19.6 secs

     total energy              =    -329.46097615 Ry
     Harris-Foulkes estimate   =    -329.46288684 Ry
     estimated scf accuracy    <       0.00437968 Ry

     iteration #  3     ecut=    30.00 Ry     beta=0.70
     Davidson diagonalization with overlap
     ethr =  7.96E-06,  avg # of iterations =  2.0

     negative rho (up, down):  2.513E-05 0.000E+00

     total cpu time spent up to now is       19.8 secs

     total energy              =    -329.46182803 Ry
     Harris-Foulkes estimate   =    -329.46217236 Ry
     estimated scf accuracy    <       0.00091596 Ry

     iteration #  4     ecut=    30.00 Ry     beta=0.70
     Davidson diagonalization with overlap
     ethr =  1.67E-06,  avg # of iterations =  3.0

     negative rho (up, down):  1.620E-08 0.000E+00

     total cpu time spent up to now is       20.0 secs

     total energy              =    -329.46201551 Ry
     Harris-Foulkes estimate   =    -329.46216224 Ry
     estimated scf accuracy    <       0.00048511 Ry

     iteration #  5     ecut=    30.00 Ry     beta=0.70
     Davidson diagonalization with overlap
     ethr =  8.82E-07,  avg # of iterations =  2.0

     total cpu time spent up to now is       20.2 secs

     total energy              =    -329.46209325 Ry
     Harris-Foulkes estimate   =    -329.46211641 Ry
     estimated scf accuracy    <       0.00006320 Ry

     iteration #  6     ecut=    30.00 Ry     beta=0.70
     Davidson diagonalization with overlap
     ethr =  1.15E-07,  avg # of iterations =  2.0

     total cpu time spent up to now is       20.4 secs

     total energy              =    -329.46210507 Ry
     Harris-Foulkes estimate   =    -329.46210664 Ry
     estimated scf accuracy    <       0.00000288 Ry

     iteration #  7     ecut=    30.00 Ry     beta=0.70
     Davidson diagonalization with overlap
     ethr =  5.24E-09,  avg # of iterations =  3.0

     total cpu time spent up to now is       20.7 secs

     total energy              =    -329.46210590 Ry
     Harris-Foulkes estimate   =    -329.46210648 Ry
     estimated scf accuracy    <       0.00000154 Ry

     iteration #  8     ecut=    30.00 Ry     beta=0.70
     Davidson diagonalization with overlap
     ethr =  2.80E-09,  avg # of iterations =  2.0

     total cpu time spent up to now is       20.9 secs

     total energy              =    -329.46210624 Ry
     Harris-Foulkes estimate   =    -329.46210625 Ry
     estimated scf accuracy    <       0.00000012 Ry

     iteration #  9     ecut=    30.00 Ry     beta=0.70
     Davidson diagonalization with overlap
     ethr =  2.10E-10,  avg # of iterations =  3.0

     total cpu time spent up to now is       21.1 secs

     total energy              =    -329.46210638 Ry
     Harris-Foulkes estimate   =    -329.46210627 Ry
     estimated scf accuracy    <          7.4E-09 Ry

     iteration # 10     ecut=    30.00 Ry     beta=0.70
     Davidson diagonalization with overlap
     ethr =  1.35E-11,  avg # of iterations =  3.0

     total cpu time spent up to now is       21.4 secs

     total energy              =    -329.46210641 Ry
     Harris-Foulkes estimate   =    -329.46210638 Ry
     estimated scf accuracy    <          3.1E-09 Ry

     iteration # 11     ecut=    30.00 Ry     beta=0.70
     Davidson diagonalization with overlap
     ethr =  5.65E-12,  avg # of iterations =  2.0

     total cpu time spent up to now is       21.5 secs

     End of self-consistent calculation

          k = 0.0000 0.0000 0.0000 ( 22119 PWs)   bands (ev):

    -8.1076  -7.6380  -7.3677  -7.1714  -7.0979  -6.6588  -6.5780  -6.4822
    -6.4107  -6.0959  -5.8373  -5.7463  -5.6274  -5.5828  -5.4739  -5.4035
    -5.2730  -5.1903  -5.1624  -5.1305  -5.0810  -5.0616  -4.9994  -4.9298
    -4.7929  -4.5133  -4.4365  -3.5900  -2.6813  -2.2455  -0.3719  -0.1000
     0.2042   0.5498

     the Fermi energy is    -3.5473 ev

!    total energy              =    -329.46210638 Ry
     Harris-Foulkes estimate   =    -329.46210641 Ry
     estimated scf accuracy    <          2.9E-10 Ry

     The total energy is the sum of the following terms:

     one-electron contribution =    -602.86613322 Ry
     hartree contribution      =     322.97828492 Ry
     xc contribution           =     -51.37928609 Ry
     ewald contribution        =       1.81183883 Ry
     smearing contrib. (-TS)   =      -0.00681083 Ry

     convergence has been achieved in  11 iterations

     Forces acting on atoms (Ry/au):

     atom    1 type  1   force =     0.00366990    0.00894908    0.00155018
     atom    2 type  1   force =    -0.00375139    0.00051480    0.00127984
     atom    3 type  1   force =     0.01077698   -0.02012559    0.00633601
     atom    4 type  1   force =    -0.00933616    0.00782839    0.01079353
     atom    5 type  1   force =    -0.00135932    0.00283333   -0.01995956

     Total force =     0.036694     Total SCF correction =     0.000070

     number of scf cycles    =   8
     number of bfgs steps    =   7

     energy   old            =    -329.4606590339 Ry
     energy   new            =    -329.4621063828 Ry

     CASE: energy  _new < energy  _old

     new trust radius        =       0.0746734328 bohr
     new conv_thr            =       0.0000000014 Ry


ATOMIC_POSITIONS (bohr)
Au      -2.027184806   1.267807215  -0.507736960
Au      -0.094798369   3.449690424   3.817713615
Au       2.967883004   2.518219235  -0.204833022
Au       4.460120882   4.581624222   5.841539107
Au       6.527808290   0.739972905   3.365967261



     Writing output data file pwscf.save
     Check: negative starting charge=   -0.006143
     NEW-OLD atomic charge density approx. for the potential
     Check: negative starting charge=   -0.006138

     negative rho (up, down):  1.265E-03 0.000E+00

     total cpu time spent up to now is       21.8 secs

     per-process dynamical memory:    50.7 Mb

     Self-consistent Calculation

     iteration #  1     ecut=    30.00 Ry     beta=0.70
     Davidson diagonalization with overlap
     ethr =  1.00E-06,  avg # of iterations =  8.0

     negative rho (up, down):  9.597E-05 0.000E+00

     total cpu time spent up to now is       22.3 secs

     total energy              =    -329.46315812 Ry
     Harris-Foulkes estimate   =    -329.46269585 Ry
     estimated scf accuracy    <       0.00160888 Ry

     iteration #  2     ecut=    30.00 Ry     beta=0.70
     Davidson diagonalization with overlap
     ethr =  2.93E-06,  avg # of iterations =  5.0

     negative rho (up, down):  2.619E-05 0.000E+00

     total cpu time spent up to now is       22.5 secs

     total energy              =    -329.46344068 Ry
     Harris-Foulkes estimate   =    -329.46415211 Ry
     estimated scf accuracy    <       0.00156228 Ry

     iteration #  3     ecut=    30.00 Ry     beta=0.70
     Davidson diagonalization with overlap
     ethr =  2.84E-06,  avg # of iterations =  2.0

     negative rho (up, down):  3.031E-06 0.000E+00

     total cpu time spent up to now is       22.7 secs

     total energy              =    -329.46373318 Ry
     Harris-Foulkes estimate   =    -329.46383172 Ry
     estimated scf accuracy    <       0.00023773 Ry

     iteration #  4     ecut=    30.00 Ry     beta=0.70
     Davidson diagonalization with overlap
     ethr =  4.32E-07,  avg # of iterations =  2.0

     total cpu time spent up to now is       22.9 secs

     total energy              =    -329.46378271 Ry
     Harris-Foulkes estimate   =    -329.46383330 Ry
     estimated scf accuracy    <       0.00016585 Ry

     iteration #  5     ecut=    30.00 Ry     beta=0.70
     Davidson diagonalization with overlap
     ethr =  3.02E-07,  avg # of iterations =  2.0

     total cpu time spent up to now is       23.1 secs

     total energy              =    -329.46380857 Ry
     Harris-Foulkes estimate   =    -329.46381541 Ry
     estimated scf accuracy    <       0.00001893 Ry

     iteration #  6     ecut=    30.00 Ry     beta=0.70
     Davidson diagonalization with overlap
     ethr =  3.44E-08,  avg # of iterations =  2.0

     total cpu time spent up to now is       23.3 secs

     total energy              =    -329.46381230 Ry
     Harris-Foulkes estimate   =    -329.46381254 Ry
     estimated scf accuracy    <       0.00000058 Ry

     iteration #  7     ecut=    30.00 Ry     beta=0.70
     Davidson diagonalization with overlap
     ethr =  1.05E-09,  avg # of iterations =  3.0

     total cpu time spent up to now is       23.6 secs

     total energy              =    -329.46381266 Ry
     Harris-Foulkes estimate   =    -329.46381261 Ry
     estimated scf accuracy    <       0.00000031 Ry

     iteration #  8     ecut=    30.00 Ry     beta=0.70
     Davidson diagonalization with overlap
     ethr =  5.61E-10,  avg # of iterations =  2.0

     total cpu time spent up to now is       23.8 secs

     total energy              =    -329.46381278 Ry
     Harris-Foulkes estimate   =    -329.46381275 Ry
     estimated scf accuracy    <       0.00000005 Ry

     iteration #  9     ecut=    30.00 Ry     beta=0.70
     Davidson diagonalization with overlap
     ethr =  9.60E-11,  avg # of iterations =  2.0

     total cpu time spent up to now is       24.0 secs

     total energy              =    -329.46381285 Ry
     Harris-Foulkes estimate   =    -329.46381279 Ry
     estimated scf accuracy    <          3.5E-09 Ry

     iteration # 10     ecut=    30.00 Ry     beta=0.70
     Davidson diagonalization with overlap
     ethr =  6.33E-12,  avg # of iterations =  3.0

     total cpu time spent up to now is       24.3 secs

     total energy              =    -329.46381288 Ry
     Harris-Foulkes estimate   =    -329.46381286 Ry
     estimated scf accuracy    <          1.5E-09 Ry

     iteration # 11     ecut=    30.00 Ry     beta=0.70
     Davidson diagonalization with overlap
     ethr =  2.68E-12,  avg # of iterations =  2.0

     total cpu time spent up to now is       24.5 secs

     End of self-consistent calculation

          k = 0.0000 0.0000 0.0000 ( 22119 PWs)   bands (ev):

    -8.1087  -7.6184  -7.3633  -7.1556  -7.1126  -6.6515  -6.5627  -6.4621
    -6.3847  -6.0876  -5.8229  -5.7504  -5.6255  -5.5732  -5.4764  -5.4170
    -5.2686  -5.1897  -5.1691  -5.1318  -5.0851  -5.0655  -5.0057  -4.9363
    -4.8159  -4.5364  -4.4349  -3.6003  -2.6833  -2.2424  -0.3784  -0.1052
     0.2049   0.5487

     the Fermi energy is    -3.5578 ev

!    total energy              =    -329.46381292 Ry
     Harris-Foulkes estimate   =    -329.46381288 Ry
     estimated scf accuracy    <          8.9E-11 Ry

     The total energy is the sum of the following terms:

     one-electron contribution =    -601.17368362 Ry
     hartree contribution      =     322.13172716 Ry
     xc contribution           =     -51.37539110 Ry
     ewald contribution        =       0.96028621 Ry
     smearing contrib. (-TS)   =      -0.00675157 Ry

     convergence has been achieved in  11 iterations

     Forces acting on atoms (Ry/au):

     atom    1 type  1   force =     0.00624023    0.00996998    0.00299526
     atom    2 type  1   force =    -0.00505552    0.00018494    0.00218117
     atom    3 type  1   force =     0.01032306   -0.02020355    0.00565178
     atom    4 type  1   force =    -0.00859756    0.00469198    0.00793919
     atom    5 type  1   force =    -0.00291021    0.00535665   -0.01876741

     Total force =     0.035675     Total SCF correction =     0.000043

     number of scf cycles    =   9
     number of bfgs steps    =   8

     energy   old            =    -329.4621063828 Ry
     energy   new            =    -329.4638129199 Ry

     CASE: energy  _new < energy  _old


     WARNING: bfgs curvature condition failed, Theta= 0.950
     new trust radius        =       0.0821407760 bohr
     new conv_thr            =       0.0000000017 Ry


ATOMIC_POSITIONS (bohr)
Au      -2.075166673   1.307604289  -0.533072464
Au      -0.088885175   3.450679873   3.795691630
Au       2.964049099   2.437718130  -0.188959131
Au       4.437890108   4.580092648   5.886620660
Au       6.595941641   0.781219060   3.352369305



     Writing output data file pwscf.save
     Check: negative starting charge=   -0.006138
     NEW-OLD atomic charge density approx. for the potential
     Check: negative starting charge=   -0.006117

     negative rho (up, down):  1.561E-03 0.000E+00

     total cpu time spent up to now is       24.7 secs

     per-process dynamical memory:    50.7 Mb

     Self-consistent Calculation

     iteration #  1     ecut=    30.00 Ry     beta=0.70
     Davidson diagonalization with overlap
     ethr =  1.00E-06,  avg # of iterations = 10.0

     negative rho (up, down):  1.307E-04 0.000E+00

     total cpu time spent up to now is       25.1 secs

     total energy              =    -329.46518383 Ry
     Harris-Foulkes estimate   =    -329.46464360 Ry
     estimated scf accuracy    <       0.00208223 Ry

     iteration #  2     ecut=    30.00 Ry     beta=0.70
     Davidson diagonalization with overlap
     ethr =  3.79E-06,  avg # of iterations =  5.0

     negative rho (up, down):  3.772E-05 0.000E+00

     total cpu time spent up to now is       25.4 secs

     total energy              =    -329.46557448 Ry
     Harris-Foulkes estimate   =    -329.46645117 Ry
     estimated scf accuracy    <       0.00191833 Ry

     iteration #  3     ecut=    30.00 Ry     beta=0.70
     Davidson diagonalization with overlap
     ethr =  3.49E-06,  avg # of iterations =  2.0

     negative rho (up, down):  4.144E-06 0.000E+00

     total cpu time spent up to now is       25.6 secs

     total energy              =    -329.46593929 Ry
     Harris-Foulkes estimate   =    -329.46604173 Ry
     estimated scf accuracy    <       0.00024157 Ry

     iteration #  4     ecut=    30.00 Ry     beta=0.70
     Davidson diagonalization with overlap
     ethr =  4.39E-07,  avg # of iterations =  2.0

     total cpu time spent up to now is       25.8 secs

     total energy              =    -329.46598772 Ry
     Harris-Foulkes estimate   =    -329.46605762 Ry
     estimated scf accuracy    <       0.00023101 Ry

     iteration #  5     ecut=    30.00 Ry     beta=0.70
     Davidson diagonalization with overlap
     ethr =  4.20E-07,  avg # of iterations =  2.0

     total cpu time spent up to now is       26.0 secs

     total energy              =    -329.46602264 Ry
     Harris-Foulkes estimate   =    -329.46603164 Ry
     estimated scf accuracy    <       0.00002434 Ry

     iteration #  6     ecut=    30.00 Ry     beta=0.70
     Davidson diagonalization with overlap
     ethr =  4.43E-08,  avg # of iterations =  2.0

     total cpu time spent up to now is       26.2 secs

     total energy              =    -329.46602752 Ry
     Harris-Foulkes estimate   =    -329.46602769 Ry
     estimated scf accuracy    <       0.00000068 Ry

     iteration #  7     ecut=    30.00 Ry     beta=0.70
     Davidson diagonalization with overlap
     ethr =  1.24E-09,  avg # of iterations =  3.0

     total cpu time spent up to now is       26.5 secs

     total energy              =    -329.46602765 Ry
     Harris-Foulkes estimate   =    -329.46602783 Ry
     estimated scf accuracy    <       0.00000024 Ry

     iteration #  8     ecut=    30.00 Ry     beta=0.70
     Davidson diagonalization with overlap
     ethr =  4.33E-10,  avg # of iterations =  3.0

     total cpu time spent up to now is       26.7 secs

     total energy              =    -329.46602771 Ry
     Harris-Foulkes estimate   =    -329.46602772 Ry
     estimated scf accuracy    <       0.00000006 Ry

     iteration #  9     ecut=    30.00 Ry     beta=0.70
     Davidson diagonalization with overlap
     ethr =  1.10E-10,  avg # of iterations =  2.0

     total cpu time spent up to now is       27.0 secs

     total energy              =    -329.46602773 Ry
     Harris-Foulkes estimate   =    -329.46602772 Ry
     estimated scf accuracy    <          2.6E-09 Ry

     iteration # 10     ecut=    30.00 Ry     beta=0.70
     Davidson diagonalization with overlap
     ethr =  4.78E-12,  avg # of iterations =  3.0

     total cpu time spent up to now is       27.2 secs

     End of self-consistent calculation

          k = 0.0000 0.0000 0.0000 ( 22119 PWs)   bands (ev):

    -8.1105  -7.5945  -7.3599  -7.1586  -7.1033  -6.6463  -6.5424  -6.4446
    -6.3509  -6.0779  -5.8099  -5.7516  -5.6286  -5.5613  -5.4830  -5.4324
    -5.2639  -5.1880  -5.1775  -5.1322  -5.0927  -5.0690  -5.0100  -4.9398
    -4.8382  -4.5587  -4.4314  -3.6186  -2.6799  -2.2378  -0.3861  -0.1156
     0.2109   0.5491

     the Fermi energy is    -3.5770 ev

!    total energy              =    -329.46602774 Ry
     Harris-Foulkes estimate   =    -329.46602773 Ry
     estimated scf accuracy    <          5.4E-10 Ry

     The total energy is the sum of the following terms:

     one-electron contribution =    -599.48924420 Ry
     hartree contribution      =     321.29006578 Ry
     xc contribution           =     -51.37165997 Ry
     ewald contribution        =       0.11132602 Ry
     smearing contrib. (-TS)   =      -0.00651538 Ry

     convergence has been achieved in  10 iterations

     Forces acting on atoms (Ry/au):

     atom    1 type  1   force =     0.00750073    0.01059364    0.00429001
     atom    2 type  1   force =    -0.00562082    0.00011104    0.00268451
     atom    3 type  1   force =     0.00990395   -0.01877030    0.00487478
     atom    4 type  1   force =    -0.00668999    0.00099999    0.00447817
     atom    5 type  1   force =    -0.00509386    0.00706563   -0.01632748

     Total force =     0.033289     Total SCF correction =     0.000111

     number of scf cycles    =  10
     number of bfgs steps    =   9

     energy   old            =    -329.4638129199 Ry
     energy   new            =    -329.4660277413 Ry

     CASE: energy  _new < energy  _old

     new trust radius        =       0.1232111641 bohr
     new conv_thr            =       0.0000000019 Ry


ATOMIC_POSITIONS (bohr)
Au      -2.123845914   1.368177848  -0.557148399
Au      -0.088767593   3.452646040   3.772198324
Au       2.973450047   2.317517629  -0.163573059
Au       4.401423209   4.582956449   5.948196948
Au       6.671569251   0.836016034   3.312976185



     Writing output data file pwscf.save
     Check: negative starting charge=   -0.006117
     NEW-OLD atomic charge density approx. for the potential
     Check: negative starting charge=   -0.006104

     negative rho (up, down):  2.562E-03 0.000E+00

     total cpu time spent up to now is       27.4 secs

     per-process dynamical memory:    50.7 Mb

     Self-consistent Calculation

     iteration #  1     ecut=    30.00 Ry     beta=0.70
     Davidson diagonalization with overlap
     ethr =  1.00E-06,  avg # of iterations = 10.0

     negative rho (up, down):  2.659E-04 0.000E+00

     total cpu time spent up to now is       27.9 secs

     total energy              =    -329.46783560 Ry
     Harris-Foulkes estimate   =    -329.46744505 Ry
     estimated scf accuracy    <       0.00373865 Ry

     iteration #  2     ecut=    30.00 Ry     beta=0.70
     Davidson diagonalization with overlap
     ethr =  6.80E-06,  avg # of iterations =  5.0

     negative rho (up, down):  8.740E-05 0.000E+00

     total cpu time spent up to now is       28.2 secs

     total energy              =    -329.46860508 Ry
     Harris-Foulkes estimate   =    -329.47004878 Ry
     estimated scf accuracy    <       0.00322875 Ry

     iteration #  3     ecut=    30.00 Ry     beta=0.70
     Davidson diagonalization with overlap
     ethr =  5.87E-06,  avg # of iterations =  2.0

     negative rho (up, down):  6.479E-06 0.000E+00

     total cpu time spent up to now is       28.4 secs

     total energy              =    -329.46926395 Ry
     Harris-Foulkes estimate   =    -329.46936389 Ry
     estimated scf accuracy    <       0.00026092 Ry

     iteration #  4     ecut=    30.00 Ry     beta=0.70
     Davidson diagonalization with overlap
     ethr =  4.74E-07,  avg # of iterations =  3.0

     total cpu time spent up to now is       28.6 secs

     total energy              =    -329.46930400 Ry
     Harris-Foulkes estimate   =    -329.46942267 Ry
     estimated scf accuracy    <       0.00036289 Ry

     iteration #  5     ecut=    30.00 Ry     beta=0.70
     Davidson diagonalization with overlap
     ethr =  4.74E-07,  avg # of iterations =  2.0

     total cpu time spent up to now is       28.8 secs

     total energy              =    -329.46935946 Ry
     Harris-Foulkes estimate   =    -329.46938004 Ry
     estimated scf accuracy    <       0.00005957 Ry

     iteration #  6     ecut=    30.00 Ry     beta=0.70
     Davidson diagonalization with overlap
     ethr =  1.08E-07,  avg # of iterations =  2.0

     total cpu time spent up to now is       29.0 secs

     total energy              =    -329.46936904 Ry
     Harris-Foulkes estimate   =    -329.46936972 Ry
     estimated scf accuracy    <       0.00000150 Ry

     iteration #  7     ecut=    30.00 Ry     beta=0.70
     Davidson diagonalization with overlap
     ethr =  2.72E-09,  avg # of iterations =  3.0

     total cpu time spent up to now is       29.3 secs

     total energy              =    -329.46936964 Ry
     Harris-Foulkes estimate   =    -329.46937004 Ry
     estimated scf accuracy    <       0.00000069 Ry

     iteration #  8     ecut=    30.00 Ry     beta=0.70
     Davidson diagonalization with overlap
     ethr =  1.25E-09,  avg # of iterations =  3.0

     total cpu time spent up to now is       29.5 secs

     total energy              =    -329.46936957 Ry
     Harris-Foulkes estimate   =    -329.46936980 Ry
     estimated scf accuracy    <       0.00000011 Ry

     iteration #  9     ecut=    30.00 Ry     beta=0.70
     Davidson diagonalization with overlap
     ethr =  2.05E-10,  avg # of iterations =  3.0

     total cpu time spent up to now is       29.7 secs

     total energy              =    -329.46936959 Ry
     Harris-Foulkes estimate   =    -329.46936960 Ry
     estimated scf accuracy    <       0.00000001 Ry

     iteration # 10     ecut=    30.00 Ry     beta=0.70
     Davidson diagonalization with overlap
     ethr =  1.96E-11,  avg # of iterations =  2.0

     total cpu time spent up to now is       30.0 secs

     total energy              =    -329.46936956 Ry
     Harris-Foulkes estimate   =    -329.46936959 Ry
     estimated scf accuracy    <          2.3E-09 Ry

     iteration # 11     ecut=    30.00 Ry     beta=0.70
     Davidson diagonalization with overlap
     ethr =  4.16E-12,  avg # of iterations =  2.0

     total cpu time spent up to now is       30.2 secs

     End of self-consistent calculation

          k = 0.0000 0.0000 0.0000 ( 22119 PWs)   bands (ev):

    -8.1101  -7.5602  -7.3588  -7.1967  -7.0452  -6.6405  -6.5146  -6.4284
    -6.3039  -6.0611  -5.7986  -5.7447  -5.6423  -5.5447  -5.4994  -5.4484
    -5.2559  -5.1888  -5.1845  -5.1309  -5.1072  -5.0718  -5.0076  -4.9365
    -4.8613  -4.5772  -4.4251  -3.6561  -2.6624  -2.2306  -0.3965  -0.1368
     0.2298   0.5535

     the Fermi energy is    -3.6175 ev

!    total energy              =    -329.46936957 Ry
     Harris-Foulkes estimate   =    -329.46936956 Ry
     estimated scf accuracy    <          4.5E-10 Ry

     The total energy is the sum of the following terms:

     one-electron contribution =    -597.67207521 Ry
     hartree contribution      =     320.38555302 Ry
     xc contribution           =     -51.36823778 Ry
     ewald contribution        =      -0.80884426 Ry
     smearing contrib. (-TS)   =      -0.00576535 Ry

     convergence has been achieved in  11 iterations

     Forces acting on atoms (Ry/au):

     atom    1 type  1   force =     0.00922846    0.01004685    0.00502895
     atom    2 type  1   force =    -0.00499701    0.00116731    0.00204170
     atom    3 type  1   force =     0.00734900   -0.01907736    0.00442426
     atom    4 type  1   force =    -0.00351589   -0.00298461    0.00090221
     atom    5 type  1   force =    -0.00806457    0.01084782   -0.01239713

     Total force =     0.032217     Total SCF correction =     0.000078

     number of scf cycles    =  11
     number of bfgs steps    =  10

     energy   old            =    -329.4660277413 Ry
     energy   new            =    -329.4693695749 Ry

     CASE: energy  _new < energy  _old

     new trust radius        =       0.1848167461 bohr
     new conv_thr            =       0.0000000019 Ry


ATOMIC_POSITIONS (bohr)
Au      -2.186441223   1.457781019  -0.587917475
Au      -0.090319345   3.457441663   3.739271377
Au       2.988601488   2.137249486  -0.125743706
Au       4.350117186   4.584296531   6.034077121
Au       6.771870894   0.920545300   3.252962683



     Writing output data file pwscf.save
     Check: negative starting charge=   -0.006104
     NEW-OLD atomic charge density approx. for the potential
     Check: negative starting charge=   -0.006188

     negative rho (up, down):  4.264E-03 0.000E+00

     total cpu time spent up to now is       30.4 secs

     per-process dynamical memory:    50.7 Mb

     Self-consistent Calculation

     iteration #  1     ecut=    30.00 Ry     beta=0.70
     Davidson diagonalization with overlap
     ethr =  1.00E-06,  avg # of iterations = 10.0

     negative rho (up, down):  5.143E-04 0.000E+00

     total cpu time spent up to now is       30.9 secs

     total energy              =    -329.46986739 Ry
     Harris-Foulkes estimate   =    -329.47851244 Ry
     estimated scf accuracy    <       0.00758028 Ry

     iteration #  2     ecut=    30.00 Ry     beta=0.70
     Davidson diagonalization with overlap
     ethr =  1.38E-05,  avg # of iterations =  4.0

     negative rho (up, down):  1.895E-04 0.000E+00

     total cpu time spent up to now is       31.2 secs

     total energy              =    -329.47168377 Ry
     Harris-Foulkes estimate   =    -329.47435414 Ry
     estimated scf accuracy    <       0.00604488 Ry

     iteration #  3     ecut=    30.00 Ry     beta=0.70
     Davidson diagonalization with overlap
     ethr =  1.10E-05,  avg # of iterations =  2.0

     negative rho (up, down):  1.380E-05 0.000E+00

     total cpu time spent up to now is       31.4 secs

     total energy              =    -329.47296993 Ry
     Harris-Foulkes estimate   =    -329.47310603 Ry
     estimated scf accuracy    <       0.00041234 Ry

     iteration #  4     ecut=    30.00 Ry     beta=0.70
     Davidson diagonalization with overlap
     ethr =  7.50E-07,  avg # of iterations =  4.0

     total cpu time spent up to now is       31.7 secs

     total energy              =    -329.47302491 Ry
     Harris-Foulkes estimate   =    -329.47322040 Ry
     estimated scf accuracy    <       0.00055410 Ry

     iteration #  5     ecut=    30.00 Ry     beta=0.70
     Davidson diagonalization with overlap
     ethr =  7.50E-07,  avg # of iterations =  2.0

     total cpu time spent up to now is       31.9 secs

     total energy              =    -329.47311097 Ry
     Harris-Foulkes estimate   =    -329.47315514 Ry
     estimated scf accuracy    <       0.00014257 Ry

     iteration #  6     ecut=    30.00 Ry     beta=0.70
     Davidson diagonalization with overlap
     ethr =  2.59E-07,  avg # of iterations =  2.0

     total cpu time spent up to now is       32.0 secs

     total energy              =    -329.47313166 Ry
     Harris-Foulkes estimate   =    -329.47313373 Ry
     estimated scf accuracy    <       0.00000332 Ry

     iteration #  7     ecut=    30.00 Ry     beta=0.70
     Davidson diagonalization with overlap
     ethr =  6.03E-09,  avg # of iterations =  3.0

     total cpu time spent up to now is       32.3 secs

     total energy              =    -329.47313271 Ry
     Harris-Foulkes estimate   =    -329.47313350 Ry
     estimated scf accuracy    <       0.00000135 Ry

     iteration #  8     ecut=    30.00 Ry     beta=0.70
     Davidson diagonalization with overlap
     ethr =  2.45E-09,  avg # of iterations =  2.0

     total cpu time spent up to now is       32.5 secs

     total energy              =    -329.47313284 Ry
     Harris-Foulkes estimate   =    -329.47313302 Ry
     estimated scf accuracy    <       0.00000018 Ry

     iteration #  9     ecut=    30.00 Ry     beta=0.70
     Davidson diagonalization with overlap
     ethr =  3.34E-10,  avg # of iterations =  2.0

     total cpu time spent up to now is       32.7 secs

     total energy              =    -329.47313289 Ry
     Harris-Foulkes estimate   =    -329.47313289 Ry
     estimated scf accuracy    <       0.00000002 Ry

     iteration # 10     ecut=    30.00 Ry     beta=0.70
     Davidson diagonalization with overlap
     ethr =  3.47E-11,  avg # of iterations =  2.0

     total cpu time spent up to now is       33.0 secs

     total energy              =    -329.47313288 Ry
     Harris-Foulkes estimate   =    -329.47313290 Ry
     estimated scf accuracy    <          5.8E-09 Ry

     iteration # 11     ecut=    30.00 Ry     beta=0.70
     Davidson diagonalization with overlap
     ethr =  1.06E-11,  avg # of iterations =  2.0

     total cpu time spent up to now is       33.2 secs

     End of self-consistent calculation

          k = 0.0000 0.0000 0.0000 ( 22119 PWs)   bands (ev):

    -8.1045  -7.5119  -7.3629  -7.2420  -6.9526  -6.6249  -6.4742  -6.4032
    -6.2425  -6.0333  -5.8014  -5.7124  -5.6590  -5.5204  -5.5138  -5.4619
    -5.2422  -5.2022  -5.1823  -5.1344  -5.1109  -5.0704  -4.9981  -4.9267
    -4.8875  -4.6007  -4.4145  -3.7107  -2.6386  -2.2164  -0.4099  -0.1699
     0.2600   0.5681

     the Fermi energy is    -3.6788 ev

!    total energy              =    -329.47313291 Ry
     Harris-Foulkes estimate   =    -329.47313288 Ry
     estimated scf accuracy    <          7.3E-10 Ry

     The total energy is the sum of the following terms:

     one-electron contribution =    -595.15350593 Ry
     hartree contribution      =     319.14012100 Ry
     xc contribution           =     -51.36581721 Ry
     ewald contribution        =      -2.08977194 Ry
     smearing contrib. (-TS)   =      -0.00415884 Ry

     convergence has been achieved in  11 iterations

     Forces acting on atoms (Ry/au):

     atom    1 type  1   force =     0.01265012    0.00816663    0.00492473
     atom    2 type  1   force =    -0.00336392    0.00134428   -0.00002002
     atom    3 type  1   force =     0.00235358   -0.01403469    0.00378487
     atom    4 type  1   force =    -0.00063724   -0.00797431   -0.00303613
     atom    5 type  1   force =    -0.01100254    0.01249810   -0.00565345

     Total force =     0.029383     Total SCF correction =     0.000107

     number of scf cycles    =  12
     number of bfgs steps    =  11

     energy   old            =    -329.4693695750 Ry
     energy   new            =    -329.4731329114 Ry

     CASE: energy  _new < energy  _old

     new trust radius        =       0.1988208507 bohr
     new conv_thr            =       0.0000000014 Ry


ATOMIC_POSITIONS (bohr)
[...]
     estimated scf accuracy    <       0.00035802 Ry

     iteration #  3     ecut=    30.00 Ry     beta=0.70
     Davidson diagonalization with overlap
     ethr =  5.82E-07,  avg # of iterations =  2.0

     negative rho (up, down):  2.104E-07 0.000E+00

     total cpu time spent up to now is      129.2 secs

     total energy              =    -329.48638105 Ry
     Harris-Foulkes estimate   =    -329.48643659 Ry
     estimated scf accuracy    <       0.00017161 Ry

     iteration #  4     ecut=    30.00 Ry     beta=0.70
     Davidson diagonalization with overlap
     ethr =  3.12E-07,  avg # of iterations =  2.0

     total cpu time spent up to now is      129.4 secs

     total energy              =    -329.48641278 Ry
     Harris-Foulkes estimate   =    -329.48642721 Ry
     estimated scf accuracy    <       0.00006664 Ry

     iteration #  5     ecut=    30.00 Ry     beta=0.70
     Davidson diagonalization with overlap
     ethr =  1.21E-07,  avg # of iterations =  1.0

     total cpu time spent up to now is      129.6 secs

     total energy              =    -329.48642146 Ry
     Harris-Foulkes estimate   =    -329.48642242 Ry
     estimated scf accuracy    <       0.00000279 Ry

     iteration #  6     ecut=    30.00 Ry     beta=0.70
     Davidson diagonalization with overlap
     ethr =  5.08E-09,  avg # of iterations =  3.0

     total cpu time spent up to now is      129.8 secs

     total energy              =    -329.48642271 Ry
     Harris-Foulkes estimate   =    -329.48642247 Ry
     estimated scf accuracy    <       0.00000044 Ry

     iteration #  7     ecut=    30.00 Ry     beta=0.70
     Davidson diagonalization with overlap
     ethr =  7.95E-10,  avg # of iterations =  2.0

     total cpu time spent up to now is      130.0 secs

     total energy              =    -329.48642276 Ry
     Harris-Foulkes estimate   =    -329.48642283 Ry
     estimated scf accuracy    <       0.00000005 Ry

     iteration #  8     ecut=    30.00 Ry     beta=0.70
     Davidson diagonalization with overlap
     ethr =  8.78E-11,  avg # of iterations =  2.0

     total cpu time spent up to now is      130.3 secs

     total energy              =    -329.48642278 Ry
     Harris-Foulkes estimate   =    -329.48642277 Ry
     estimated scf accuracy    <          4.7E-09 Ry

     iteration #  9     ecut=    30.00 Ry     beta=0.70
     Davidson diagonalization with overlap
     ethr =  8.58E-12,  avg # of iterations =  2.0

     total cpu time spent up to now is      130.5 secs

     total energy              =    -329.48642278 Ry
     Harris-Foulkes estimate   =    -329.48642279 Ry
     estimated scf accuracy    <          5.8E-10 Ry

     iteration # 10     ecut=    30.00 Ry     beta=0.70
     Davidson diagonalization with overlap
     ethr =  1.06E-12,  avg # of iterations =  2.0

     total cpu time spent up to now is      130.7 secs

     total energy              =    -329.48642277 Ry
     Harris-Foulkes estimate   =    -329.48642279 Ry
     estimated scf accuracy    <          1.6E-10 Ry

     iteration # 11     ecut=    30.00 Ry     beta=0.70
     Davidson diagonalization with overlap
     ethr =  2.89E-13,  avg # of iterations =  3.0

     total cpu time spent up to now is      131.0 secs

     End of self-consistent calculation

          k = 0.0000 0.0000 0.0000 ( 22119 PWs)   bands (ev):

    -8.2372  -7.5494  -7.4780  -7.2981  -7.0339  -6.6504  -6.3793  -6.3474
    -6.2390  -6.1197  -6.0005  -5.7093  -5.6263  -5.6197  -5.5576  -5.4750
    -5.2637  -5.2254  -5.2139  -5.0772  -5.0632  -5.0351  -4.9428  -4.9201
    -4.8575  -4.6494  -4.3489  -3.7881  -2.5386  -2.0935  -0.4811  -0.2733
     0.3477   0.8133

     the Fermi energy is    -3.7788 ev

!    total energy              =    -329.48642277 Ry
     Harris-Foulkes estimate   =    -329.48642277 Ry
     estimated scf accuracy    <          2.9E-11 Ry

     The total energy is the sum of the following terms:

     one-electron contribution =    -597.98594059 Ry
     hartree contribution      =     320.53908152 Ry
     xc contribution           =     -51.40363558 Ry
     ewald contribution        =      -0.63635118 Ry
     smearing contrib. (-TS)   =       0.00042305 Ry

     convergence has been achieved in  11 iterations

     Forces acting on atoms (Ry/au):

     atom    1 type  1   force =    -0.00037157    0.00115016   -0.00404750
     atom    2 type  1   force =    -0.00026828   -0.00013568    0.00301099
     atom    3 type  1   force =     0.00311975   -0.00085432    0.00480410
     atom    4 type  1   force =     0.00025200    0.00016742   -0.00389072
     atom    5 type  1   force =    -0.00273190   -0.00032759    0.00012313

     Total force =     0.009130     Total SCF correction =     0.000022

     number of scf cycles    =  48
     number of bfgs steps    =  47

     energy   old            =    -329.4863337032 Ry
     energy   new            =    -329.4864227719 Ry

     CASE: energy  _new < energy  _old

     new trust radius        =       0.0311590473 bohr
     new conv_thr            =            1.0E-10 Ry


ATOMIC_POSITIONS (bohr)
Au      -1.917200324   1.866381484  -1.014476313
Au      -0.174555337   3.929300205   3.340193358
Au       2.991868903   1.207708788   0.252494213
Au       3.873966497   4.034549199   6.433086908
Au       7.059749260   1.519374323   3.301351835



     Writing output data file pwscf.save
     Check: negative starting charge=   -0.006220
     NEW-OLD atomic charge density approx. for the potential
     Check: negative starting charge=   -0.006228

     negative rho (up, down):  2.238E-04 0.000E+00

     total cpu time spent up to now is      131.2 secs

     per-process dynamical memory:    50.7 Mb

     Self-consistent Calculation

     iteration #  1     ecut=    30.00 Ry     beta=0.70
     Davidson diagonalization with overlap
     ethr =  1.00E-06,  avg # of iterations =  4.0

     negative rho (up, down):  4.387E-06 0.000E+00

     total cpu time spent up to now is      131.5 secs

     total energy              =    -329.48647883 Ry
     Harris-Foulkes estimate   =    -329.48648427 Ry
     estimated scf accuracy    <       0.00018640 Ry

     iteration #  2     ecut=    30.00 Ry     beta=0.70
     Davidson diagonalization with overlap
     ethr =  3.39E-07,  avg # of iterations =  2.0

     negative rho (up, down):  4.541E-07 0.000E+00

     total cpu time spent up to now is      131.8 secs

     total energy              =    -329.48650006 Ry
     Harris-Foulkes estimate   =    -329.48659350 Ry
     estimated scf accuracy    <       0.00020703 Ry

     iteration #  3     ecut=    30.00 Ry     beta=0.70
     Davidson diagonalization with overlap
     ethr =  3.39E-07,  avg # of iterations =  2.0

     total cpu time spent up to now is      132.0 secs

     total energy              =    -329.48653939 Ry
     Harris-Foulkes estimate   =    -329.48655415 Ry
     estimated scf accuracy    <       0.00003990 Ry

     iteration #  4     ecut=    30.00 Ry     beta=0.70
     Davidson diagonalization with overlap
     ethr =  7.26E-08,  avg # of iterations =  2.0

     total cpu time spent up to now is      132.2 secs

     total energy              =    -329.48654527 Ry
     Harris-Foulkes estimate   =    -329.48655992 Ry
     estimated scf accuracy    <       0.00006425 Ry

     iteration #  5     ecut=    30.00 Ry     beta=0.70
     Davidson diagonalization with overlap
     ethr =  7.26E-08,  avg # of iterations =  1.0

     total cpu time spent up to now is      132.4 secs

     total energy              =    -329.48655320 Ry
     Harris-Foulkes estimate   =    -329.48655429 Ry
     estimated scf accuracy    <       0.00000310 Ry

     iteration #  6     ecut=    30.00 Ry     beta=0.70
     Davidson diagonalization with overlap
     ethr =  5.63E-09,  avg # of iterations =  2.0

     total cpu time spent up to now is      132.6 secs

     total energy              =    -329.48655432 Ry
     Harris-Foulkes estimate   =    -329.48655408 Ry
     estimated scf accuracy    <       0.00000029 Ry

     iteration #  7     ecut=    30.00 Ry     beta=0.70
     Davidson diagonalization with overlap
     ethr =  5.34E-10,  avg # of iterations =  2.0

     total cpu time spent up to now is      132.8 secs

     total energy              =    -329.48655441 Ry
     Harris-Foulkes estimate   =    -329.48655440 Ry
     estimated scf accuracy    <       0.00000002 Ry

     iteration #  8     ecut=    30.00 Ry     beta=0.70
     Davidson diagonalization with overlap
     ethr =  3.28E-11,  avg # of iterations =  2.0

     total cpu time spent up to now is      133.0 secs

     total energy              =    -329.48655444 Ry
     Harris-Foulkes estimate   =    -329.48655442 Ry
     estimated scf accuracy    <          2.9E-09 Ry

     iteration #  9     ecut=    30.00 Ry     beta=0.70
     Davidson diagonalization with overlap
     ethr =  5.30E-12,  avg # of iterations =  2.0

     total cpu time spent up to now is      133.3 secs

     total energy              =    -329.48655447 Ry
     Harris-Foulkes estimate   =    -329.48655444 Ry
     estimated scf accuracy    <          4.6E-10 Ry

     iteration # 10     ecut=    30.00 Ry     beta=0.70
     Davidson diagonalization with overlap
     ethr =  8.37E-13,  avg # of iterations =  2.0

     total cpu time spent up to now is      133.5 secs

     End of self-consistent calculation

          k = 0.0000 0.0000 0.0000 ( 22119 PWs)   bands (ev):

    -8.2370  -7.5520  -7.4919  -7.3071  -7.0463  -6.6495  -6.3853  -6.3571
    -6.2467  -6.1193  -5.9958  -5.7132  -5.6239  -5.6160  -5.5578  -5.4693
    -5.2669  -5.2265  -5.2137  -5.0779  -5.0640  -5.0351  -4.9422  -4.9199
    -4.8553  -4.6459  -4.3478  -3.7891  -2.5376  -2.0868  -0.4828  -0.2738
     0.3449   0.8160

     the Fermi energy is    -3.7803 ev

!    total energy              =    -329.48655450 Ry
     Harris-Foulkes estimate   =    -329.48655447 Ry
     estimated scf accuracy    <          7.6E-11 Ry

     The total energy is the sum of the following terms:

     one-electron contribution =    -598.44647810 Ry
     hartree contribution      =     320.76700190 Ry
     xc contribution           =     -51.40507403 Ry
     ewald contribution        =      -0.40254491 Ry
     smearing contrib. (-TS)   =       0.00054064 Ry

     convergence has been achieved in  10 iterations

     Forces acting on atoms (Ry/au):

     atom    1 type  1   force =     0.00006981    0.00182141   -0.00307695
     atom    2 type  1   force =    -0.00290849   -0.00063095    0.00097964
     atom    3 type  1   force =     0.00257459   -0.00083115    0.00411641
     atom    4 type  1   force =     0.00232324    0.00011930   -0.00219877
     atom    5 type  1   force =    -0.00205916   -0.00047861    0.00017966

     Total force =     0.007850     Total SCF correction =     0.000042

     number of scf cycles    =  49
     number of bfgs steps    =  48

     energy   old            =    -329.4864227719 Ry
     energy   new            =    -329.4865544954 Ry

     CASE: energy  _new < energy  _old

     new trust radius        =       0.0342749520 bohr
     new conv_thr            =       0.0000000001 Ry


ATOMIC_POSITIONS (bohr)
Au      -1.900130730   1.872536365  -1.043554118
Au      -0.177768490   3.946648334   3.331694543
Au       2.996035003   1.203274448   0.272273777
Au       3.855405785   4.011439873   6.439152777
Au       7.060287432   1.523414980   3.313083021



     Writing output data file pwscf.save
     Check: negative starting charge=   -0.006228
     NEW-OLD atomic charge density approx. for the potential
     Check: negative starting charge=   -0.006242

     negative rho (up, down):  2.786E-04 0.000E+00

     total cpu time spent up to now is      133.7 secs

     per-process dynamical memory:    50.7 Mb

     Self-consistent Calculation

     iteration #  1     ecut=    30.00 Ry     beta=0.70
     Davidson diagonalization with overlap
     ethr =  1.00E-06,  avg # of iterations =  4.0

     negative rho (up, down):  6.760E-06 0.000E+00

     total cpu time spent up to now is      134.1 secs

     total energy              =    -329.48655930 Ry
     Harris-Foulkes estimate   =    -329.48656705 Ry
     estimated scf accuracy    <       0.00025131 Ry

     iteration #  2     ecut=    30.00 Ry     beta=0.70
     Davidson diagonalization with overlap
     ethr =  4.57E-07,  avg # of iterations =  3.0

     negative rho (up, down):  6.911E-07 0.000E+00

     total cpu time spent up to now is      134.3 secs

     total energy              =    -329.48660260 Ry
     Harris-Foulkes estimate   =    -329.48670437 Ry
     estimated scf accuracy    <       0.00022030 Ry

     iteration #  3     ecut=    30.00 Ry     beta=0.70
     Davidson diagonalization with overlap
     ethr =  4.01E-07,  avg # of iterations =  2.0

     total cpu time spent up to now is      134.5 secs

     total energy              =    -329.48664861 Ry
     Harris-Foulkes estimate   =    -329.48665663 Ry
     estimated scf accuracy    <       0.00002334 Ry

     iteration #  4     ecut=    30.00 Ry     beta=0.70
     Davidson diagonalization with overlap
     ethr =  4.24E-08,  avg # of iterations =  2.0

     total cpu time spent up to now is      134.7 secs

     total energy              =    -329.48664949 Ry
     Harris-Foulkes estimate   =    -329.48666551 Ry
     estimated scf accuracy    <       0.00006469 Ry

     iteration #  5     ecut=    30.00 Ry     beta=0.70
     Davidson diagonalization with overlap
     ethr =  4.24E-08,  avg # of iterations =  2.0

     total cpu time spent up to now is      134.9 secs

     total energy              =    -329.48665842 Ry
     Harris-Foulkes estimate   =    -329.48665970 Ry
     estimated scf accuracy    <       0.00000532 Ry

     iteration #  6     ecut=    30.00 Ry     beta=0.70
     Davidson diagonalization with overlap
     ethr =  9.67E-09,  avg # of iterations =  2.0

     total cpu time spent up to now is      135.1 secs

     total energy              =    -329.48665928 Ry
     Harris-Foulkes estimate   =    -329.48665934 Ry
     estimated scf accuracy    <       0.00000022 Ry

     iteration #  7     ecut=    30.00 Ry     beta=0.70
     Davidson diagonalization with overlap
     ethr =  4.07E-10,  avg # of iterations =  2.0

     total cpu time spent up to now is      135.4 secs

     total energy              =    -329.48665952 Ry
     Harris-Foulkes estimate   =    -329.48665936 Ry
     estimated scf accuracy    <       0.00000003 Ry

     iteration #  8     ecut=    30.00 Ry     beta=0.70
     Davidson diagonalization with overlap
     ethr =  5.43E-11,  avg # of iterations =  2.0

     total cpu time spent up to now is      135.6 secs

     total energy              =    -329.48665953 Ry
     Harris-Foulkes estimate   =    -329.48665953 Ry
     estimated scf accuracy    <          4.0E-09 Ry

     iteration #  9     ecut=    30.00 Ry     beta=0.70
     Davidson diagonalization with overlap
     ethr =  7.26E-12,  avg # of iterations =  2.0

     total cpu time spent up to now is      135.8 secs

     total energy              =    -329.48665951 Ry
     Harris-Foulkes estimate   =    -329.48665953 Ry
     estimated scf accuracy    <          4.7E-10 Ry

     iteration # 10     ecut=    30.00 Ry     beta=0.70
     Davidson diagonalization with overlap
     ethr =  8.51E-13,  avg # of iterations =  3.0

     total cpu time spent up to now is      136.0 secs

     End of self-consistent calculation

          k = 0.0000 0.0000 0.0000 ( 22119 PWs)   bands (ev):

    -8.2341  -7.5535  -7.4972  -7.3094  -7.0548  -6.6473  -6.3945  -6.3643
    -6.2455  -6.1215  -5.9917  -5.7147  -5.6253  -5.6089  -5.5594  -5.4643
    -5.2684  -5.2273  -5.2137  -5.0794  -5.0655  -5.0358  -4.9421  -4.9216
    -4.8568  -4.6432  -4.3498  -3.7891  -2.5374  -2.0858  -0.4829  -0.2735
     0.3426   0.8155

     the Fermi energy is    -3.7802 ev

!    total energy              =    -329.48665952 Ry
     Harris-Foulkes estimate   =    -329.48665951 Ry
     estimated scf accuracy    <          1.3E-10 Ry

     The total energy is the sum of the following terms:

     one-electron contribution =    -598.56919769 Ry
     hartree contribution      =     320.82643086 Ry
     xc contribution           =     -51.40500393 Ry
     ewald contribution        =      -0.33941302 Ry
     smearing contrib. (-TS)   =       0.00052426 Ry

     convergence has been achieved in  10 iterations

     Forces acting on atoms (Ry/au):

     atom    1 type  1   force =     0.00062210    0.00230746   -0.00174290
     atom    2 type  1   force =    -0.00407356   -0.00124424   -0.00015045
     atom    3 type  1   force =     0.00162735   -0.00048427    0.00323108
     atom    4 type  1   force =     0.00290695   -0.00009448   -0.00158677
     atom    5 type  1   force =    -0.00108284   -0.00048447    0.00024904

     Total force =     0.007258     Total SCF correction =     0.000039

     number of scf cycles    =  50
     number of bfgs steps    =  49

     energy   old            =    -329.4865544954 Ry
     energy   new            =    -329.4866595191 Ry

     CASE: energy  _new < energy  _old

     new trust radius        =       0.0514124280 bohr
     new conv_thr            =       0.0000000001 Ry


ATOMIC_POSITIONS (bohr)
Au      -1.876231459   1.890619264  -1.085328169
Au      -0.185344050   3.967437455   3.329507217
Au       2.995687210   1.181018771   0.307449661
Au       3.841027742   3.981339691   6.442225849
Au       7.058689557   1.536898820   3.318795442



     Writing output data file pwscf.save
     Check: negative starting charge=   -0.006242
     NEW-OLD atomic charge density approx. for the potential
     Check: negative starting charge=   -0.006257

     negative rho (up, down):  5.805E-04 0.000E+00

     Writing output data file pwscf.save
 
     init_run     :      0.16s CPU      0.18s WALL (       1 calls)
     electrons    :    118.67s CPU    126.83s WALL (      50 calls)
     update_pot   :      3.29s CPU      4.04s WALL (      50 calls)
     forces       :      2.07s CPU      2.11s WALL (      50 calls)

     Called by init_run:
     wfcinit      :      0.07s CPU      0.08s WALL (       1 calls)
     potinit      :      0.03s CPU      0.03s WALL (       1 calls)

     Called by electrons:
     c_bands      :     90.71s CPU     91.67s WALL (     531 calls)
     sum_band     :     12.38s CPU     12.70s WALL (     531 calls)
     v_of_rho     :     10.28s CPU     10.43s WALL (     577 calls)
     mix_rho      :      4.33s CPU      9.22s WALL (     531 calls)

     Called by c_bands:
     init_us_2    :      1.61s CPU      1.67s WALL (    1063 calls)
     cegterg      :     81.20s CPU     81.75s WALL (     531 calls)

     Called by sum_band:

     Called by *egterg:
     h_psi        :     62.91s CPU     63.35s WALL (    1934 calls)
     g_psi        :      0.63s CPU      0.63s WALL (    1402 calls)
     cdiaghg      :      4.52s CPU      4.53s WALL (    1879 calls)

     Called by h_psi:
     h_psi:pot    :     61.95s CPU     62.38s WALL (    1934 calls)
     h_psi:calbec :      3.44s CPU      3.44s WALL (    1934 calls)
     vloc_psi     :     54.58s CPU     54.99s WALL (    1934 calls)
     add_vuspsi   :      3.93s CPU      3.94s WALL (    1934 calls)

     General routines
     calbec       :      4.04s CPU      4.08s WALL (    2134 calls)
     fft          :      5.59s CPU      5.72s WALL (    6457 calls)
     fftw         :     57.05s CPU     57.96s WALL (  120946 calls)
     davcio       :      0.71s CPU      4.66s WALL (    5874 calls)
 
     Parallel routines
     fft_scatter  :     14.64s CPU     14.18s WALL (  127403 calls)
 
     PWSCF        :  2m 5.51s CPU     2m16.34s WALL

 
   This run was terminated on:   4:43:22   4Aug2017            

=------------------------------------------------------------------------------=
   JOB DONE.
=------------------------------------------------------------------------------=
