
     Program PWSCF v.6.0 (svn rev. 13079) starts on  3Aug2017 at 13:16:52 

     This program is part of the open-source Quantum ESPRESSO suite
     for quantum simulation of materials; please cite
         "P. Giannozzi et al., J. Phys.:Condens. Matter 21 395502 (2009);
          URL http://www.quantum-espresso.org", 
     in publications or presentations arising from this work. More details at
     http://www.quantum-espresso.org/quote

     Parallel version (MPI), running on    10 processors
     R & G space division:  proc/nbgrp/npool/nimage =      10
     Reading input from input/multi/minchecks-Gold5-127.in

     Current dimensions of program PWSCF are:
     Max number of different atomic species (ntypx) = 10
     Max number of k-points (npk) =  40000
     Max angular momentum in pseudopotentials (lmaxx) =  3
     Message from routine iosys:
     pot_extrapolation='second-order' not available, using 'atomic'
     Message from routine iosys:
     wfc_extrapolation='second-order' not available, using 'atomic'

     Subspace diagonalization in iterative solution of the eigenvalue problem:
     a serial algorithm will be used

 
     Parallelization info
     --------------------
     sticks:   dense  smooth     PW     G-vecs:    dense   smooth      PW
     Min         380     380     94                17748    17748    2208
     Max         381     381     95                17753    17753    2213
     Sum        3809    3809    949               177509   177509   22119
 


     bravais-lattice index     =            1
     lattice parameter (alat)  =      20.0000  a.u.
     unit-cell volume          =    8000.0000 (a.u.)^3
     number of atoms/cell      =            5
     number of atomic types    =            1
     number of electrons       =        55.00
     number of Kohn-Sham states=           34
     kinetic-energy cutoff     =      30.0000  Ry
     charge density cutoff     =     120.0000  Ry
     convergence threshold     =      1.0E-08
     mixing beta               =       0.7000
     number of iterations used =            8  plain     mixing
     Exchange-correlation      = BLYP ( 1  3  1  3 0 0)
     nstep                     =           50


     celldm(1)=  20.000000  celldm(2)=   0.000000  celldm(3)=   0.000000
     celldm(4)=   0.000000  celldm(5)=   0.000000  celldm(6)=   0.000000

     crystal axes: (cart. coord. in units of alat)
               a(1) = (   1.000000   0.000000   0.000000 )  
               a(2) = (   0.000000   1.000000   0.000000 )  
               a(3) = (   0.000000   0.000000   1.000000 )  

     reciprocal axes: (cart. coord. in units 2 pi/alat)
               b(1) = (  1.000000  0.000000  0.000000 )  
               b(2) = (  0.000000  1.000000  0.000000 )  
               b(3) = (  0.000000  0.000000  1.000000 )  


     PseudoPot. # 1 for Au read from file:
     ./Au.blyp-d-hgh.UPF
     MD5 check sum: c10d8bae01f806c36a1643a1c69a8479
     Pseudo is Norm-conserving, Zval = 11.0
     Generated in analytical, separable form
     Using radial grid of 1279 points,  6 beta functions with: 
                l(1) =   0
                l(2) =   0
                l(3) =   1
                l(4) =   1
                l(5) =   2
                l(6) =   2

     atomic species   valence    mass     pseudopotential
        Au            11.00    28.08600     Au( 1.00)

     No symmetry found



   Cartesian axes

     site n.     atom                  positions (alat units)
         1           Au  tau(   1) = (  -0.0818684   0.1007173  -0.0575241  )
         2           Au  tau(   2) = (  -0.0407165   0.1961761   0.1841866  )
         3           Au  tau(   3) = (   0.1544780   0.0824136   0.0457670  )
         4           Au  tau(   4) = (   0.2017113   0.1751202   0.2841744  )
         5           Au  tau(   5) = (   0.3936452   0.0652983   0.1432890  )

     number of k points=     1  Marzari-Vanderbilt smearing, width (Ry)=  0.0250
                       cart. coord. in units 2pi/alat
        k(    1) = (   0.0000000   0.0000000   0.0000000), wk =   2.0000000

     Dense  grid:   177509 G-vectors     FFT dimensions: (  72,  72,  72)

     Estimated max dynamical RAM per process >      15.04Mb

     Estimated total allocated dynamical RAM >     150.39Mb

     Initial potential from superposition of free atoms
     Check: negative starting charge=   -0.006492

     starting charge   54.99940, renormalised to   55.00000

     negative rho (up, down):  6.492E-03 0.000E+00
     Starting wfc are   45 randomized atomic wfcs

     total cpu time spent up to now is        0.4 secs

     per-process dynamical memory:    41.0 Mb

     Self-consistent Calculation

     iteration #  1     ecut=    30.00 Ry     beta=0.70
     Davidson diagonalization with overlap
     ethr =  1.00E-02,  avg # of iterations =  3.0

     Threshold (ethr) on eigenvalues was too large:
     Diagonalizing with lowered threshold

     Davidson diagonalization with overlap
     ethr =  3.95E-04,  avg # of iterations =  6.0

     negative rho (up, down):  8.904E-04 0.000E+00

     total cpu time spent up to now is        0.9 secs

     total energy              =    -329.38470126 Ry
     Harris-Foulkes estimate   =    -329.54601646 Ry
     estimated scf accuracy    <       0.27111896 Ry

     iteration #  2     ecut=    30.00 Ry     beta=0.70
     Davidson diagonalization with overlap
     ethr =  4.93E-04,  avg # of iterations =  4.0

     negative rho (up, down):  3.622E-04 0.000E+00

     total cpu time spent up to now is        1.1 secs

     total energy              =    -329.43547581 Ry
     Harris-Foulkes estimate   =    -329.54532708 Ry
     estimated scf accuracy    <       0.21692060 Ry

     iteration #  3     ecut=    30.00 Ry     beta=0.70
     Davidson diagonalization with overlap
     ethr =  3.94E-04,  avg # of iterations =  2.0

     negative rho (up, down):  1.326E-04 0.000E+00

     total cpu time spent up to now is        1.4 secs

     total energy              =    -329.47991398 Ry
     Harris-Foulkes estimate   =    -329.49476801 Ry
     estimated scf accuracy    <       0.03477207 Ry

     iteration #  4     ecut=    30.00 Ry     beta=0.70
     Davidson diagonalization with overlap
     ethr =  6.32E-05,  avg # of iterations =  5.0

     negative rho (up, down):  2.827E-06 0.000E+00

     total cpu time spent up to now is        1.6 secs

     total energy              =    -329.48739360 Ry
     Harris-Foulkes estimate   =    -329.48860676 Ry
     estimated scf accuracy    <       0.00323981 Ry

     iteration #  5     ecut=    30.00 Ry     beta=0.70
     Davidson diagonalization with overlap
     ethr =  5.89E-06,  avg # of iterations =  5.0

     total cpu time spent up to now is        1.9 secs

     total energy              =    -329.48798887 Ry
     Harris-Foulkes estimate   =    -329.48859934 Ry
     estimated scf accuracy    <       0.00152433 Ry

     iteration #  6     ecut=    30.00 Ry     beta=0.70
     Davidson diagonalization with overlap
     ethr =  2.77E-06,  avg # of iterations =  2.0

     total cpu time spent up to now is        2.1 secs

     total energy              =    -329.48827044 Ry
     Harris-Foulkes estimate   =    -329.48835419 Ry
     estimated scf accuracy    <       0.00021302 Ry

     iteration #  7     ecut=    30.00 Ry     beta=0.70
     Davidson diagonalization with overlap
     ethr =  3.87E-07,  avg # of iterations =  2.0

     total cpu time spent up to now is        2.3 secs

     total energy              =    -329.48831344 Ry
     Harris-Foulkes estimate   =    -329.48831961 Ry
     estimated scf accuracy    <       0.00001307 Ry

     iteration #  8     ecut=    30.00 Ry     beta=0.70
     Davidson diagonalization with overlap
     ethr =  2.38E-08,  avg # of iterations =  3.0

     total cpu time spent up to now is        2.5 secs

     total energy              =    -329.48831579 Ry
     Harris-Foulkes estimate   =    -329.48831832 Ry
     estimated scf accuracy    <       0.00000481 Ry

     iteration #  9     ecut=    30.00 Ry     beta=0.70
     Davidson diagonalization with overlap
     ethr =  8.75E-09,  avg # of iterations =  2.0

     total cpu time spent up to now is        2.8 secs

     total energy              =    -329.48831647 Ry
     Harris-Foulkes estimate   =    -329.48831705 Ry
     estimated scf accuracy    <       0.00000087 Ry

     iteration # 10     ecut=    30.00 Ry     beta=0.70
     Davidson diagonalization with overlap
     ethr =  1.58E-09,  avg # of iterations =  2.0

     total cpu time spent up to now is        3.0 secs

     total energy              =    -329.48831648 Ry
     Harris-Foulkes estimate   =    -329.48831676 Ry
     estimated scf accuracy    <       0.00000031 Ry

     iteration # 11     ecut=    30.00 Ry     beta=0.70
     Davidson diagonalization with overlap
     ethr =  5.59E-10,  avg # of iterations =  2.0

     total cpu time spent up to now is        3.2 secs

     End of self-consistent calculation

          k = 0.0000 0.0000 0.0000 ( 22119 PWs)   bands (ev):

    -8.4574  -7.7545  -7.7483  -7.1717  -6.7587  -6.6629  -6.5651  -6.5297
    -6.2632  -6.0985  -5.8379  -5.7532  -5.6795  -5.6325  -5.5227  -5.3273
    -5.3014  -5.2979  -5.1927  -5.1726  -5.1636  -5.1075  -5.0432  -4.9678
    -4.7972  -4.7431  -4.5503  -3.7649  -2.5215  -2.2547  -0.5484  -0.1117
     0.4573   0.8163

     the Fermi energy is    -3.7247 ev

!    total energy              =    -329.48831651 Ry
     Harris-Foulkes estimate   =    -329.48831654 Ry
     estimated scf accuracy    <          8.0E-09 Ry

     The total energy is the sum of the following terms:

     one-electron contribution =    -603.62222212 Ry
     hartree contribution      =     323.25916439 Ry
     xc contribution           =     -51.38000462 Ry
     ewald contribution        =       2.26088755 Ry
     smearing contrib. (-TS)   =      -0.00614170 Ry

     convergence has been achieved in  11 iterations

     Forces acting on atoms (Ry/au):

     atom    1 type  1   force =     0.01205878    0.00143514    0.01245026
     atom    2 type  1   force =     0.00040677   -0.00039232   -0.00177164
     atom    3 type  1   force =     0.00270060   -0.00645761   -0.01397611
     atom    4 type  1   force =     0.00224431    0.00186650    0.00436895
     atom    5 type  1   force =    -0.01741046    0.00354829   -0.00107145

     Total force =     0.029912     Total SCF correction =     0.000322

     BFGS Geometry Optimization

     number of scf cycles    =   1
     number of bfgs steps    =   0

     energy   new            =    -329.4883165098 Ry

     new trust radius        =       0.0178006272 bohr
     new conv_thr            =       0.0000000100 Ry


ATOMIC_POSITIONS (bohr)
Au      -1.625309224   2.015780145  -1.138031743
Au      -0.813922227   3.923129679   3.681959356
Au       3.092260598   1.641813386   0.901362890
Au       4.036470309   3.504270503   5.687857946
Au       7.855493544   1.309513287   2.864708552



     Writing output data file pwscf.save
     Check: negative starting charge=   -0.006492
     NEW-OLD atomic charge density approx. for the potential
     Check: negative starting charge=   -0.006484

     negative rho (up, down):  5.081E-05 0.000E+00

     total cpu time spent up to now is        3.5 secs

     per-process dynamical memory:    42.9 Mb

     Self-consistent Calculation

     iteration #  1     ecut=    30.00 Ry     beta=0.70
     Davidson diagonalization with overlap
     ethr =  1.00E-06,  avg # of iterations =  4.0

     negative rho (up, down):  2.438E-07 0.000E+00

     total cpu time spent up to now is        3.8 secs

     total energy              =    -329.48912483 Ry
     Harris-Foulkes estimate   =    -329.48913546 Ry
     estimated scf accuracy    <       0.00006638 Ry

     iteration #  2     ecut=    30.00 Ry     beta=0.70
     Davidson diagonalization with overlap
     ethr =  1.21E-07,  avg # of iterations =  3.0

     negative rho (up, down):  2.907E-08 0.000E+00

     total cpu time spent up to now is        4.1 secs

     total energy              =    -329.48911707 Ry
     Harris-Foulkes estimate   =    -329.48918754 Ry
     estimated scf accuracy    <       0.00017806 Ry

     iteration #  3     ecut=    30.00 Ry     beta=0.70
     Davidson diagonalization with overlap
     ethr =  1.21E-07,  avg # of iterations =  2.0

     total cpu time spent up to now is        4.3 secs

     total energy              =    -329.48915266 Ry
     Harris-Foulkes estimate   =    -329.48915609 Ry
     estimated scf accuracy    <       0.00001122 Ry

     iteration #  4     ecut=    30.00 Ry     beta=0.70
     Davidson diagonalization with overlap
     ethr =  2.04E-08,  avg # of iterations =  2.0

     total cpu time spent up to now is        4.5 secs

     total energy              =    -329.48915494 Ry
     Harris-Foulkes estimate   =    -329.48915567 Ry
     estimated scf accuracy    <       0.00000249 Ry

     iteration #  5     ecut=    30.00 Ry     beta=0.70
     Davidson diagonalization with overlap
     ethr =  4.52E-09,  avg # of iterations =  2.0

     total cpu time spent up to now is        4.8 secs

     total energy              =    -329.48915512 Ry
     Harris-Foulkes estimate   =    -329.48915574 Ry
     estimated scf accuracy    <       0.00000074 Ry

     iteration #  6     ecut=    30.00 Ry     beta=0.70
     Davidson diagonalization with overlap
     ethr =  1.35E-09,  avg # of iterations =  2.0

     total cpu time spent up to now is        5.0 secs

     total energy              =    -329.48915512 Ry
     Harris-Foulkes estimate   =    -329.48915528 Ry
     estimated scf accuracy    <       0.00000003 Ry

     iteration #  7     ecut=    30.00 Ry     beta=0.70
     Davidson diagonalization with overlap
     ethr =  4.84E-11,  avg # of iterations =  3.0

     total cpu time spent up to now is        5.2 secs

     total energy              =    -329.48915516 Ry
     Harris-Foulkes estimate   =    -329.48915513 Ry
     estimated scf accuracy    <       0.00000001 Ry

     iteration #  8     ecut=    30.00 Ry     beta=0.70
     Davidson diagonalization with overlap
     ethr =  1.82E-11,  avg # of iterations =  2.0

     total cpu time spent up to now is        5.4 secs

     End of self-consistent calculation

          k = 0.0000 0.0000 0.0000 ( 22119 PWs)   bands (ev):

    -8.4689  -7.7629  -7.7308  -7.1787  -6.7684  -6.6791  -6.5533  -6.5430
    -6.2664  -6.1036  -5.8535  -5.7533  -5.6877  -5.6414  -5.5232  -5.3242
    -5.3013  -5.2982  -5.1931  -5.1745  -5.1644  -5.1087  -5.0392  -4.9656
    -4.7932  -4.7481  -4.5459  -3.7615  -2.5145  -2.2517  -0.5485  -0.1169
     0.4602   0.8198

     the Fermi energy is    -3.7213 ev

!    total energy              =    -329.48915518 Ry
     Harris-Foulkes estimate   =    -329.48915516 Ry
     estimated scf accuracy    <          2.0E-09 Ry

     The total energy is the sum of the following terms:

     one-electron contribution =    -604.19884979 Ry
     hartree contribution      =     323.54401851 Ry
     xc contribution           =     -51.38190142 Ry
     ewald contribution        =       2.55372826 Ry
     smearing contrib. (-TS)   =      -0.00615074 Ry

     convergence has been achieved in   8 iterations

     Forces acting on atoms (Ry/au):

     atom    1 type  1   force =     0.01023912    0.00108301    0.01058642
     atom    2 type  1   force =     0.00125638   -0.00019737   -0.00091391
     atom    3 type  1   force =     0.00310926   -0.00588125   -0.01207026
     atom    4 type  1   force =     0.00120586    0.00181252    0.00366374
     atom    5 type  1   force =    -0.01581062    0.00318310   -0.00126599

     Total force =     0.026275     Total SCF correction =     0.000118

     number of scf cycles    =   2
     number of bfgs steps    =   1

     energy   old            =    -329.4883165098 Ry
     energy   new            =    -329.4891551839 Ry

     CASE: energy  _new < energy  _old


     WARNING: bfgs curvature condition failed, Theta= 0.913
     new trust radius        =       0.0195806899 bohr
     new conv_thr            =       0.0000000008 Ry


ATOMIC_POSITIONS (bohr)
Au      -1.612797099   2.017127513  -1.125097848
Au      -0.812547784   3.922864521   3.680738327
Au       3.095915986   1.634696827   0.886648987
Au       4.038067417   3.506445186   5.692343114
Au       7.836354480   1.313372953   2.863224420



     Writing output data file pwscf.save
     Check: negative starting charge=   -0.006484
     NEW-OLD atomic charge density approx. for the potential
     Check: negative starting charge=   -0.006473

     negative rho (up, down):  6.231E-05 0.000E+00

     total cpu time spent up to now is        5.6 secs

     per-process dynamical memory:    50.6 Mb

     Self-consistent Calculation

     iteration #  1     ecut=    30.00 Ry     beta=0.70
     Davidson diagonalization with overlap
     ethr =  1.00E-06,  avg # of iterations =  4.0

     negative rho (up, down):  3.634E-07 0.000E+00

     total cpu time spent up to now is        6.0 secs

     total energy              =    -329.48989902 Ry
     Harris-Foulkes estimate   =    -329.48990869 Ry
     estimated scf accuracy    <       0.00007314 Ry

     iteration #  2     ecut=    30.00 Ry     beta=0.70
     Davidson diagonalization with overlap
     ethr =  1.33E-07,  avg # of iterations =  3.0

     negative rho (up, down):  5.191E-08 0.000E+00

     total cpu time spent up to now is        6.3 secs

     total energy              =    -329.48989076 Ry
     Harris-Foulkes estimate   =    -329.48996609 Ry
     estimated scf accuracy    <       0.00018797 Ry

     iteration #  3     ecut=    30.00 Ry     beta=0.70
     Davidson diagonalization with overlap
     ethr =  1.33E-07,  avg # of iterations =  2.0

     total cpu time spent up to now is        6.5 secs

     total energy              =    -329.48992921 Ry
     Harris-Foulkes estimate   =    -329.48993280 Ry
     estimated scf accuracy    <       0.00001308 Ry

     iteration #  4     ecut=    30.00 Ry     beta=0.70
     Davidson diagonalization with overlap
     ethr =  2.38E-08,  avg # of iterations =  2.0

     total cpu time spent up to now is        6.7 secs

     total energy              =    -329.48993124 Ry
     Harris-Foulkes estimate   =    -329.48993267 Ry
     estimated scf accuracy    <       0.00000279 Ry

     iteration #  5     ecut=    30.00 Ry     beta=0.70
     Davidson diagonalization with overlap
     ethr =  5.06E-09,  avg # of iterations =  2.0

     total cpu time spent up to now is        6.9 secs

     total energy              =    -329.48993175 Ry
     Harris-Foulkes estimate   =    -329.48993215 Ry
     estimated scf accuracy    <       0.00000085 Ry

     iteration #  6     ecut=    30.00 Ry     beta=0.70
     Davidson diagonalization with overlap
     ethr =  1.55E-09,  avg # of iterations =  2.0

     total cpu time spent up to now is        7.2 secs

     total energy              =    -329.48993188 Ry
     Harris-Foulkes estimate   =    -329.48993193 Ry
     estimated scf accuracy    <       0.00000003 Ry

     iteration #  7     ecut=    30.00 Ry     beta=0.70
     Davidson diagonalization with overlap
     ethr =  5.35E-11,  avg # of iterations =  3.0

     total cpu time spent up to now is        7.4 secs

     total energy              =    -329.48993179 Ry
     Harris-Foulkes estimate   =    -329.48993190 Ry
     estimated scf accuracy    <       0.00000001 Ry

     iteration #  8     ecut=    30.00 Ry     beta=0.70
     Davidson diagonalization with overlap
     ethr =  1.96E-11,  avg # of iterations =  2.0

     total cpu time spent up to now is        7.6 secs

     total energy              =    -329.48993178 Ry
     Harris-Foulkes estimate   =    -329.48993179 Ry
     estimated scf accuracy    <          2.3E-09 Ry

     iteration #  9     ecut=    30.00 Ry     beta=0.70
     Davidson diagonalization with overlap
     ethr =  4.23E-12,  avg # of iterations =  2.0

     total cpu time spent up to now is        7.8 secs

     End of self-consistent calculation

          k = 0.0000 0.0000 0.0000 ( 22119 PWs)   bands (ev):

    -8.4818  -7.7720  -7.7138  -7.1869  -6.7791  -6.6963  -6.5567  -6.5419
    -6.2697  -6.1081  -5.8695  -5.7542  -5.6963  -5.6502  -5.5224  -5.3222
    -5.3005  -5.2978  -5.1935  -5.1762  -5.1653  -5.1097  -5.0343  -4.9630
    -4.7928  -4.7495  -4.5407  -3.7585  -2.5065  -2.2481  -0.5488  -0.1227
     0.4637   0.8233

     the Fermi energy is    -3.7184 ev

!    total energy              =    -329.48993178 Ry
     Harris-Foulkes estimate   =    -329.48993178 Ry
     estimated scf accuracy    <          3.6E-10 Ry

     The total energy is the sum of the following terms:

     one-electron contribution =    -604.83701569 Ry
     hartree contribution      =     323.85933005 Ry
     xc contribution           =     -51.38415640 Ry
     ewald contribution        =       2.87804290 Ry
     smearing contrib. (-TS)   =      -0.00613264 Ry

     convergence has been achieved in   9 iterations

     Forces acting on atoms (Ry/au):

     atom    1 type  1   force =     0.00825778    0.00062293    0.00865976
     atom    2 type  1   force =     0.00201742    0.00002073   -0.00010154
     atom    3 type  1   force =     0.00331798   -0.00530137   -0.01034984
     atom    4 type  1   force =     0.00015304    0.00186850    0.00310246
     atom    5 type  1   force =    -0.01374622    0.00278920   -0.00131085

     Total force =     0.022483     Total SCF correction =     0.000075

     number of scf cycles    =   3
     number of bfgs steps    =   2

     energy   old            =    -329.4891551839 Ry
     energy   new            =    -329.4899317793 Ry

     CASE: energy  _new < energy  _old

     new trust radius        =       0.0293710349 bohr
     new conv_thr            =       0.0000000008 Ry


ATOMIC_POSITIONS (bohr)
Au      -1.595107964   2.018618876  -1.106608476
Au      -0.808967107   3.922784541   3.680047724
Au       3.102400971   1.623719597   0.864824482
Au       4.038986592   3.510190586   5.698934658
Au       7.807680507   1.319193399   2.860658612



     Writing output data file pwscf.save
     Check: negative starting charge=   -0.006473
     NEW-OLD atomic charge density approx. for the potential
     Check: negative starting charge=   -0.006457

     negative rho (up, down):  1.759E-04 0.000E+00

     total cpu time spent up to now is        8.1 secs

     per-process dynamical memory:    50.6 Mb

     Self-consistent Calculation

     iteration #  1     ecut=    30.00 Ry     beta=0.70
     Davidson diagonalization with overlap
     ethr =  1.00E-06,  avg # of iterations =  4.0

     negative rho (up, down):  2.893E-06 0.000E+00

     total cpu time spent up to now is        8.5 secs

     total energy              =    -329.49078740 Ry
     Harris-Foulkes estimate   =    -329.49079624 Ry
     estimated scf accuracy    <       0.00015441 Ry

     iteration #  2     ecut=    30.00 Ry     beta=0.70
     Davidson diagonalization with overlap
     ethr =  2.81E-07,  avg # of iterations =  8.0

     negative rho (up, down):  5.880E-07 0.000E+00

     total cpu time spent up to now is        8.8 secs

     total energy              =    -329.49077218 Ry
     Harris-Foulkes estimate   =    -329.49092402 Ry
     estimated scf accuracy    <       0.00037286 Ry

     iteration #  3     ecut=    30.00 Ry     beta=0.70
     Davidson diagonalization with overlap
     ethr =  2.81E-07,  avg # of iterations =  3.0

     total cpu time spent up to now is        9.0 secs

     total energy              =    -329.49085032 Ry
     Harris-Foulkes estimate   =    -329.49085813 Ry
     estimated scf accuracy    <       0.00003041 Ry

     iteration #  4     ecut=    30.00 Ry     beta=0.70
     Davidson diagonalization with overlap
     ethr =  5.53E-08,  avg # of iterations =  2.0

     total cpu time spent up to now is        9.2 secs

     total energy              =    -329.49085581 Ry
     Harris-Foulkes estimate   =    -329.49085815 Ry
     estimated scf accuracy    <       0.00000591 Ry

     iteration #  5     ecut=    30.00 Ry     beta=0.70
     Davidson diagonalization with overlap
     ethr =  1.08E-08,  avg # of iterations =  3.0

     total cpu time spent up to now is        9.5 secs

     total energy              =    -329.49085678 Ry
     Harris-Foulkes estimate   =    -329.49085778 Ry
     estimated scf accuracy    <       0.00000199 Ry

     iteration #  6     ecut=    30.00 Ry     beta=0.70
     Davidson diagonalization with overlap
     ethr =  3.61E-09,  avg # of iterations =  2.0

     total cpu time spent up to now is        9.7 secs

     total energy              =    -329.49085695 Ry
     Harris-Foulkes estimate   =    -329.49085719 Ry
     estimated scf accuracy    <       0.00000006 Ry

     iteration #  7     ecut=    30.00 Ry     beta=0.70
     Davidson diagonalization with overlap
     ethr =  1.02E-10,  avg # of iterations =  3.0

     total cpu time spent up to now is        9.9 secs

     total energy              =    -329.49085687 Ry
     Harris-Foulkes estimate   =    -329.49085698 Ry
     estimated scf accuracy    <       0.00000002 Ry

     iteration #  8     ecut=    30.00 Ry     beta=0.70
     Davidson diagonalization with overlap
     ethr =  4.13E-11,  avg # of iterations =  2.0

     total cpu time spent up to now is       10.2 secs

     total energy              =    -329.49085686 Ry
     Harris-Foulkes estimate   =    -329.49085687 Ry
     estimated scf accuracy    <          5.0E-09 Ry

     iteration #  9     ecut=    30.00 Ry     beta=0.70
     Davidson diagonalization with overlap
     ethr =  9.05E-12,  avg # of iterations =  2.0

     total cpu time spent up to now is       10.4 secs

     End of self-consistent calculation

          k = 0.0000 0.0000 0.0000 ( 22119 PWs)   bands (ev):

    -8.5013  -7.7849  -7.6916  -7.1992  -6.7953  -6.7221  -6.5757  -6.5274
    -6.2741  -6.1128  -5.8922  -5.7569  -5.7087  -5.6621  -5.5184  -5.3228
    -5.2982  -5.2952  -5.1942  -5.1787  -5.1667  -5.1112  -5.0263  -4.9587
    -4.7990  -4.7453  -4.5322  -3.7556  -2.4940  -2.2426  -0.5493  -0.1317
     0.4695   0.8249

     the Fermi energy is    -3.7158 ev

!    total energy              =    -329.49085685 Ry
     Harris-Foulkes estimate   =    -329.49085686 Ry
     estimated scf accuracy    <          7.0E-10 Ry

     The total energy is the sum of the following terms:

     one-electron contribution =    -605.77628504 Ry
     hartree contribution      =     324.32384269 Ry
     xc contribution           =     -51.38779614 Ry
     ewald contribution        =       3.35543668 Ry
     smearing contrib. (-TS)   =      -0.00605502 Ry

     convergence has been achieved in   9 iterations

     Forces acting on atoms (Ry/au):

     atom    1 type  1   force =     0.00533742   -0.00005069    0.00584016
     atom    2 type  1   force =     0.00287094    0.00031633    0.00092393
     atom    3 type  1   force =     0.00313725   -0.00439172   -0.00826945
     atom    4 type  1   force =    -0.00123401    0.00202975    0.00255138
     atom    5 type  1   force =    -0.01011160    0.00209632   -0.00104602

     Total force =     0.017006     Total SCF correction =     0.000101

     number of scf cycles    =   4
     number of bfgs steps    =   3

     energy   old            =    -329.4899317793 Ry
     energy   new            =    -329.4908568462 Ry

     CASE: energy  _new < energy  _old

     new trust radius        =       0.0440565523 bohr
     new conv_thr            =       0.0000000009 Ry


ATOMIC_POSITIONS (bohr)
Au      -1.569943189   2.019894706  -1.079845434
Au      -0.801005681   3.923230441   3.680874633
Au       3.113400204   1.606315139   0.830772887
Au       4.037844064   3.517060214   5.709368562
Au       7.764697602   1.328006501   2.856686351



     Writing output data file pwscf.save
     Check: negative starting charge=   -0.006457
     NEW-OLD atomic charge density approx. for the potential
     Check: negative starting charge=   -0.006434

     negative rho (up, down):  4.345E-04 0.000E+00

     total cpu time spent up to now is       10.6 secs

     per-process dynamical memory:    50.7 Mb

     Self-consistent Calculation

     iteration #  1     ecut=    30.00 Ry     beta=0.70
     Davidson diagonalization with overlap
     ethr =  1.00E-06,  avg # of iterations =  5.0

     negative rho (up, down):  1.583E-05 0.000E+00

     total cpu time spent up to now is       10.9 secs

     total energy              =    -329.49159855 Ry
     Harris-Foulkes estimate   =    -329.49150808 Ry
     estimated scf accuracy    <       0.00034322 Ry

     iteration #  2     ecut=    30.00 Ry     beta=0.70
     Davidson diagonalization with overlap
     ethr =  6.24E-07,  avg # of iterations =  3.0

     negative rho (up, down):  4.376E-06 0.000E+00

     total cpu time spent up to now is       11.2 secs

     total energy              =    -329.49157258 Ry
     Harris-Foulkes estimate   =    -329.49188913 Ry
     estimated scf accuracy    <       0.00076290 Ry

     iteration #  3     ecut=    30.00 Ry     beta=0.70
     Davidson diagonalization with overlap
     ethr =  6.24E-07,  avg # of iterations =  3.0

     negative rho (up, down):  5.715E-08 0.000E+00

     total cpu time spent up to now is       11.4 secs

     total energy              =    -329.49173345 Ry
     Harris-Foulkes estimate   =    -329.49175569 Ry
     estimated scf accuracy    <       0.00007523 Ry

     iteration #  4     ecut=    30.00 Ry     beta=0.70
     Davidson diagonalization with overlap
     ethr =  1.37E-07,  avg # of iterations =  2.0

     total cpu time spent up to now is       11.7 secs

     total energy              =    -329.49174814 Ry
     Harris-Foulkes estimate   =    -329.49175216 Ry
     estimated scf accuracy    <       0.00001272 Ry

     iteration #  5     ecut=    30.00 Ry     beta=0.70
     Davidson diagonalization with overlap
     ethr =  2.31E-08,  avg # of iterations =  3.0

     total cpu time spent up to now is       11.9 secs

     total energy              =    -329.49175048 Ry
     Harris-Foulkes estimate   =    -329.49175251 Ry
     estimated scf accuracy    <       0.00000465 Ry

     iteration #  6     ecut=    30.00 Ry     beta=0.70
     Davidson diagonalization with overlap
     ethr =  8.46E-09,  avg # of iterations =  2.0

     total cpu time spent up to now is       12.1 secs

     total energy              =    -329.49175137 Ry
     Harris-Foulkes estimate   =    -329.49175143 Ry
     estimated scf accuracy    <       0.00000012 Ry

     iteration #  7     ecut=    30.00 Ry     beta=0.70
     Davidson diagonalization with overlap
     ethr =  2.09E-10,  avg # of iterations =  3.0

     total cpu time spent up to now is       12.4 secs

     total energy              =    -329.49175129 Ry
     Harris-Foulkes estimate   =    -329.49175143 Ry
     estimated scf accuracy    <       0.00000004 Ry

     iteration #  8     ecut=    30.00 Ry     beta=0.70
     Davidson diagonalization with overlap
     ethr =  7.54E-11,  avg # of iterations =  2.0

     total cpu time spent up to now is       12.6 secs

     total energy              =    -329.49175126 Ry
     Harris-Foulkes estimate   =    -329.49175130 Ry
     estimated scf accuracy    <          8.4E-09 Ry

     iteration #  9     ecut=    30.00 Ry     beta=0.70
     Davidson diagonalization with overlap
     ethr =  1.52E-11,  avg # of iterations =  2.0

     total cpu time spent up to now is       12.8 secs

     total energy              =    -329.49175127 Ry
     Harris-Foulkes estimate   =    -329.49175126 Ry
     estimated scf accuracy    <          1.8E-09 Ry

     iteration # 10     ecut=    30.00 Ry     beta=0.70
     Davidson diagonalization with overlap
     ethr =  3.24E-12,  avg # of iterations =  2.0

     total cpu time spent up to now is       13.0 secs

     End of self-consistent calculation

          k = 0.0000 0.0000 0.0000 ( 22119 PWs)   bands (ev):

    -8.5292  -7.8020  -7.6638  -7.2150  -6.8191  -6.7610  -6.6026  -6.5095
    -6.2787  -6.1157  -5.9242  -5.7638  -5.7261  -5.6765  -5.5061  -5.3284
    -5.2988  -5.2832  -5.1954  -5.1822  -5.1683  -5.1135  -5.0124  -4.9516
    -4.8154  -4.7338  -4.5177  -3.7541  -2.4743  -2.2340  -0.5498  -0.1459
     0.4789   0.8300

     the Fermi energy is    -3.7152 ev

!    total energy              =    -329.49175127 Ry
     Harris-Foulkes estimate   =    -329.49175127 Ry
     estimated scf accuracy    <          2.8E-10 Ry

     The total energy is the sum of the following terms:

     one-electron contribution =    -607.11391607 Ry
     hartree contribution      =     324.98608438 Ry
     xc contribution           =     -51.39356459 Ry
     ewald contribution        =       4.03547244 Ry
     smearing contrib. (-TS)   =      -0.00582743 Ry

     convergence has been achieved in  10 iterations

     Forces acting on atoms (Ry/au):

     atom    1 type  1   force =     0.00137586   -0.00083380    0.00164768
     atom    2 type  1   force =     0.00377735    0.00047797    0.00201085
     atom    3 type  1   force =     0.00184319   -0.00262184   -0.00538008
     atom    4 type  1   force =    -0.00286778    0.00210802    0.00196272
     atom    5 type  1   force =    -0.00412862    0.00086965   -0.00024116

     Total force =     0.009871     Total SCF correction =     0.000074

     number of scf cycles    =   5
     number of bfgs steps    =   4

     energy   old            =    -329.4908568462 Ry
     energy   new            =    -329.4917512740 Ry

     CASE: energy  _new < energy  _old

     new trust radius        =       0.0420620711 bohr
     new conv_thr            =       0.0000000005 Ry


ATOMIC_POSITIONS (bohr)
Au      -1.547276674   2.019678511  -1.055574360
Au      -0.788807244   3.924242329   3.684510734
Au       3.124708288   1.588248327   0.794510849
Au       4.032588502   3.525921716   5.721078241
Au       7.723780128   1.336416117   2.853331535



     Writing output data file pwscf.save
     Check: negative starting charge=   -0.006434
     NEW-OLD atomic charge density approx. for the potential
     Check: negative starting charge=   -0.006413

     negative rho (up, down):  4.291E-04 0.000E+00

     total cpu time spent up to now is       13.3 secs

     per-process dynamical memory:    50.7 Mb

     Self-consistent Calculation

     iteration #  1     ecut=    30.00 Ry     beta=0.70
     Davidson diagonalization with overlap
     ethr =  1.00E-06,  avg # of iterations =  5.0

     negative rho (up, down):  1.506E-05 0.000E+00

     total cpu time spent up to now is       13.7 secs

     total energy              =    -329.49194671 Ry
     Harris-Foulkes estimate   =    -329.49183773 Ry
     estimated scf accuracy    <       0.00031803 Ry

     iteration #  2     ecut=    30.00 Ry     beta=0.70
     Davidson diagonalization with overlap
     ethr =  5.78E-07,  avg # of iterations =  8.0

     negative rho (up, down):  3.822E-06 0.000E+00

     total cpu time spent up to now is       13.9 secs

     total energy              =    -329.49193044 Ry
     Harris-Foulkes estimate   =    -329.49219176 Ry
     estimated scf accuracy    <       0.00061357 Ry

     iteration #  3     ecut=    30.00 Ry     beta=0.70
     Davidson diagonalization with overlap
     ethr =  5.78E-07,  avg # of iterations =  3.0

     negative rho (up, down):  4.769E-08 0.000E+00

     total cpu time spent up to now is       14.2 secs

     total energy              =    -329.49206463 Ry
     Harris-Foulkes estimate   =    -329.49208931 Ry
     estimated scf accuracy    <       0.00008296 Ry

     iteration #  4     ecut=    30.00 Ry     beta=0.70
     Davidson diagonalization with overlap
     ethr =  1.51E-07,  avg # of iterations =  2.0

     total cpu time spent up to now is       14.4 secs

     total energy              =    -329.49207997 Ry
     Harris-Foulkes estimate   =    -329.49208410 Ry
     estimated scf accuracy    <       0.00001133 Ry

     iteration #  5     ecut=    30.00 Ry     beta=0.70
     Davidson diagonalization with overlap
     ethr =  2.06E-08,  avg # of iterations =  3.0

     total cpu time spent up to now is       14.6 secs

     total energy              =    -329.49208161 Ry
     Harris-Foulkes estimate   =    -329.49208405 Ry
     estimated scf accuracy    <       0.00000455 Ry

     iteration #  6     ecut=    30.00 Ry     beta=0.70
     Davidson diagonalization with overlap
     ethr =  8.28E-09,  avg # of iterations =  2.0

     total cpu time spent up to now is       14.9 secs

     total energy              =    -329.49208218 Ry
     Harris-Foulkes estimate   =    -329.49208251 Ry
     estimated scf accuracy    <       0.00000009 Ry

     iteration #  7     ecut=    30.00 Ry     beta=0.70
     Davidson diagonalization with overlap
     ethr =  1.64E-10,  avg # of iterations =  3.0

     total cpu time spent up to now is       15.1 secs

     total energy              =    -329.49208221 Ry
     Harris-Foulkes estimate   =    -329.49208223 Ry
     estimated scf accuracy    <       0.00000003 Ry

     iteration #  8     ecut=    30.00 Ry     beta=0.70
     Davidson diagonalization with overlap
     ethr =  5.15E-11,  avg # of iterations =  2.0

     total cpu time spent up to now is       15.4 secs

     total energy              =    -329.49208215 Ry
     Harris-Foulkes estimate   =    -329.49208221 Ry
     estimated scf accuracy    <          5.7E-09 Ry

     iteration #  9     ecut=    30.00 Ry     beta=0.70
     Davidson diagonalization with overlap
     ethr =  1.04E-11,  avg # of iterations =  2.0

     total cpu time spent up to now is       15.6 secs

     total energy              =    -329.49208210 Ry
     Harris-Foulkes estimate   =    -329.49208215 Ry
     estimated scf accuracy    <          1.7E-09 Ry

     iteration # 10     ecut=    30.00 Ry     beta=0.70
     Davidson diagonalization with overlap
     ethr =  3.10E-12,  avg # of iterations =  2.0

     total cpu time spent up to now is       15.8 secs

     End of self-consistent calculation

          k = 0.0000 0.0000 0.0000 ( 22119 PWs)   bands (ev):

    -8.5519  -7.8132  -7.6455  -7.2233  -6.8397  -6.8000  -6.6243  -6.4958
    -6.2813  -6.1140  -5.9514  -5.7733  -5.7401  -5.6864  -5.4858  -5.3367
    -5.3017  -5.2687  -5.1974  -5.1848  -5.1691  -5.1166  -4.9970  -4.9434
    -4.8325  -4.7234  -4.5014  -3.7574  -2.4547  -2.2254  -0.5500  -0.1614
     0.4887   0.8353

     the Fermi energy is    -3.7202 ev

!    total energy              =    -329.49208206 Ry
     Harris-Foulkes estimate   =    -329.49208210 Ry
     estimated scf accuracy    <          3.6E-10 Ry

     The total energy is the sum of the following terms:

     one-electron contribution =    -608.24359378 Ry
     hartree contribution      =     325.54692589 Ry
     xc contribution           =     -51.39923097 Ry
     ewald contribution        =       4.60923952 Ry
     smearing contrib. (-TS)   =      -0.00542271 Ry

     convergence has been achieved in  10 iterations

     Forces acting on atoms (Ry/au):

     atom    1 type  1   force =    -0.00192943   -0.00125807   -0.00193030
     atom    2 type  1   force =     0.00403031    0.00020295    0.00216810
     atom    3 type  1   force =     0.00014989   -0.00074077   -0.00205275
     atom    4 type  1   force =    -0.00364985    0.00180530    0.00136767
     atom    5 type  1   force =     0.00139907   -0.00000941    0.00044727

     Total force =     0.007444     Total SCF correction =     0.000074

     number of scf cycles    =   6
     number of bfgs steps    =   5

     energy   old            =    -329.4917512740 Ry
     energy   new            =    -329.4920820607 Ry

     CASE: energy  _new < energy  _old

     new trust radius        =       0.0069503691 bohr
     new conv_thr            =       0.0000000003 Ry


ATOMIC_POSITIONS (bohr)
Au      -1.546575328   2.018417974  -1.054715644
Au      -0.783438652   3.924509426   3.687002266
Au       3.125992805   1.585481718   0.788265569
Au       4.028402497   3.528732051   5.723845643
Au       7.720611679   1.337365831   2.853459166



     Writing output data file pwscf.save
     Check: negative starting charge=   -0.006413
     NEW-OLD atomic charge density approx. for the potential
     Check: negative starting charge=   -0.006410

     negative rho (up, down):  9.074E-07 0.000E+00

     total cpu time spent up to now is       16.1 secs

     per-process dynamical memory:    50.7 Mb

     Self-consistent Calculation

     iteration #  1     ecut=    30.00 Ry     beta=0.70
     Davidson diagonalization with overlap
     ethr =  1.00E-06,  avg # of iterations =  3.0

     Threshold (ethr) on eigenvalues was too large:
     Diagonalizing with lowered threshold

     Davidson diagonalization with overlap
     ethr =  9.29E-09,  avg # of iterations =  2.0

     total cpu time spent up to now is       16.5 secs

     total energy              =    -329.49213565 Ry
     Harris-Foulkes estimate   =    -329.49213479 Ry
     estimated scf accuracy    <       0.00000553 Ry

     iteration #  2     ecut=    30.00 Ry     beta=0.70
     Davidson diagonalization with overlap
     ethr =  1.01E-08,  avg # of iterations =  3.0

     total cpu time spent up to now is       16.8 secs

     total energy              =    -329.49213595 Ry
     Harris-Foulkes estimate   =    -329.49213773 Ry
     estimated scf accuracy    <       0.00000285 Ry

     iteration #  3     ecut=    30.00 Ry     beta=0.70
     Davidson diagonalization with overlap
     ethr =  5.17E-09,  avg # of iterations =  2.0

     total cpu time spent up to now is       17.0 secs

     total energy              =    -329.49213612 Ry
     Harris-Foulkes estimate   =    -329.49213701 Ry
     estimated scf accuracy    <       0.00000112 Ry

     iteration #  4     ecut=    30.00 Ry     beta=0.70
     Davidson diagonalization with overlap
     ethr =  2.04E-09,  avg # of iterations =  2.0

     total cpu time spent up to now is       17.2 secs

     total energy              =    -329.49213614 Ry
     Harris-Foulkes estimate   =    -329.49213651 Ry
     estimated scf accuracy    <       0.00000041 Ry

     iteration #  5     ecut=    30.00 Ry     beta=0.70
     Davidson diagonalization with overlap
     ethr =  7.46E-10,  avg # of iterations =  2.0

     total cpu time spent up to now is       17.4 secs

     total energy              =    -329.49213605 Ry
     Harris-Foulkes estimate   =    -329.49213623 Ry
     estimated scf accuracy    <       0.00000005 Ry

     iteration #  6     ecut=    30.00 Ry     beta=0.70
     Davidson diagonalization with overlap
     ethr =  8.53E-11,  avg # of iterations =  2.0

     total cpu time spent up to now is       17.6 secs

     total energy              =    -329.49213603 Ry
     Harris-Foulkes estimate   =    -329.49213606 Ry
     estimated scf accuracy    <          2.4E-09 Ry

     iteration #  7     ecut=    30.00 Ry     beta=0.70
     Davidson diagonalization with overlap
     ethr =  4.42E-12,  avg # of iterations =  3.0

     total cpu time spent up to now is       17.9 secs

     total energy              =    -329.49213602 Ry
     Harris-Foulkes estimate   =    -329.49213603 Ry
     estimated scf accuracy    <          8.7E-10 Ry

     iteration #  8     ecut=    30.00 Ry     beta=0.70
     Davidson diagonalization with overlap
     ethr =  1.57E-12,  avg # of iterations =  2.0

     total cpu time spent up to now is       18.1 secs

     End of self-consistent calculation

          k = 0.0000 0.0000 0.0000 ( 22119 PWs)   bands (ev):

    -8.5491  -7.8086  -7.6464  -7.2218  -6.8386  -6.8064  -6.6200  -6.4931
    -6.2831  -6.1112  -5.9504  -5.7739  -5.7398  -5.6872  -5.4813  -5.3390
    -5.3035  -5.2664  -5.1990  -5.1834  -5.1695  -5.1173  -4.9956  -4.9418
    -4.8329  -4.7251  -4.4989  -3.7610  -2.4532  -2.2242  -0.5497  -0.1645
     0.4892   0.8370

     the Fermi energy is    -3.7243 ev

!    total energy              =    -329.49213600 Ry
     Harris-Foulkes estimate   =    -329.49213602 Ry
     estimated scf accuracy    <          7.7E-11 Ry

     The total energy is the sum of the following terms:

     one-electron contribution =    -608.19663948 Ry
     hartree contribution      =     325.52445629 Ry
     xc contribution           =     -51.39924244 Ry
     ewald contribution        =       4.58457576 Ry
     smearing contrib. (-TS)   =      -0.00528614 Ry

     convergence has been achieved in   8 iterations

     Forces acting on atoms (Ry/au):

     atom    1 type  1   force =    -0.00203235   -0.00115187   -0.00184867
     atom    2 type  1   force =     0.00357787   -0.00003005    0.00148901
     atom    3 type  1   force =     0.00010478   -0.00046882   -0.00142190
     atom    4 type  1   force =    -0.00307575    0.00152724    0.00113592
     atom    5 type  1   force =     0.00142545    0.00012351    0.00064565

     Total force =     0.006457     Total SCF correction =     0.000030

     number of scf cycles    =   7
     number of bfgs steps    =   6

     energy   old            =    -329.4920820607 Ry
     energy   new            =    -329.4921360048 Ry

     CASE: energy  _new < energy  _old

     new trust radius        =       0.0076454060 bohr
     new conv_thr            =            1.0E-10 Ry


ATOMIC_POSITIONS (bohr)
Au      -1.547919471   2.016471410  -1.055689148
Au      -0.776354898   3.924553608   3.689878149
Au       3.126974526   1.583098332   0.782487352
Au       4.022735600   3.532123066   5.726901442
Au       7.719557243   1.338260584   2.854279204



     Writing output data file pwscf.save
     Check: negative starting charge=   -0.006410
     NEW-OLD atomic charge density approx. for the potential
     Check: negative starting charge=   -0.006406

     negative rho (up, down):  1.614E-06 0.000E+00

     total cpu time spent up to now is       18.3 secs

     per-process dynamical memory:    50.7 Mb

     Self-consistent Calculation

     iteration #  1     ecut=    30.00 Ry     beta=0.70
     Davidson diagonalization with overlap
     ethr =  1.00E-06,  avg # of iterations =  4.0

     Threshold (ethr) on eigenvalues was too large:
     Diagonalizing with lowered threshold

     Davidson diagonalization with overlap
     ethr =  1.28E-08,  avg # of iterations =  2.0

     total cpu time spent up to now is       18.8 secs

     total energy              =    -329.49219604 Ry
     Harris-Foulkes estimate   =    -329.49219497 Ry
     estimated scf accuracy    <       0.00000729 Ry

     iteration #  2     ecut=    30.00 Ry     beta=0.70
     Davidson diagonalization with overlap
     ethr =  1.33E-08,  avg # of iterations =  3.0

     total cpu time spent up to now is       19.1 secs

     total energy              =    -329.49219614 Ry
     Harris-Foulkes estimate   =    -329.49219965 Ry
     estimated scf accuracy    <       0.00000733 Ry

     iteration #  3     ecut=    30.00 Ry     beta=0.70
     Davidson diagonalization with overlap
     ethr =  1.33E-08,  avg # of iterations =  2.0

     total cpu time spent up to now is       19.3 secs

     total energy              =    -329.49219742 Ry
     Harris-Foulkes estimate   =    -329.49219866 Ry
     estimated scf accuracy    <       0.00000260 Ry

     iteration #  4     ecut=    30.00 Ry     beta=0.70
     Davidson diagonalization with overlap
     ethr =  4.73E-09,  avg # of iterations =  2.0

     total cpu time spent up to now is       19.5 secs

     total energy              =    -329.49219788 Ry
     Harris-Foulkes estimate   =    -329.49219806 Ry
     estimated scf accuracy    <       0.00000035 Ry

     iteration #  5     ecut=    30.00 Ry     beta=0.70
     Davidson diagonalization with overlap
     ethr =  6.41E-10,  avg # of iterations =  2.0

     total cpu time spent up to now is       19.7 secs

     total energy              =    -329.49219803 Ry
     Harris-Foulkes estimate   =    -329.49219798 Ry
     estimated scf accuracy    <       0.00000007 Ry

     iteration #  6     ecut=    30.00 Ry     beta=0.70
     Davidson diagonalization with overlap
     ethr =  1.28E-10,  avg # of iterations =  2.0

     total cpu time spent up to now is       19.9 secs

     total energy              =    -329.49219803 Ry
     Harris-Foulkes estimate   =    -329.49219804 Ry
     estimated scf accuracy    <          4.9E-09 Ry

     iteration #  7     ecut=    30.00 Ry     beta=0.70
     Davidson diagonalization with overlap
     ethr =  8.98E-12,  avg # of iterations =  3.0

     total cpu time spent up to now is       20.2 secs

     total energy              =    -329.49219801 Ry
     Harris-Foulkes estimate   =    -329.49219804 Ry
     estimated scf accuracy    <          1.4E-09 Ry

     iteration #  8     ecut=    30.00 Ry     beta=0.70
     Davidson diagonalization with overlap
     ethr =  2.54E-12,  avg # of iterations =  2.0

     total cpu time spent up to now is       20.4 secs

     total energy              =    -329.49219801 Ry
     Harris-Foulkes estimate   =    -329.49219801 Ry
     estimated scf accuracy    <          2.9E-10 Ry

     iteration #  9     ecut=    30.00 Ry     beta=0.70
     Davidson diagonalization with overlap
     ethr =  5.24E-13,  avg # of iterations =  2.0

     total cpu time spent up to now is       20.6 secs

     End of self-consistent calculation

          k = 0.0000 0.0000 0.0000 ( 22119 PWs)   bands (ev):

    -8.5430  -7.8010  -7.6493  -7.2196  -6.8352  -6.8124  -6.6119  -6.4904
    -6.2860  -6.1072  -5.9465  -5.7739  -5.7381  -5.6875  -5.4770  -5.3417
    -5.3060  -5.2642  -5.2012  -5.1812  -5.1701  -5.1179  -4.9952  -4.9399
    -4.8317  -4.7284  -4.4967  -3.7657  -2.4530  -2.2230  -0.5493  -0.1675
     0.4889   0.8389

     the Fermi energy is    -3.7298 ev

!    total energy              =    -329.49219801 Ry
     Harris-Foulkes estimate   =    -329.49219801 Ry
     estimated scf accuracy    <          4.7E-11 Ry

     The total energy is the sum of the following terms:

     one-electron contribution =    -608.04128860 Ry
     hartree contribution      =     325.44835540 Ry
     xc contribution           =     -51.39878290 Ry
     ewald contribution        =       4.50464123 Ry
     smearing contrib. (-TS)   =      -0.00512314 Ry

     convergence has been achieved in   9 iterations

     Forces acting on atoms (Ry/au):

     atom    1 type  1   force =    -0.00185067   -0.00098317   -0.00143248
     atom    2 type  1   force =     0.00287797   -0.00030976    0.00053531
     atom    3 type  1   force =     0.00012900   -0.00022676   -0.00084335
     atom    4 type  1   force =    -0.00216483    0.00115471    0.00088631
     atom    5 type  1   force =     0.00100853    0.00036499    0.00085421

     Total force =     0.004957     Total SCF correction =     0.000024

     number of scf cycles    =   8
     number of bfgs steps    =   7

     energy   old            =    -329.4921360048 Ry
     energy   new            =    -329.4921980116 Ry

     CASE: energy  _new < energy  _old

     new trust radius        =       0.0114681090 bohr
     new conv_thr            =            1.0E-10 Ry


ATOMIC_POSITIONS (bohr)
Au      -1.551341661   2.013226231  -1.058066440
Au      -0.765379512   3.924071051   3.693168372
Au       3.128249568   1.580202081   0.775083368
Au       4.014359007   3.537126395   5.731331392
Au       7.719105599   1.339881243   2.856340308



     Writing output data file pwscf.save
     Check: negative starting charge=   -0.006406
     NEW-OLD atomic charge density approx. for the potential
     Check: negative starting charge=   -0.006402

     negative rho (up, down):  9.722E-06 0.000E+00

     total cpu time spent up to now is       20.9 secs

     per-process dynamical memory:    50.7 Mb

     Self-consistent Calculation

     iteration #  1     ecut=    30.00 Ry     beta=0.70
     Davidson diagonalization with overlap
     ethr =  1.00E-06,  avg # of iterations =  4.0

     Threshold (ethr) on eigenvalues was too large:
     Diagonalizing with lowered threshold

     Davidson diagonalization with overlap
     ethr =  3.04E-08,  avg # of iterations =  2.0

     total cpu time spent up to now is       21.4 secs

     total energy              =    -329.49225525 Ry
     Harris-Foulkes estimate   =    -329.49225363 Ry
     estimated scf accuracy    <       0.00001720 Ry

     iteration #  2     ecut=    30.00 Ry     beta=0.70
     Davidson diagonalization with overlap
     ethr =  3.13E-08,  avg # of iterations =  3.0

     total cpu time spent up to now is       21.6 secs

     total energy              =    -329.49225525 Ry
     Harris-Foulkes estimate   =    -329.49226534 Ry
     estimated scf accuracy    <       0.00002304 Ry

     iteration #  3     ecut=    30.00 Ry     beta=0.70
     Davidson diagonalization with overlap
     ethr =  3.13E-08,  avg # of iterations =  2.0

     total cpu time spent up to now is       21.8 secs

     total energy              =    -329.49226013 Ry
     Harris-Foulkes estimate   =    -329.49226229 Ry
     estimated scf accuracy    <       0.00000579 Ry

     iteration #  4     ecut=    30.00 Ry     beta=0.70
     Davidson diagonalization with overlap
     ethr =  1.05E-08,  avg # of iterations =  2.0

     total cpu time spent up to now is       22.0 secs

     total energy              =    -329.49226091 Ry
     Harris-Foulkes estimate   =    -329.49226151 Ry
     estimated scf accuracy    <       0.00000072 Ry

     iteration #  5     ecut=    30.00 Ry     beta=0.70
     Davidson diagonalization with overlap
     ethr =  1.30E-09,  avg # of iterations =  2.0

     total cpu time spent up to now is       22.3 secs

     total energy              =    -329.49226108 Ry
     Harris-Foulkes estimate   =    -329.49226113 Ry
     estimated scf accuracy    <       0.00000018 Ry

     iteration #  6     ecut=    30.00 Ry     beta=0.70
     Davidson diagonalization with overlap
     ethr =  3.25E-10,  avg # of iterations =  2.0

     total cpu time spent up to now is       22.5 secs

     total energy              =    -329.49226120 Ry
     Harris-Foulkes estimate   =    -329.49226112 Ry
     estimated scf accuracy    <       0.00000001 Ry

     iteration #  7     ecut=    30.00 Ry     beta=0.70
     Davidson diagonalization with overlap
     ethr =  2.33E-11,  avg # of iterations =  3.0

     total cpu time spent up to now is       22.7 secs

     total energy              =    -329.49226116 Ry
     Harris-Foulkes estimate   =    -329.49226120 Ry
     estimated scf accuracy    <          2.9E-09 Ry

     iteration #  8     ecut=    30.00 Ry     beta=0.70
     Davidson diagonalization with overlap
     ethr =  5.33E-12,  avg # of iterations =  3.0

     total cpu time spent up to now is       23.0 secs

     total energy              =    -329.49226119 Ry
     Harris-Foulkes estimate   =    -329.49226116 Ry
     estimated scf accuracy    <          7.4E-10 Ry

     iteration #  9     ecut=    30.00 Ry     beta=0.70
     Davidson diagonalization with overlap
     ethr =  1.34E-12,  avg # of iterations =  2.0

     total cpu time spent up to now is       23.2 secs

     total energy              =    -329.49226120 Ry
     Harris-Foulkes estimate   =    -329.49226119 Ry
     estimated scf accuracy    <          1.1E-10 Ry

     iteration # 10     ecut=    30.00 Ry     beta=0.70
     Davidson diagonalization with overlap
     ethr =  1.92E-13,  avg # of iterations =  2.0

     total cpu time spent up to now is       23.4 secs

     End of self-consistent calculation

          k = 0.0000 0.0000 0.0000 ( 22119 PWs)   bands (ev):

    -8.5331  -7.7899  -7.6549  -7.2173  -6.8294  -6.8202  -6.5994  -6.4873
    -6.2909  -6.1012  -5.9400  -5.7733  -5.7351  -5.6877  -5.4717  -5.3454
    -5.3096  -5.2614  -5.2043  -5.1778  -5.1711  -5.1187  -4.9954  -4.9371
    -4.8293  -4.7335  -4.4936  -3.7724  -2.4536  -2.2210  -0.5488  -0.1713
     0.4877   0.8417

     the Fermi energy is    -3.7375 ev

!    total energy              =    -329.49226120 Ry
     Harris-Foulkes estimate   =    -329.49226120 Ry
     estimated scf accuracy    <          8.0E-12 Ry

     The total energy is the sum of the following terms:

     one-electron contribution =    -607.80005223 Ry
     hartree contribution      =     325.33011514 Ry
     xc contribution           =     -51.39806033 Ry
     ewald contribution        =       4.38062058 Ry
     smearing contrib. (-TS)   =      -0.00488437 Ry

     convergence has been achieved in  10 iterations

     Forces acting on atoms (Ry/au):

     atom    1 type  1   force =    -0.00141319   -0.00075765   -0.00073131
     atom    2 type  1   force =     0.00176061   -0.00064092   -0.00080936
     atom    3 type  1   force =     0.00013458    0.00005044   -0.00018374
     atom    4 type  1   force =    -0.00074290    0.00063291    0.00062705
     atom    5 type  1   force =     0.00026090    0.00071522    0.00109737

     Total force =     0.003233     Total SCF correction =     0.000014

     number of scf cycles    =   9
     number of bfgs steps    =   8

     energy   old            =    -329.4921980116 Ry
     energy   new            =    -329.4922612015 Ry

     CASE: energy  _new < energy  _old

     new trust radius        =       0.0133926721 bohr
     new conv_thr            =            1.0E-10 Ry


ATOMIC_POSITIONS (bohr)
Au      -1.556524368   2.008940812  -1.061167795
Au      -0.752183536   3.922593491   3.694913853
Au       3.129728058   1.577372274   0.767384968
Au       4.005349423   3.542934503   5.736686129
Au       7.718623424   1.342665921   2.860039845



     Writing output data file pwscf.save
     Check: negative starting charge=   -0.006402
     NEW-OLD atomic charge density approx. for the potential
     Check: negative starting charge=   -0.006396

     negative rho (up, down):  1.823E-05 0.000E+00

     total cpu time spent up to now is       23.7 secs

     per-process dynamical memory:    50.7 Mb

     Self-consistent Calculation

     iteration #  1     ecut=    30.00 Ry     beta=0.70
     Davidson diagonalization with overlap
     ethr =  1.00E-06,  avg # of iterations =  4.0

     Threshold (ethr) on eigenvalues was too large:
     Diagonalizing with lowered threshold

     Davidson diagonalization with overlap
     ethr =  4.52E-08,  avg # of iterations =  1.0

     negative rho (up, down):  2.044E-08 0.000E+00

     total cpu time spent up to now is       24.2 secs

     total energy              =    -329.49228545 Ry
     Harris-Foulkes estimate   =    -329.49228428 Ry
     estimated scf accuracy    <       0.00002519 Ry

     iteration #  2     ecut=    30.00 Ry     beta=0.70
     Davidson diagonalization with overlap
     ethr =  4.58E-08,  avg # of iterations =  3.0

     total cpu time spent up to now is       24.4 secs

     total energy              =    -329.49228521 Ry
     Harris-Foulkes estimate   =    -329.49230122 Ry
     estimated scf accuracy    <       0.00003689 Ry

     iteration #  3     ecut=    30.00 Ry     beta=0.70
     Davidson diagonalization with overlap
     ethr =  4.58E-08,  avg # of iterations =  2.0

     total cpu time spent up to now is       24.6 secs

     total energy              =    -329.49229337 Ry
     Harris-Foulkes estimate   =    -329.49229607 Ry
     estimated scf accuracy    <       0.00000827 Ry

     iteration #  4     ecut=    30.00 Ry     beta=0.70
     Davidson diagonalization with overlap
     ethr =  1.50E-08,  avg # of iterations =  2.0

     total cpu time spent up to now is       24.8 secs

     total energy              =    -329.49229476 Ry
     Harris-Foulkes estimate   =    -329.49229530 Ry
     estimated scf accuracy    <       0.00000098 Ry

     iteration #  5     ecut=    30.00 Ry     beta=0.70
     Davidson diagonalization with overlap
     ethr =  1.78E-09,  avg # of iterations =  2.0

     total cpu time spent up to now is       25.1 secs

     total energy              =    -329.49229500 Ry
     Harris-Foulkes estimate   =    -329.49229507 Ry
     estimated scf accuracy    <       0.00000028 Ry

     iteration #  6     ecut=    30.00 Ry     beta=0.70
     Davidson diagonalization with overlap
     ethr =  5.07E-10,  avg # of iterations =  2.0

     total cpu time spent up to now is       25.3 secs

     total energy              =    -329.49229507 Ry
     Harris-Foulkes estimate   =    -329.49229506 Ry
     estimated scf accuracy    <       0.00000002 Ry

     iteration #  7     ecut=    30.00 Ry     beta=0.70
     Davidson diagonalization with overlap
     ethr =  3.61E-11,  avg # of iterations =  3.0

     total cpu time spent up to now is       25.5 secs

     total energy              =    -329.49229515 Ry
     Harris-Foulkes estimate   =    -329.49229507 Ry
     estimated scf accuracy    <          3.8E-09 Ry

     iteration #  8     ecut=    30.00 Ry     beta=0.70
     Davidson diagonalization with overlap
     ethr =  6.96E-12,  avg # of iterations =  3.0

     total cpu time spent up to now is       25.8 secs

     total energy              =    -329.49229513 Ry
     Harris-Foulkes estimate   =    -329.49229515 Ry
     estimated scf accuracy    <          1.3E-09 Ry

     iteration #  9     ecut=    30.00 Ry     beta=0.70
     Davidson diagonalization with overlap
     ethr =  2.44E-12,  avg # of iterations =  2.0

     total cpu time spent up to now is       26.0 secs

     total energy              =    -329.49229512 Ry
     Harris-Foulkes estimate   =    -329.49229513 Ry
     estimated scf accuracy    <          1.5E-10 Ry

     iteration # 10     ecut=    30.00 Ry     beta=0.70
     Davidson diagonalization with overlap
     ethr =  2.75E-13,  avg # of iterations =  2.0

     total cpu time spent up to now is       26.2 secs

     End of self-consistent calculation

          k = 0.0000 0.0000 0.0000 ( 22119 PWs)   bands (ev):

    -8.5222  -7.7786  -7.6622  -7.2168  -6.8290  -6.8222  -6.5866  -6.4851
    -6.2972  -6.0944  -5.9331  -5.7723  -5.7314  -5.6878  -5.4668  -5.3494
    -5.3134  -5.2585  -5.2073  -5.1747  -5.1717  -5.1193  -4.9963  -4.9334
    -4.8266  -4.7388  -4.4901  -3.7792  -2.4549  -2.2182  -0.5484  -0.1749
     0.4856   0.8446

     the Fermi energy is    -3.7454 ev

!    total energy              =    -329.49229512 Ry
     Harris-Foulkes estimate   =    -329.49229512 Ry
     estimated scf accuracy    <          1.4E-11 Ry

     The total energy is the sum of the following terms:

     one-electron contribution =    -607.56775109 Ry
     hartree contribution      =     325.21632451 Ry
     xc contribution           =     -51.39744140 Ry
     ewald contribution        =       4.26119404 Ry
     smearing contrib. (-TS)   =      -0.00462119 Ry

     convergence has been achieved in  10 iterations

     Forces acting on atoms (Ry/au):

     atom    1 type  1   force =    -0.00081653   -0.00055283    0.00001395
     atom    2 type  1   force =     0.00047353   -0.00087911   -0.00213816
     atom    3 type  1   force =     0.00004727    0.00028060    0.00035157
     atom    4 type  1   force =     0.00084239    0.00010811    0.00049653
     atom    5 type  1   force =    -0.00054666    0.00104324    0.00127611

     Total force =     0.003276     Total SCF correction =     0.000019

     number of scf cycles    =  10
     number of bfgs steps    =   9

     energy   old            =    -329.4922612015 Ry
     energy   new            =    -329.4922951217 Ry

     CASE: energy  _new < energy  _old

     new trust radius        =       0.0052211117 bohr
     new conv_thr            =            1.0E-10 Ry


ATOMIC_POSITIONS (bohr)
Au      -1.559050329   2.006948792  -1.062180116
Au      -0.747418343   3.921227563   3.693274590
Au       3.130245723   1.576736280   0.765230378
Au       4.003318336   3.544942632   5.738976032
Au       7.717897613   1.344651734   2.862556115



     Writing output data file pwscf.save
     Check: negative starting charge=   -0.006396
     NEW-OLD atomic charge density approx. for the potential
     Check: negative starting charge=   -0.006395

     negative rho (up, down):  1.774E-07 0.000E+00

     total cpu time spent up to now is       26.4 secs

     per-process dynamical memory:    50.7 Mb

     Self-consistent Calculation

     iteration #  1     ecut=    30.00 Ry     beta=0.70
     Davidson diagonalization with overlap
     ethr =  1.00E-06,  avg # of iterations =  3.0

     Threshold (ethr) on eigenvalues was too large:
     Diagonalizing with lowered threshold

     Davidson diagonalization with overlap
     ethr =  6.66E-09,  avg # of iterations =  2.0

     total cpu time spent up to now is       26.9 secs

     total energy              =    -329.49230629 Ry
     Harris-Foulkes estimate   =    -329.49230613 Ry
     estimated scf accuracy    <       0.00000398 Ry

     iteration #  2     ecut=    30.00 Ry     beta=0.70
     Davidson diagonalization with overlap
     ethr =  7.24E-09,  avg # of iterations =  3.0

     total cpu time spent up to now is       27.2 secs

     total energy              =    -329.49230610 Ry
     Harris-Foulkes estimate   =    -329.49230873 Ry
     estimated scf accuracy    <       0.00000515 Ry

     iteration #  3     ecut=    30.00 Ry     beta=0.70
     Davidson diagonalization with overlap
     ethr =  7.24E-09,  avg # of iterations =  2.0

     total cpu time spent up to now is       27.4 secs

     total energy              =    -329.49230746 Ry
     Harris-Foulkes estimate   =    -329.49230769 Ry
     estimated scf accuracy    <       0.00000135 Ry

     iteration #  4     ecut=    30.00 Ry     beta=0.70
     Davidson diagonalization with overlap
     ethr =  2.46E-09,  avg # of iterations =  2.0

     total cpu time spent up to now is       27.6 secs

     total energy              =    -329.49230803 Ry
     Harris-Foulkes estimate   =    -329.49230778 Ry
     estimated scf accuracy    <       0.00000016 Ry

     iteration #  5     ecut=    30.00 Ry     beta=0.70
     Davidson diagonalization with overlap
     ethr =  2.87E-10,  avg # of iterations =  2.0

     total cpu time spent up to now is       27.8 secs

     total energy              =    -329.49230810 Ry
     Harris-Foulkes estimate   =    -329.49230808 Ry
     estimated scf accuracy    <       0.00000004 Ry

     iteration #  6     ecut=    30.00 Ry     beta=0.70
     Davidson diagonalization with overlap
     ethr =  7.15E-11,  avg # of iterations =  2.0

     total cpu time spent up to now is       28.0 secs

     total energy              =    -329.49230811 Ry
     Harris-Foulkes estimate   =    -329.49230811 Ry
     estimated scf accuracy    <          3.3E-09 Ry

     iteration #  7     ecut=    30.00 Ry     beta=0.70
     Davidson diagonalization with overlap
     ethr =  6.06E-12,  avg # of iterations =  3.0

     total cpu time spent up to now is       28.3 secs

     total energy              =    -329.49230811 Ry
     Harris-Foulkes estimate   =    -329.49230811 Ry
     estimated scf accuracy    <          4.9E-10 Ry

     iteration #  8     ecut=    30.00 Ry     beta=0.70
     Davidson diagonalization with overlap
     ethr =  8.96E-13,  avg # of iterations =  3.0

     total cpu time spent up to now is       28.5 secs

     total energy              =    -329.49230811 Ry
     Harris-Foulkes estimate   =    -329.49230811 Ry
     estimated scf accuracy    <          2.0E-10 Ry

     iteration #  9     ecut=    30.00 Ry     beta=0.70
     Davidson diagonalization with overlap
     ethr =  3.67E-13,  avg # of iterations =  2.0

     total cpu time spent up to now is       28.7 secs

     End of self-consistent calculation

          k = 0.0000 0.0000 0.0000 ( 22119 PWs)   bands (ev):

    -8.5195  -7.7767  -7.6645  -7.2182  -6.8314  -6.8205  -6.5848  -6.4852
    -6.2995  -6.0924  -5.9322  -5.7719  -5.7304  -5.6879  -5.4662  -5.3504
    -5.3143  -5.2577  -5.2077  -5.1747  -5.1715  -5.1194  -4.9971  -4.9322
    -4.8260  -4.7398  -4.4891  -3.7802  -2.4555  -2.2170  -0.5484  -0.1755
     0.4844   0.8451

     the Fermi energy is    -3.7467 ev

!    total energy              =    -329.49230811 Ry
     Harris-Foulkes estimate   =    -329.49230811 Ry
     estimated scf accuracy    <          4.3E-11 Ry

     The total energy is the sum of the following terms:

     one-electron contribution =    -607.54757080 Ry
     hartree contribution      =     325.20644729 Ry
     xc contribution           =     -51.39742503 Ry
     ewald contribution        =       4.25080723 Ry
     smearing contrib. (-TS)   =      -0.00456681 Ry

     convergence has been achieved in   9 iterations

     Forces acting on atoms (Ry/au):

     atom    1 type  1   force =    -0.00058995   -0.00054671    0.00013873
     atom    2 type  1   force =     0.00011793   -0.00085001   -0.00234030
     atom    3 type  1   force =    -0.00004403    0.00030451    0.00039710
     atom    4 type  1   force =     0.00119385    0.00002063    0.00055329
     atom    5 type  1   force =    -0.00067781    0.00107158    0.00125117

     Total force =     0.003469     Total SCF correction =     0.000022

     number of scf cycles    =  11
     number of bfgs steps    =  10

     energy   old            =    -329.4922951217 Ry
     energy   new            =    -329.4923081147 Ry

     CASE: energy  _new < energy  _old

     new trust radius        =       0.0057432228 bohr
     new conv_thr            =            1.0E-10 Ry


ATOMIC_POSITIONS (bohr)
Au      -1.561785966   2.004687706  -1.063086457
Au      -0.742808719   3.919451700   3.690345036
Au       3.130696065   1.576292783   0.763372697
Au       4.002092032   3.546893199   5.741542108
Au       7.716799588   1.347181611   2.865683615



     Writing output data file pwscf.save
     Check: negative starting charge=   -0.006395
     NEW-OLD atomic charge density approx. for the potential
     Check: negative starting charge=   -0.006393

     negative rho (up, down):  3.037E-07 0.000E+00

     total cpu time spent up to now is       29.0 secs

     per-process dynamical memory:    50.7 Mb

     Self-consistent Calculation

     iteration #  1     ecut=    30.00 Ry     beta=0.70
     Davidson diagonalization with overlap
     ethr =  1.00E-06,  avg # of iterations =  3.0

     Threshold (ethr) on eigenvalues was too large:
     Diagonalizing with lowered threshold

     Davidson diagonalization with overlap
     ethr =  7.67E-09,  avg # of iterations =  2.0

     total cpu time spent up to now is       29.4 secs

     total energy              =    -329.49232320 Ry
     Harris-Foulkes estimate   =    -329.49232242 Ry
     estimated scf accuracy    <       0.00000465 Ry

     iteration #  2     ecut=    30.00 Ry     beta=0.70
     Davidson diagonalization with overlap
     ethr =  8.45E-09,  avg # of iterations =  3.0

     total cpu time spent up to now is       29.7 secs

     total energy              =    -329.49232300 Ry
     Harris-Foulkes estimate   =    -329.49232591 Ry
     estimated scf accuracy    <       0.00000547 Ry

     iteration #  3     ecut=    30.00 Ry     beta=0.70
     Davidson diagonalization with overlap
     ethr =  8.45E-09,  avg # of iterations =  2.0

     total cpu time spent up to now is       29.9 secs

     total energy              =    -329.49232458 Ry
     Harris-Foulkes estimate   =    -329.49232474 Ry
     estimated scf accuracy    <       0.00000158 Ry

     iteration #  4     ecut=    30.00 Ry     beta=0.70
     Davidson diagonalization with overlap
     ethr =  2.87E-09,  avg # of iterations =  2.0

     total cpu time spent up to now is       30.1 secs

     total energy              =    -329.49232506 Ry
     Harris-Foulkes estimate   =    -329.49232497 Ry
     estimated scf accuracy    <       0.00000021 Ry

     iteration #  5     ecut=    30.00 Ry     beta=0.70
     Davidson diagonalization with overlap
     ethr =  3.83E-10,  avg # of iterations =  2.0

     total cpu time spent up to now is       30.3 secs

     total energy              =    -329.49232502 Ry
     Harris-Foulkes estimate   =    -329.49232512 Ry
     estimated scf accuracy    <       0.00000004 Ry

     iteration #  6     ecut=    30.00 Ry     beta=0.70
     Davidson diagonalization with overlap
     ethr =  7.38E-11,  avg # of iterations =  2.0

     total cpu time spent up to now is       30.5 secs

     total energy              =    -329.49232500 Ry
     Harris-Foulkes estimate   =    -329.49232503 Ry
     estimated scf accuracy    <          3.5E-09 Ry

     iteration #  7     ecut=    30.00 Ry     beta=0.70
     Davidson diagonalization with overlap
     ethr =  6.33E-12,  avg # of iterations =  2.0

     total cpu time spent up to now is       30.8 secs

     total energy              =    -329.49232503 Ry
     Harris-Foulkes estimate   =    -329.49232500 Ry
     estimated scf accuracy    <          5.9E-10 Ry

     iteration #  8     ecut=    30.00 Ry     beta=0.70
     Davidson diagonalization with overlap
     ethr =  1.06E-12,  avg # of iterations =  3.0

     total cpu time spent up to now is       31.0 secs

     total energy              =    -329.49232503 Ry
     Harris-Foulkes estimate   =    -329.49232503 Ry
     estimated scf accuracy    <          1.6E-10 Ry

     iteration #  9     ecut=    30.00 Ry     beta=0.70
     Davidson diagonalization with overlap
     ethr =  2.94E-13,  avg # of iterations =  2.0

     total cpu time spent up to now is       31.2 secs

     End of self-consistent calculation

          k = 0.0000 0.0000 0.0000 ( 22119 PWs)   bands (ev):

    -8.5175  -7.7761  -7.6664  -7.2205  -6.8335  -6.8191  -6.5848  -6.4856
    -6.3017  -6.0907  -5.9322  -5.7715  -5.7297  -5.6880  -5.4662  -5.3512
    -5.3149  -5.2572  -5.2078  -5.1752  -5.1710  -5.1195  -4.9980  -4.9311
    -4.8259  -4.7401  -4.4883  -3.7805  -2.4563  -2.2158  -0.5485  -0.1757
     0.4828   0.8454

     the Fermi energy is    -3.7471 ev

!    total energy              =    -329.49232504 Ry
     Harris-Foulkes estimate   =    -329.49232503 Ry
     estimated scf accuracy    <          5.1E-11 Ry

     The total energy is the sum of the following terms:

     one-electron contribution =    -607.56025506 Ry
     hartree contribution      =     325.21264066 Ry
     xc contribution           =     -51.39750699 Ry
     ewald contribution        =       4.25733591 Ry
     smearing contrib. (-TS)   =      -0.00453956 Ry

     convergence has been achieved in   9 iterations

     Forces acting on atoms (Ry/au):

     atom    1 type  1   force =    -0.00037911   -0.00057297    0.00016788
     atom    2 type  1   force =    -0.00014738   -0.00076336   -0.00237314
     atom    3 type  1   force =    -0.00014355    0.00029915    0.00038041
     atom    4 type  1   force =     0.00138882   -0.00000941    0.00064583
     atom    5 type  1   force =    -0.00071877    0.00104659    0.00117903

     Total force =     0.003513     Total SCF correction =     0.000026

     number of scf cycles    =  12
     number of bfgs steps    =  11

     energy   old            =    -329.4923081147 Ry
     energy   new            =    -329.4923250436 Ry

     CASE: energy  _new < energy  _old

     new trust radius        =       0.0086148342 bohr
     new conv_thr            =            1.0E-10 Ry


ATOMIC_POSITIONS (bohr)
Au      -1.565688694   2.001217263  -1.064286199
Au      -0.736560282   3.916661533   3.685111741
Au       3.131214331   1.575809357   0.760955447
Au       4.001128338   3.549611290   5.745500211
Au       7.714899307   1.351207557   2.870575800



     Writing output data file pwscf.save
     Check: negative starting charge=   -0.006393
     NEW-OLD atomic charge density approx. for the potential
     Check: negative starting charge=   -0.006392

     negative rho (up, down):  2.810E-06 0.000E+00

     total cpu time spent up to now is       31.4 secs

     per-process dynamical memory:    50.7 Mb

     Self-consistent Calculation

     iteration #  1     ecut=    30.00 Ry     beta=0.70
     Davidson diagonalization with overlap
     ethr =  1.00E-06,  avg # of iterations =  3.0

     Threshold (ethr) on eigenvalues was too large:
     Diagonalizing with lowered threshold

     Davidson diagonalization with overlap
     ethr =  1.69E-08,  avg # of iterations =  2.0

     total cpu time spent up to now is       31.9 secs

     total energy              =    -329.49234705 Ry
     Harris-Foulkes estimate   =    -329.49234598 Ry
     estimated scf accuracy    <       0.00001032 Ry

     iteration #  2     ecut=    30.00 Ry     beta=0.70
     Davidson diagonalization with overlap
     ethr =  1.88E-08,  avg # of iterations =  2.0

     total cpu time spent up to now is       32.2 secs

     total energy              =    -329.49234779 Ry
     Harris-Foulkes estimate   =    -329.49235295 Ry
     estimated scf accuracy    <       0.00001167 Ry

     iteration #  3     ecut=    30.00 Ry     beta=0.70
     Davidson diagonalization with overlap
     ethr =  1.88E-08,  avg # of iterations =  2.0

     total cpu time spent up to now is       32.4 secs

     total energy              =    -329.49235047 Ry
     Harris-Foulkes estimate   =    -329.49235157 Ry
     estimated scf accuracy    <       0.00000349 Ry

     iteration #  4     ecut=    30.00 Ry     beta=0.70
     Davidson diagonalization with overlap
     ethr =  6.34E-09,  avg # of iterations =  2.0

     total cpu time spent up to now is       32.6 secs

     total energy              =    -329.49235112 Ry
     Harris-Foulkes estimate   =    -329.49235133 Ry
     estimated scf accuracy    <       0.00000049 Ry

     iteration #  5     ecut=    30.00 Ry     beta=0.70
     Davidson diagonalization with overlap
     ethr =  8.83E-10,  avg # of iterations =  2.0

     total cpu time spent up to now is       32.8 secs

     total energy              =    -329.49235135 Ry
     Harris-Foulkes estimate   =    -329.49235126 Ry
     estimated scf accuracy    <       0.00000009 Ry

     iteration #  6     ecut=    30.00 Ry     beta=0.70
     Davidson diagonalization with overlap
     ethr =  1.57E-10,  avg # of iterations =  2.0

     total cpu time spent up to now is       33.0 secs

     total energy              =    -329.49235132 Ry
     Harris-Foulkes estimate   =    -329.49235137 Ry
     estimated scf accuracy    <          8.1E-09 Ry

     iteration #  7     ecut=    30.00 Ry     beta=0.70
     Davidson diagonalization with overlap
     ethr =  1.47E-11,  avg # of iterations =  3.0

     total cpu time spent up to now is       33.3 secs

     total energy              =    -329.49235131 Ry
     Harris-Foulkes estimate   =    -329.49235132 Ry
     estimated scf accuracy    <          1.2E-09 Ry

     iteration #  8     ecut=    30.00 Ry     beta=0.70
     Davidson diagonalization with overlap
     ethr =  2.24E-12,  avg # of iterations =  2.0

     total cpu time spent up to now is       33.5 secs

     total energy              =    -329.49235132 Ry
     Harris-Foulkes estimate   =    -329.49235131 Ry
     estimated scf accuracy    <          1.4E-10 Ry

     iteration #  9     ecut=    30.00 Ry     beta=0.70
     Davidson diagonalization with overlap
     ethr =  2.54E-13,  avg # of iterations =  3.0

     total cpu time spent up to now is       33.7 secs

     End of self-consistent calculation

          k = 0.0000 0.0000 0.0000 ( 22119 PWs)   bands (ev):

    -8.5153  -7.7762  -7.6684  -7.2241  -6.8363  -6.8176  -6.5862  -6.4865
    -6.3046  -6.0886  -5.9332  -5.7710  -5.7289  -5.6881  -5.4666  -5.3522
    -5.3154  -5.2566  -5.2075  -5.1762  -5.1704  -5.1197  -4.9994  -4.9298
    -4.8265  -4.7397  -4.4874  -3.7802  -2.4575  -2.2141  -0.5487  -0.1757
     0.4804   0.8455

     the Fermi energy is    -3.7468 ev

!    total energy              =    -329.49235131 Ry
     Harris-Foulkes estimate   =    -329.49235132 Ry
     estimated scf accuracy    <          8.2E-11 Ry

     The total energy is the sum of the following terms:

[...]

     CASE: energy  _new < energy  _old

     new trust radius        =       0.0038416032 bohr
     new conv_thr            =            1.0E-10 Ry


ATOMIC_POSITIONS (bohr)
Au      -1.582679936   1.969398657  -1.076049329
Au      -0.699191129   3.899735922   3.638013957
Au       3.131130328   1.571522477   0.741693292
Au       4.004665902   3.571166035   5.783799798
Au       7.691067835   1.382683909   2.910399283



     Writing output data file pwscf.save
     Check: negative starting charge=   -0.006370
     NEW-OLD atomic charge density approx. for the potential
     Check: negative starting charge=   -0.006369

     negative rho (up, down):  1.798E-08 0.000E+00

     total cpu time spent up to now is       46.3 secs

     per-process dynamical memory:    50.7 Mb

     Self-consistent Calculation

     iteration #  1     ecut=    30.00 Ry     beta=0.70
     Davidson diagonalization with overlap
     ethr =  1.00E-06,  avg # of iterations =  3.0

     Threshold (ethr) on eigenvalues was too large:
     Diagonalizing with lowered threshold

     Davidson diagonalization with overlap
     ethr =  3.24E-09,  avg # of iterations =  3.0

     total cpu time spent up to now is       46.7 secs

     total energy              =    -329.49248207 Ry
     Harris-Foulkes estimate   =    -329.49248196 Ry
     estimated scf accuracy    <       0.00000193 Ry

     iteration #  2     ecut=    30.00 Ry     beta=0.70
     Davidson diagonalization with overlap
     ethr =  3.51E-09,  avg # of iterations =  3.0

     total cpu time spent up to now is       47.0 secs

     total energy              =    -329.49248223 Ry
     Harris-Foulkes estimate   =    -329.49248317 Ry
     estimated scf accuracy    <       0.00000236 Ry

     iteration #  3     ecut=    30.00 Ry     beta=0.70
     Davidson diagonalization with overlap
     ethr =  3.51E-09,  avg # of iterations =  2.0

     total cpu time spent up to now is       47.2 secs

     total energy              =    -329.49248300 Ry
     Harris-Foulkes estimate   =    -329.49248299 Ry
     estimated scf accuracy    <       0.00000068 Ry

     iteration #  4     ecut=    30.00 Ry     beta=0.70
     Davidson diagonalization with overlap
     ethr =  1.24E-09,  avg # of iterations =  2.0

     total cpu time spent up to now is       47.4 secs

     total energy              =    -329.49248321 Ry
     Harris-Foulkes estimate   =    -329.49248317 Ry
     estimated scf accuracy    <       0.00000010 Ry

     iteration #  5     ecut=    30.00 Ry     beta=0.70
     Davidson diagonalization with overlap
     ethr =  1.90E-10,  avg # of iterations =  2.0

     total cpu time spent up to now is       47.6 secs

     total energy              =    -329.49248321 Ry
     Harris-Foulkes estimate   =    -329.49248323 Ry
     estimated scf accuracy    <       0.00000001 Ry

     iteration #  6     ecut=    30.00 Ry     beta=0.70
     Davidson diagonalization with overlap
     ethr =  2.43E-11,  avg # of iterations =  2.0

     total cpu time spent up to now is       47.9 secs

     total energy              =    -329.49248319 Ry
     Harris-Foulkes estimate   =    -329.49248322 Ry
     estimated scf accuracy    <          2.5E-09 Ry

     iteration #  7     ecut=    30.00 Ry     beta=0.70
     Davidson diagonalization with overlap
     ethr =  4.57E-12,  avg # of iterations =  2.0

     total cpu time spent up to now is       48.1 secs

     total energy              =    -329.49248321 Ry
     Harris-Foulkes estimate   =    -329.49248319 Ry
     estimated scf accuracy    <          4.2E-10 Ry

     iteration #  8     ecut=    30.00 Ry     beta=0.70
     Davidson diagonalization with overlap
     ethr =  7.68E-13,  avg # of iterations =  2.0

     total cpu time spent up to now is       48.3 secs

     total energy              =    -329.49248321 Ry
     Harris-Foulkes estimate   =    -329.49248321 Ry
     estimated scf accuracy    <          1.1E-10 Ry

     iteration #  9     ecut=    30.00 Ry     beta=0.70
     Davidson diagonalization with overlap
     ethr =  1.92E-13,  avg # of iterations =  2.0

     total cpu time spent up to now is       48.5 secs

     End of self-consistent calculation

          k = 0.0000 0.0000 0.0000 ( 22119 PWs)   bands (ev):

    -8.5100  -7.7841  -7.6637  -7.2424  -6.8594  -6.8143  -6.6040  -6.4893
    -6.3131  -6.0786  -5.9523  -5.7669  -5.7275  -5.6881  -5.4675  -5.3573
    -5.3163  -5.2516  -5.2029  -5.1866  -5.1679  -5.1226  -5.0053  -4.9259
    -4.8492  -4.7185  -4.4867  -3.7719  -2.4620  -2.2090  -0.5491  -0.1749
     0.4620   0.8427

     the Fermi energy is    -3.7378 ev

!    total energy              =    -329.49248321 Ry
     Harris-Foulkes estimate   =    -329.49248321 Ry
     estimated scf accuracy    <          9.2E-12 Ry

     The total energy is the sum of the following terms:

     one-electron contribution =    -607.81771621 Ry
     hartree contribution      =     325.33617947 Ry
     xc contribution           =     -51.39882201 Ry
     ewald contribution        =       4.39257199 Ry
     smearing contrib. (-TS)   =      -0.00469644 Ry

     convergence has been achieved in   9 iterations

     Forces acting on atoms (Ry/au):

     atom    1 type  1   force =     0.00074176   -0.00053750   -0.00111660
     atom    2 type  1   force =    -0.00020874    0.00062005    0.00018249
     atom    3 type  1   force =    -0.00017078    0.00001704    0.00027388
     atom    4 type  1   force =    -0.00013758    0.00030876    0.00041439
     atom    5 type  1   force =    -0.00022466   -0.00040835    0.00024584

     Total force =     0.001793     Total SCF correction =     0.000011

     number of scf cycles    =  19
     number of bfgs steps    =  18

     energy   old            =    -329.4924741255 Ry
     energy   new            =    -329.4924832078 Ry

     CASE: energy  _new < energy  _old

     new trust radius        =       0.0057624047 bohr
     new conv_thr            =            1.0E-10 Ry


ATOMIC_POSITIONS (bohr)
Au      -1.579776128   1.966114887  -1.079789658
Au      -0.699548304   3.901320545   3.636004557
Au       3.129978641   1.571288087   0.741286233
Au       4.005810844   3.572911401   5.787420766
Au       7.688527947   1.382872080   2.912935102



     Writing output data file pwscf.save
     Check: negative starting charge=   -0.006369
     NEW-OLD atomic charge density approx. for the potential
     Check: negative starting charge=   -0.006368

     negative rho (up, down):  2.414E-07 0.000E+00

     total cpu time spent up to now is       48.7 secs

     per-process dynamical memory:    50.7 Mb

     Self-consistent Calculation

     iteration #  1     ecut=    30.00 Ry     beta=0.70
     Davidson diagonalization with overlap
     ethr =  1.00E-06,  avg # of iterations =  3.0

     Threshold (ethr) on eigenvalues was too large:
     Diagonalizing with lowered threshold

     Davidson diagonalization with overlap
     ethr =  6.39E-09,  avg # of iterations =  2.0

     total cpu time spent up to now is       49.2 secs

     total energy              =    -329.49249163 Ry
     Harris-Foulkes estimate   =    -329.49249085 Ry
     estimated scf accuracy    <       0.00000383 Ry

     iteration #  2     ecut=    30.00 Ry     beta=0.70
     Davidson diagonalization with overlap
     ethr =  6.97E-09,  avg # of iterations =  3.0

     total cpu time spent up to now is       49.4 secs

     total energy              =    -329.49249220 Ry
     Harris-Foulkes estimate   =    -329.49249362 Ry
     estimated scf accuracy    <       0.00000388 Ry

     iteration #  3     ecut=    30.00 Ry     beta=0.70
     Davidson diagonalization with overlap
     ethr =  6.97E-09,  avg # of iterations =  2.0

     total cpu time spent up to now is       49.7 secs

     total energy              =    -329.49249316 Ry
     Harris-Foulkes estimate   =    -329.49249352 Ry
     estimated scf accuracy    <       0.00000134 Ry

     iteration #  4     ecut=    30.00 Ry     beta=0.70
     Davidson diagonalization with overlap
     ethr =  2.43E-09,  avg # of iterations =  2.0

     total cpu time spent up to now is       49.9 secs

     total energy              =    -329.49249343 Ry
     Harris-Foulkes estimate   =    -329.49249352 Ry
     estimated scf accuracy    <       0.00000024 Ry

     iteration #  5     ecut=    30.00 Ry     beta=0.70
     Davidson diagonalization with overlap
     ethr =  4.41E-10,  avg # of iterations =  2.0

     total cpu time spent up to now is       50.1 secs

     total energy              =    -329.49249358 Ry
     Harris-Foulkes estimate   =    -329.49249349 Ry
     estimated scf accuracy    <       0.00000002 Ry

     iteration #  6     ecut=    30.00 Ry     beta=0.70
     Davidson diagonalization with overlap
     ethr =  3.41E-11,  avg # of iterations =  3.0

     total cpu time spent up to now is       50.3 secs

     total energy              =    -329.49249361 Ry
     Harris-Foulkes estimate   =    -329.49249358 Ry
     estimated scf accuracy    <          3.7E-09 Ry

     iteration #  7     ecut=    30.00 Ry     beta=0.70
     Davidson diagonalization with overlap
     ethr =  6.73E-12,  avg # of iterations =  2.0

     total cpu time spent up to now is       50.6 secs

     total energy              =    -329.49249358 Ry
     Harris-Foulkes estimate   =    -329.49249361 Ry
     estimated scf accuracy    <          8.0E-10 Ry

     iteration #  8     ecut=    30.00 Ry     beta=0.70
     Davidson diagonalization with overlap
     ethr =  1.46E-12,  avg # of iterations =  2.0

     total cpu time spent up to now is       50.8 secs

     total energy              =    -329.49249358 Ry
     Harris-Foulkes estimate   =    -329.49249358 Ry
     estimated scf accuracy    <          1.2E-10 Ry

     iteration #  9     ecut=    30.00 Ry     beta=0.70
     Davidson diagonalization with overlap
     ethr =  2.23E-13,  avg # of iterations =  2.0

     total cpu time spent up to now is       51.0 secs

     End of self-consistent calculation

          k = 0.0000 0.0000 0.0000 ( 22119 PWs)   bands (ev):

    -8.5103  -7.7831  -7.6600  -7.2391  -6.8589  -6.8149  -6.6030  -6.4876
    -6.3103  -6.0794  -5.9527  -5.7669  -5.7280  -5.6877  -5.4663  -5.3569
    -5.3160  -5.2515  -5.2028  -5.1869  -5.1677  -5.1231  -5.0042  -4.9272
    -4.8515  -4.7170  -4.4878  -3.7719  -2.4604  -2.2117  -0.5486  -0.1752
     0.4610   0.8423

     the Fermi energy is    -3.7376 ev

!    total energy              =    -329.49249360 Ry
     Harris-Foulkes estimate   =    -329.49249358 Ry
     estimated scf accuracy    <          2.2E-11 Ry

     The total energy is the sum of the following terms:

     one-electron contribution =    -607.70064512 Ry
     hartree contribution      =     325.27819766 Ry
     xc contribution           =     -51.39844184 Ry
     ewald contribution        =       4.33311659 Ry
     smearing contrib. (-TS)   =      -0.00472088 Ry

     convergence has been achieved in   9 iterations

     Forces acting on atoms (Ry/au):

     atom    1 type  1   force =     0.00054851   -0.00037605   -0.00100862
     atom    2 type  1   force =     0.00006580    0.00045136    0.00013352
     atom    3 type  1   force =     0.00006628    0.00005856    0.00049233
     atom    4 type  1   force =    -0.00045888    0.00028791    0.00009987
     atom    5 type  1   force =    -0.00022171   -0.00042177    0.00028290

     Total force =     0.001596     Total SCF correction =     0.000016

     number of scf cycles    =  20
     number of bfgs steps    =  19

     energy   old            =    -329.4924832078 Ry
     energy   new            =    -329.4924935961 Ry

     CASE: energy  _new < energy  _old

     new trust radius        =       0.0086436071 bohr
     new conv_thr            =            1.0E-10 Ry


ATOMIC_POSITIONS (bohr)
Au      -1.575713098   1.961347993  -1.085746206
Au      -0.699763571   3.903635180   3.633124604
Au       3.128465444   1.571141138   0.741354288
Au       4.006860209   3.575522281   5.792322222
Au       7.685144016   1.382860408   2.916802090



     Writing output data file pwscf.save
     Check: negative starting charge=   -0.006368
     NEW-OLD atomic charge density approx. for the potential
     Check: negative starting charge=   -0.006368

     negative rho (up, down):  1.845E-06 0.000E+00

     total cpu time spent up to now is       51.2 secs

     per-process dynamical memory:    50.7 Mb

     Self-consistent Calculation

     iteration #  1     ecut=    30.00 Ry     beta=0.70
     Davidson diagonalization with overlap
     ethr =  1.00E-06,  avg # of iterations =  3.0

     Threshold (ethr) on eigenvalues was too large:
     Diagonalizing with lowered threshold

     Davidson diagonalization with overlap
     ethr =  1.34E-08,  avg # of iterations =  2.0

     total cpu time spent up to now is       51.7 secs

     total energy              =    -329.49250059 Ry
     Harris-Foulkes estimate   =    -329.49249979 Ry
     estimated scf accuracy    <       0.00000800 Ry

     iteration #  2     ecut=    30.00 Ry     beta=0.70
     Davidson diagonalization with overlap
     ethr =  1.45E-08,  avg # of iterations =  3.0

     total cpu time spent up to now is       51.9 secs

     total energy              =    -329.49250137 Ry
     Harris-Foulkes estimate   =    -329.49250457 Ry
     estimated scf accuracy    <       0.00000720 Ry

     iteration #  3     ecut=    30.00 Ry     beta=0.70
     Davidson diagonalization with overlap
     ethr =  1.31E-08,  avg # of iterations =  2.0

     total cpu time spent up to now is       52.2 secs

     total energy              =    -329.49250327 Ry
     Harris-Foulkes estimate   =    -329.49250387 Ry
     estimated scf accuracy    <       0.00000256 Ry

     iteration #  4     ecut=    30.00 Ry     beta=0.70
     Davidson diagonalization with overlap
     ethr =  4.66E-09,  avg # of iterations =  2.0

     total cpu time spent up to now is       52.4 secs

     total energy              =    -329.49250403 Ry
     Harris-Foulkes estimate   =    -329.49250400 Ry
     estimated scf accuracy    <       0.00000056 Ry

     iteration #  5     ecut=    30.00 Ry     beta=0.70
     Davidson diagonalization with overlap
     ethr =  1.02E-09,  avg # of iterations =  2.0

     total cpu time spent up to now is       52.6 secs

     total energy              =    -329.49250419 Ry
     Harris-Foulkes estimate   =    -329.49250414 Ry
     estimated scf accuracy    <       0.00000003 Ry

     iteration #  6     ecut=    30.00 Ry     beta=0.70
     Davidson diagonalization with overlap
     ethr =  4.95E-11,  avg # of iterations =  2.0

     total cpu time spent up to now is       52.8 secs

     total energy              =    -329.49250423 Ry
     Harris-Foulkes estimate   =    -329.49250420 Ry
     estimated scf accuracy    <          3.2E-09 Ry

     iteration #  7     ecut=    30.00 Ry     beta=0.70
     Davidson diagonalization with overlap
     ethr =  5.91E-12,  avg # of iterations =  3.0

     total cpu time spent up to now is       53.1 secs

     total energy              =    -329.49250420 Ry
     Harris-Foulkes estimate   =    -329.49250424 Ry
     estimated scf accuracy    <          1.9E-09 Ry

     iteration #  8     ecut=    30.00 Ry     beta=0.70
     Davidson diagonalization with overlap
     ethr =  3.52E-12,  avg # of iterations =  2.0

     total cpu time spent up to now is       53.3 secs

     total energy              =    -329.49250421 Ry
     Harris-Foulkes estimate   =    -329.49250420 Ry
     estimated scf accuracy    <          1.0E-10 Ry

     iteration #  9     ecut=    30.00 Ry     beta=0.70
     Davidson diagonalization with overlap
     ethr =  1.84E-13,  avg # of iterations =  3.0

     total cpu time spent up to now is       53.5 secs

     End of self-consistent calculation

          k = 0.0000 0.0000 0.0000 ( 22119 PWs)   bands (ev):

    -8.5106  -7.7817  -7.6557  -7.2347  -6.8581  -6.8155  -6.6009  -6.4858
    -6.3068  -6.0805  -5.9526  -5.7668  -5.7286  -5.6873  -5.4648  -5.3565
    -5.3157  -5.2515  -5.2027  -5.1873  -5.1674  -5.1236  -5.0029  -4.9289
    -4.8542  -4.7151  -4.4895  -3.7719  -2.4581  -2.2153  -0.5479  -0.1755
     0.4596   0.8420

     the Fermi energy is    -3.7376 ev

!    total energy              =    -329.49250421 Ry
     Harris-Foulkes estimate   =    -329.49250421 Ry
     estimated scf accuracy    <          3.2E-11 Ry

     The total energy is the sum of the following terms:

     one-electron contribution =    -607.53971436 Ry
     hartree contribution      =     325.19847085 Ry
     xc contribution           =     -51.39791487 Ry
     ewald contribution        =       4.25140528 Ry
     smearing contrib. (-TS)   =      -0.00475112 Ry

     convergence has been achieved in   9 iterations

     Forces acting on atoms (Ry/au):

     atom    1 type  1   force =     0.00034310   -0.00012303   -0.00075958
     atom    2 type  1   force =     0.00036849    0.00020434   -0.00000357
     atom    3 type  1   force =     0.00034958    0.00009945    0.00072449
     atom    4 type  1   force =    -0.00082942    0.00024259   -0.00031810
     atom    5 type  1   force =    -0.00023174   -0.00042335    0.00035676

     Total force =     0.001659     Total SCF correction =     0.000021

     bfgs converged in  21 scf cycles and  20 bfgs steps
     (criteria: energy <  1.0E-04, force <  1.0E-03)

     End of BFGS Geometry Optimization

     Final energy   =    -329.4925042113 Ry
Begin final coordinates

ATOMIC_POSITIONS (bohr)
Au      -1.575713098   1.961347993  -1.085746206
Au      -0.699763571   3.903635180   3.633124604
Au       3.128465444   1.571141138   0.741354288
Au       4.006860209   3.575522281   5.792322222
Au       7.685144016   1.382860408   2.916802090
End final coordinates



     Writing output data file pwscf.save
 
     init_run     :      0.17s CPU      0.21s WALL (       1 calls)
     electrons    :     45.82s CPU     49.31s WALL (      21 calls)
     update_pot   :      1.37s CPU      1.71s WALL (      20 calls)
     forces       :      0.89s CPU      0.92s WALL (      21 calls)

     Called by init_run:
     wfcinit      :      0.07s CPU      0.09s WALL (       1 calls)
     potinit      :      0.04s CPU      0.05s WALL (       1 calls)

     Called by electrons:
     c_bands      :     35.08s CPU     35.82s WALL (     207 calls)
     sum_band     :      5.04s CPU      5.20s WALL (     207 calls)
     v_of_rho     :      3.93s CPU      4.03s WALL (     213 calls)
     mix_rho      :      1.55s CPU      3.30s WALL (     207 calls)

     Called by c_bands:
     init_us_2    :      0.65s CPU      0.69s WALL (     415 calls)
     cegterg      :     31.17s CPU     31.77s WALL (     207 calls)

     Called by sum_band:

     Called by *egterg:
     h_psi        :     24.35s CPU     24.76s WALL (     733 calls)
     g_psi        :      0.24s CPU      0.25s WALL (     525 calls)
     cdiaghg      :      1.69s CPU      1.72s WALL (     697 calls)

     Called by h_psi:
     h_psi:pot    :     23.98s CPU     24.38s WALL (     733 calls)
     h_psi:calbec :      1.34s CPU      1.36s WALL (     733 calls)
     vloc_psi     :     21.10s CPU     21.46s WALL (     733 calls)
     add_vuspsi   :      1.54s CPU      1.56s WALL (     733 calls)

     General routines
     calbec       :      1.60s CPU      1.63s WALL (     817 calls)
     fft          :      2.18s CPU      2.24s WALL (    2414 calls)
     fftw         :     22.38s CPU     22.79s WALL (   45374 calls)
     davcio       :      0.24s CPU      1.70s WALL (    1896 calls)
 
     Parallel routines
     fft_scatter  :      5.61s CPU      5.48s WALL (   47788 calls)
 
     PWSCF        :    48.89s CPU        53.71s WALL

 
   This run was terminated on:  13:17:46   3Aug2017            

=------------------------------------------------------------------------------=
   JOB DONE.
=------------------------------------------------------------------------------=
