
     Program PWSCF v.6.0 (svn rev. 13079) starts on  3Aug2017 at 15:38:29 

     This program is part of the open-source Quantum ESPRESSO suite
     for quantum simulation of materials; please cite
         "P. Giannozzi et al., J. Phys.:Condens. Matter 21 395502 (2009);
          URL http://www.quantum-espresso.org", 
     in publications or presentations arising from this work. More details at
     http://www.quantum-espresso.org/quote

     Parallel version (MPI), running on    10 processors
     R & G space division:  proc/nbgrp/npool/nimage =      10
     Reading input from input/multi/minchecks-Gold5-221.in

     Current dimensions of program PWSCF are:
     Max number of different atomic species (ntypx) = 10
     Max number of k-points (npk) =  40000
     Max angular momentum in pseudopotentials (lmaxx) =  3
     Message from routine iosys:
     pot_extrapolation='second-order' not available, using 'atomic'
     Message from routine iosys:
     wfc_extrapolation='second-order' not available, using 'atomic'

     Subspace diagonalization in iterative solution of the eigenvalue problem:
     a serial algorithm will be used

 
     Parallelization info
     --------------------
     sticks:   dense  smooth     PW     G-vecs:    dense   smooth      PW
     Min         380     380     94                17748    17748    2208
     Max         381     381     95                17753    17753    2213
     Sum        3809    3809    949               177509   177509   22119
 


     bravais-lattice index     =            1
     lattice parameter (alat)  =      20.0000  a.u.
     unit-cell volume          =    8000.0000 (a.u.)^3
     number of atoms/cell      =            5
     number of atomic types    =            1
     number of electrons       =        55.00
     number of Kohn-Sham states=           34
     kinetic-energy cutoff     =      30.0000  Ry
     charge density cutoff     =     120.0000  Ry
     convergence threshold     =      1.0E-08
     mixing beta               =       0.7000
     number of iterations used =            8  plain     mixing
     Exchange-correlation      = BLYP ( 1  3  1  3 0 0)
     nstep                     =           50


     celldm(1)=  20.000000  celldm(2)=   0.000000  celldm(3)=   0.000000
     celldm(4)=   0.000000  celldm(5)=   0.000000  celldm(6)=   0.000000

     crystal axes: (cart. coord. in units of alat)
               a(1) = (   1.000000   0.000000   0.000000 )  
               a(2) = (   0.000000   1.000000   0.000000 )  
               a(3) = (   0.000000   0.000000   1.000000 )  

     reciprocal axes: (cart. coord. in units 2 pi/alat)
               b(1) = (  1.000000  0.000000  0.000000 )  
               b(2) = (  0.000000  1.000000  0.000000 )  
               b(3) = (  0.000000  0.000000  1.000000 )  


     PseudoPot. # 1 for Au read from file:
     ./Au.blyp-d-hgh.UPF
     MD5 check sum: c10d8bae01f806c36a1643a1c69a8479
     Pseudo is Norm-conserving, Zval = 11.0
     Generated in analytical, separable form
     Using radial grid of 1279 points,  6 beta functions with: 
                l(1) =   0
                l(2) =   0
                l(3) =   1
                l(4) =   1
                l(5) =   2
                l(6) =   2

     atomic species   valence    mass     pseudopotential
        Au            11.00    28.08600     Au( 1.00)

     No symmetry found



   Cartesian axes

     site n.     atom                  positions (alat units)
         1           Au  tau(   1) = (  -0.0881715   0.0726212  -0.0448240  )
         2           Au  tau(   2) = (  -0.0400531   0.1521696   0.1933755  )
         3           Au  tau(   3) = (   0.1562521   0.0625153   0.0244874  )
         4           Au  tau(   4) = (   0.1954034   0.1707520   0.2877711  )
         5           Au  tau(   5) = (   0.3807790   0.0794747   0.1373136  )

     number of k points=     1  Marzari-Vanderbilt smearing, width (Ry)=  0.0250
                       cart. coord. in units 2pi/alat
        k(    1) = (   0.0000000   0.0000000   0.0000000), wk =   2.0000000

     Dense  grid:   177509 G-vectors     FFT dimensions: (  72,  72,  72)

     Estimated max dynamical RAM per process >      15.04Mb

     Estimated total allocated dynamical RAM >     150.39Mb

     Initial potential from superposition of free atoms
     Check: negative starting charge=   -0.006379

     starting charge   54.99940, renormalised to   55.00000

     negative rho (up, down):  6.379E-03 0.000E+00
     Starting wfc are   45 randomized atomic wfcs

     total cpu time spent up to now is        0.3 secs

     per-process dynamical memory:    41.0 Mb

     Self-consistent Calculation

     iteration #  1     ecut=    30.00 Ry     beta=0.70
     Davidson diagonalization with overlap
     ethr =  1.00E-02,  avg # of iterations =  3.0

     Threshold (ethr) on eigenvalues was too large:
     Diagonalizing with lowered threshold

     Davidson diagonalization with overlap
     ethr =  4.06E-04,  avg # of iterations =  5.0

     negative rho (up, down):  8.793E-04 0.000E+00

     total cpu time spent up to now is        1.2 secs

     total energy              =    -329.37883730 Ry
     Harris-Foulkes estimate   =    -329.54642963 Ry
     estimated scf accuracy    <       0.27856341 Ry

     iteration #  2     ecut=    30.00 Ry     beta=0.70
     Davidson diagonalization with overlap
     ethr =  5.06E-04,  avg # of iterations =  5.0

     negative rho (up, down):  3.893E-04 0.000E+00

     total cpu time spent up to now is        1.5 secs

     total energy              =    -329.41730521 Ry
     Harris-Foulkes estimate   =    -329.55923079 Ry
     estimated scf accuracy    <       0.28873725 Ry

     iteration #  3     ecut=    30.00 Ry     beta=0.70
     Davidson diagonalization with overlap
     ethr =  5.06E-04,  avg # of iterations =  2.0

     negative rho (up, down):  1.498E-04 0.000E+00

     total cpu time spent up to now is        1.7 secs

     total energy              =    -329.47546056 Ry
     Harris-Foulkes estimate   =    -329.50193197 Ry
     estimated scf accuracy    <       0.06962686 Ry

     iteration #  4     ecut=    30.00 Ry     beta=0.70
     Davidson diagonalization with overlap
     ethr =  1.27E-04,  avg # of iterations =  5.0

     negative rho (up, down):  9.507E-06 0.000E+00

     total cpu time spent up to now is        1.9 secs

     total energy              =    -329.48781772 Ry
     Harris-Foulkes estimate   =    -329.48947023 Ry
     estimated scf accuracy    <       0.00405272 Ry

     iteration #  5     ecut=    30.00 Ry     beta=0.70
     Davidson diagonalization with overlap
     ethr =  7.37E-06,  avg # of iterations =  8.0

     total cpu time spent up to now is        2.2 secs

     total energy              =    -329.48869584 Ry
     Harris-Foulkes estimate   =    -329.48969815 Ry
     estimated scf accuracy    <       0.00277947 Ry

     iteration #  6     ecut=    30.00 Ry     beta=0.70
     Davidson diagonalization with overlap
     ethr =  5.05E-06,  avg # of iterations =  2.0

     total cpu time spent up to now is        2.4 secs

     total energy              =    -329.48913282 Ry
     Harris-Foulkes estimate   =    -329.48929136 Ry
     estimated scf accuracy    <       0.00037641 Ry

     iteration #  7     ecut=    30.00 Ry     beta=0.70
     Davidson diagonalization with overlap
     ethr =  6.84E-07,  avg # of iterations =  2.0

     total cpu time spent up to now is        2.7 secs

     total energy              =    -329.48920705 Ry
     Harris-Foulkes estimate   =    -329.48922517 Ry
     estimated scf accuracy    <       0.00004252 Ry

     iteration #  8     ecut=    30.00 Ry     beta=0.70
     Davidson diagonalization with overlap
     ethr =  7.73E-08,  avg # of iterations =  2.0

     total cpu time spent up to now is        2.9 secs

     total energy              =    -329.48921563 Ry
     Harris-Foulkes estimate   =    -329.48922269 Ry
     estimated scf accuracy    <       0.00001599 Ry

     iteration #  9     ecut=    30.00 Ry     beta=0.70
     Davidson diagonalization with overlap
     ethr =  2.91E-08,  avg # of iterations =  2.0

     total cpu time spent up to now is        3.2 secs

     total energy              =    -329.48921852 Ry
     Harris-Foulkes estimate   =    -329.48921955 Ry
     estimated scf accuracy    <       0.00000187 Ry

     iteration # 10     ecut=    30.00 Ry     beta=0.70
     Davidson diagonalization with overlap
     ethr =  3.39E-09,  avg # of iterations =  2.0

     total cpu time spent up to now is        3.5 secs

     total energy              =    -329.48921879 Ry
     Harris-Foulkes estimate   =    -329.48921912 Ry
     estimated scf accuracy    <       0.00000040 Ry

     iteration # 11     ecut=    30.00 Ry     beta=0.70
     Davidson diagonalization with overlap
     ethr =  7.31E-10,  avg # of iterations =  2.0

     total cpu time spent up to now is        3.7 secs

     total energy              =    -329.48921881 Ry
     Harris-Foulkes estimate   =    -329.48921889 Ry
     estimated scf accuracy    <       0.00000005 Ry

     iteration # 12     ecut=    30.00 Ry     beta=0.70
     Davidson diagonalization with overlap
     ethr =  9.61E-11,  avg # of iterations =  2.0

     total cpu time spent up to now is        3.9 secs

     End of self-consistent calculation

          k = 0.0000 0.0000 0.0000 ( 22119 PWs)   bands (ev):

    -8.3892  -7.7041  -7.6380  -7.1938  -6.9775  -6.7528  -6.6693  -6.4450
    -6.3096  -6.0202  -5.9902  -5.7501  -5.7046  -5.6638  -5.4049  -5.3523
    -5.3388  -5.2194  -5.1954  -5.1777  -5.1554  -5.1408  -4.9966  -4.8912
    -4.8529  -4.6922  -4.4078  -3.8098  -2.5103  -2.1556  -0.5516  -0.2327
     0.4632   0.8958

     the Fermi energy is    -3.7940 ev

!    total energy              =    -329.48921885 Ry
     Harris-Foulkes estimate   =    -329.48921883 Ry
     estimated scf accuracy    <          9.3E-09 Ry

     The total energy is the sum of the following terms:

     one-electron contribution =    -607.49942628 Ry
     hartree contribution      =     325.21758421 Ry
     xc contribution           =     -51.40821875 Ry
     ewald contribution        =       4.20161996 Ry
     smearing contrib. (-TS)   =      -0.00077799 Ry

     convergence has been achieved in  12 iterations

     Forces acting on atoms (Ry/au):

     atom    1 type  1   force =     0.00294548   -0.00356373   -0.00320192
     atom    2 type  1   force =    -0.00168187   -0.00065887   -0.00611923
     atom    3 type  1   force =    -0.00920353    0.00618483    0.01067006
     atom    4 type  1   force =     0.00609265   -0.00227089   -0.00011046
     atom    5 type  1   force =     0.00184727    0.00030866   -0.00123845

     Total force =     0.018881     Total SCF correction =     0.000305

     BFGS Geometry Optimization

     number of scf cycles    =   1
     number of bfgs steps    =   0

     energy   new            =    -329.4892188481 Ry

     new trust radius        =       0.0153885442 bohr
     new conv_thr            =       0.0000000100 Ry


ATOMIC_POSITIONS (bohr)
Au      -1.760484524   1.448861269  -0.899680925
Au      -0.802743866   3.042734133   3.861389771
Au       3.115839466   1.256491829   0.500418058
Au       3.914159653   3.412768113   5.755310543
Au       7.617426271   1.589801656   2.745033552



     Writing output data file pwscf.save
     Check: negative starting charge=   -0.006379
     NEW-OLD atomic charge density approx. for the potential
     Check: negative starting charge=   -0.006386

     negative rho (up, down):  1.284E-05 0.000E+00

     total cpu time spent up to now is        4.1 secs

     per-process dynamical memory:    42.9 Mb

     Self-consistent Calculation

     iteration #  1     ecut=    30.00 Ry     beta=0.70
     Davidson diagonalization with overlap
     ethr =  1.00E-06,  avg # of iterations =  4.0

     Threshold (ethr) on eigenvalues was too large:
     Diagonalizing with lowered threshold

     Davidson diagonalization with overlap
     ethr =  3.97E-08,  avg # of iterations =  1.0

     negative rho (up, down):  1.632E-08 0.000E+00

     total cpu time spent up to now is        4.6 secs

     total energy              =    -329.48954478 Ry
     Harris-Foulkes estimate   =    -329.48954355 Ry
     estimated scf accuracy    <       0.00002203 Ry

     iteration #  2     ecut=    30.00 Ry     beta=0.70
     Davidson diagonalization with overlap
     ethr =  4.01E-08,  avg # of iterations =  3.0

     total cpu time spent up to now is        4.9 secs

     total energy              =    -329.48954631 Ry
     Harris-Foulkes estimate   =    -329.48955654 Ry
     estimated scf accuracy    <       0.00002303 Ry

     iteration #  3     ecut=    30.00 Ry     beta=0.70
     Davidson diagonalization with overlap
     ethr =  4.01E-08,  avg # of iterations =  2.0

     total cpu time spent up to now is        5.4 secs

     total energy              =    -329.48955104 Ry
     Harris-Foulkes estimate   =    -329.48955438 Ry
     estimated scf accuracy    <       0.00000981 Ry

     iteration #  4     ecut=    30.00 Ry     beta=0.70
     Davidson diagonalization with overlap
     ethr =  1.78E-08,  avg # of iterations =  2.0

     total cpu time spent up to now is        5.5 secs

     total energy              =    -329.48955336 Ry
     Harris-Foulkes estimate   =    -329.48955322 Ry
     estimated scf accuracy    <       0.00000099 Ry

     iteration #  5     ecut=    30.00 Ry     beta=0.70
     Davidson diagonalization with overlap
     ethr =  1.81E-09,  avg # of iterations =  2.0

     total cpu time spent up to now is        5.8 secs

     total energy              =    -329.48955369 Ry
     Harris-Foulkes estimate   =    -329.48955367 Ry
     estimated scf accuracy    <       0.00000027 Ry

     iteration #  6     ecut=    30.00 Ry     beta=0.70
     Davidson diagonalization with overlap
     ethr =  4.93E-10,  avg # of iterations =  2.0

     total cpu time spent up to now is        6.0 secs

     total energy              =    -329.48955369 Ry
     Harris-Foulkes estimate   =    -329.48955375 Ry
     estimated scf accuracy    <       0.00000002 Ry

     iteration #  7     ecut=    30.00 Ry     beta=0.70
     Davidson diagonalization with overlap
     ethr =  2.97E-11,  avg # of iterations =  2.0

     total cpu time spent up to now is        6.2 secs

     End of self-consistent calculation

          k = 0.0000 0.0000 0.0000 ( 22119 PWs)   bands (ev):

    -8.4035  -7.7169  -7.6397  -7.2032  -6.9771  -6.7609  -6.6720  -6.4510
    -6.3120  -6.0227  -5.9964  -5.7537  -5.7096  -5.6672  -5.4031  -5.3603
    -5.3385  -5.2197  -5.1960  -5.1821  -5.1588  -5.1408  -4.9978  -4.8945
    -4.8588  -4.6899  -4.4152  -3.8037  -2.5088  -2.1585  -0.5534  -0.2287
     0.4618   0.8942

     the Fermi energy is    -3.7856 ev

!    total energy              =    -329.48955371 Ry
     Harris-Foulkes estimate   =    -329.48955369 Ry
     estimated scf accuracy    <          3.0E-09 Ry

     The total energy is the sum of the following terms:

     one-electron contribution =    -607.87999995 Ry
     hartree contribution      =     325.40084158 Ry
     xc contribution           =     -51.40823819 Ry
     ewald contribution        =       4.39910382 Ry
     smearing contrib. (-TS)   =      -0.00126097 Ry

     convergence has been achieved in   7 iterations

     Forces acting on atoms (Ry/au):

     atom    1 type  1   force =     0.00205046   -0.00367013   -0.00382213
     atom    2 type  1   force =    -0.00104138   -0.00019911   -0.00479221
     atom    3 type  1   force =    -0.00727903    0.00588191    0.01020868
     atom    4 type  1   force =     0.00456147   -0.00212537    0.00003457
     atom    5 type  1   force =     0.00170848    0.00011269   -0.00162892

     Total force =     0.016706     Total SCF correction =     0.000205

     number of scf cycles    =   2
     number of bfgs steps    =   1

     energy   old            =    -329.4892188481 Ry
     energy   new            =    -329.4895537138 Ry

     CASE: energy  _new < energy  _old


     WARNING: bfgs curvature condition failed, Theta= 0.912
     new trust radius        =       0.0169273986 bohr
     new conv_thr            =       0.0000000003 Ry


ATOMIC_POSITIONS (bohr)
Au      -1.757832815   1.444483664  -0.904129892
Au      -0.804130736   3.042396174   3.855357407
Au       3.106696393   1.263609755   0.512758081
Au       3.919959422   3.410188341   5.755320690
Au       7.619504736   1.589979066   2.743164713



     Writing output data file pwscf.save
     Check: negative starting charge=   -0.006386
     NEW-OLD atomic charge density approx. for the potential
     Check: negative starting charge=   -0.006395

     negative rho (up, down):  1.778E-05 0.000E+00

     total cpu time spent up to now is        6.5 secs

     per-process dynamical memory:    50.7 Mb

     Self-consistent Calculation

     iteration #  1     ecut=    30.00 Ry     beta=0.70
     Davidson diagonalization with overlap
     ethr =  1.00E-06,  avg # of iterations =  4.0

     Threshold (ethr) on eigenvalues was too large:
     Diagonalizing with lowered threshold

     Davidson diagonalization with overlap
     ethr =  4.87E-08,  avg # of iterations =  1.0

     negative rho (up, down):  3.137E-08 0.000E+00

     total cpu time spent up to now is        6.9 secs

     total energy              =    -329.48986269 Ry
     Harris-Foulkes estimate   =    -329.48986293 Ry
     estimated scf accuracy    <       0.00002693 Ry

     iteration #  2     ecut=    30.00 Ry     beta=0.70
     Davidson diagonalization with overlap
     ethr =  4.90E-08,  avg # of iterations =  3.0

     total cpu time spent up to now is        7.3 secs

     total energy              =    -329.48986497 Ry
     Harris-Foulkes estimate   =    -329.48987668 Ry
     estimated scf accuracy    <       0.00002581 Ry

     iteration #  3     ecut=    30.00 Ry     beta=0.70
     Davidson diagonalization with overlap
     ethr =  4.69E-08,  avg # of iterations =  2.0

     total cpu time spent up to now is        7.6 secs

     total energy              =    -329.48987078 Ry
     Harris-Foulkes estimate   =    -329.48987423 Ry
     estimated scf accuracy    <       0.00001145 Ry

     iteration #  4     ecut=    30.00 Ry     beta=0.70
     Davidson diagonalization with overlap
     ethr =  2.08E-08,  avg # of iterations =  2.0

     total cpu time spent up to now is        7.8 secs

     total energy              =    -329.48987335 Ry
     Harris-Foulkes estimate   =    -329.48987332 Ry
     estimated scf accuracy    <       0.00000112 Ry

     iteration #  5     ecut=    30.00 Ry     beta=0.70
     Davidson diagonalization with overlap
     ethr =  2.04E-09,  avg # of iterations =  2.0

     total cpu time spent up to now is        8.0 secs

     total energy              =    -329.48987365 Ry
     Harris-Foulkes estimate   =    -329.48987370 Ry
     estimated scf accuracy    <       0.00000034 Ry

     iteration #  6     ecut=    30.00 Ry     beta=0.70
     Davidson diagonalization with overlap
     ethr =  6.26E-10,  avg # of iterations =  2.0

     total cpu time spent up to now is        8.2 secs

     total energy              =    -329.48987372 Ry
     Harris-Foulkes estimate   =    -329.48987372 Ry
     estimated scf accuracy    <       0.00000003 Ry

     iteration #  7     ecut=    30.00 Ry     beta=0.70
     Davidson diagonalization with overlap
     ethr =  5.46E-11,  avg # of iterations =  2.0

     total cpu time spent up to now is        8.5 secs

     total energy              =    -329.48987370 Ry
     Harris-Foulkes estimate   =    -329.48987373 Ry
     estimated scf accuracy    <          5.7E-09 Ry

     iteration #  8     ecut=    30.00 Ry     beta=0.70
     Davidson diagonalization with overlap
     ethr =  1.03E-11,  avg # of iterations =  2.0

     total cpu time spent up to now is        8.7 secs

     total energy              =    -329.48987374 Ry
     Harris-Foulkes estimate   =    -329.48987370 Ry
     estimated scf accuracy    <          1.0E-09 Ry

     iteration #  9     ecut=    30.00 Ry     beta=0.70
     Davidson diagonalization with overlap
     ethr =  1.87E-12,  avg # of iterations =  3.0

     total cpu time spent up to now is        8.9 secs

     End of self-consistent calculation

          k = 0.0000 0.0000 0.0000 ( 22119 PWs)   bands (ev):

    -8.4184  -7.7296  -7.6420  -7.2136  -6.9761  -6.7694  -6.6729  -6.4571
    -6.3153  -6.0244  -6.0027  -5.7568  -5.7142  -5.6707  -5.4011  -5.3696
    -5.3374  -5.2196  -5.1978  -5.1858  -5.1619  -5.1403  -4.9988  -4.8975
    -4.8646  -4.6877  -4.4230  -3.7979  -2.5069  -2.1615  -0.5554  -0.2245
     0.4603   0.8929

     the Fermi energy is    -3.7773 ev

!    total energy              =    -329.48987374 Ry
     Harris-Foulkes estimate   =    -329.48987374 Ry
     estimated scf accuracy    <          3.0E-10 Ry

     The total energy is the sum of the following terms:

     one-electron contribution =    -608.26462469 Ry
     hartree contribution      =     325.58585522 Ry
     xc contribution           =     -51.40819073 Ry
     ewald contribution        =       4.59883099 Ry
     smearing contrib. (-TS)   =      -0.00174453 Ry

     convergence has been achieved in   9 iterations

     Forces acting on atoms (Ry/au):

     atom    1 type  1   force =     0.00127847   -0.00371853   -0.00424255
     atom    2 type  1   force =    -0.00059817    0.00023200   -0.00357564
     atom    3 type  1   force =    -0.00547828    0.00553223    0.00948414
     atom    4 type  1   force =     0.00317106   -0.00198347    0.00023981
     atom    5 type  1   force =     0.00162693   -0.00006224   -0.00190576

     Total force =     0.014750     Total SCF correction =     0.000076

     number of scf cycles    =   3
     number of bfgs steps    =   2

     energy   old            =    -329.4895537138 Ry
     energy   new            =    -329.4898737361 Ry

     CASE: energy  _new < energy  _old

     new trust radius        =       0.0253910979 bohr
     new conv_thr            =       0.0000000003 Ry


ATOMIC_POSITIONS (bohr)
Au      -1.754608437   1.437232291  -0.912035207
Au      -0.805769662   3.042474481   3.847240699
Au       3.094334041   1.274772943   0.531922197
Au       3.927440638   3.406163125   5.755644632
Au       7.622800421   1.590014161   2.739698679



     Writing output data file pwscf.save
     Check: negative starting charge=   -0.006395
     NEW-OLD atomic charge density approx. for the potential
     Check: negative starting charge=   -0.006411

     negative rho (up, down):  6.566E-05 0.000E+00

     total cpu time spent up to now is        9.1 secs

     per-process dynamical memory:    50.7 Mb

     Self-consistent Calculation

     iteration #  1     ecut=    30.00 Ry     beta=0.70
     Davidson diagonalization with overlap
     ethr =  1.00E-06,  avg # of iterations =  4.0

     negative rho (up, down):  4.007E-07 0.000E+00

     total cpu time spent up to now is        9.5 secs

     total energy              =    -329.49025456 Ry
     Harris-Foulkes estimate   =    -329.49025893 Ry
     estimated scf accuracy    <       0.00006160 Ry

     iteration #  2     ecut=    30.00 Ry     beta=0.70
     Davidson diagonalization with overlap
     ethr =  1.12E-07,  avg # of iterations =  3.0

     negative rho (up, down):  2.227E-08 0.000E+00

     total cpu time spent up to now is        9.8 secs

     total energy              =    -329.49026123 Ry
     Harris-Foulkes estimate   =    -329.49028668 Ry
     estimated scf accuracy    <       0.00005494 Ry

     iteration #  3     ecut=    30.00 Ry     beta=0.70
     Davidson diagonalization with overlap
     ethr =  9.99E-08,  avg # of iterations =  2.0

     total cpu time spent up to now is       10.1 secs

     total energy              =    -329.49027307 Ry
     Harris-Foulkes estimate   =    -329.49028076 Ry
     estimated scf accuracy    <       0.00002341 Ry

     iteration #  4     ecut=    30.00 Ry     beta=0.70
     Davidson diagonalization with overlap
     ethr =  4.26E-08,  avg # of iterations =  2.0

     total cpu time spent up to now is       10.3 secs

     total energy              =    -329.49027848 Ry
     Harris-Foulkes estimate   =    -329.49027849 Ry
     estimated scf accuracy    <       0.00000264 Ry

     iteration #  5     ecut=    30.00 Ry     beta=0.70
     Davidson diagonalization with overlap
     ethr =  4.80E-09,  avg # of iterations =  2.0

     total cpu time spent up to now is       10.5 secs

     total energy              =    -329.49027923 Ry
     Harris-Foulkes estimate   =    -329.49027928 Ry
     estimated scf accuracy    <       0.00000079 Ry

     iteration #  6     ecut=    30.00 Ry     beta=0.70
     Davidson diagonalization with overlap
     ethr =  1.44E-09,  avg # of iterations =  2.0

     total cpu time spent up to now is       10.7 secs

     total energy              =    -329.49027936 Ry
     Harris-Foulkes estimate   =    -329.49027940 Ry
     estimated scf accuracy    <       0.00000007 Ry

     iteration #  7     ecut=    30.00 Ry     beta=0.70
     Davidson diagonalization with overlap
     ethr =  1.25E-10,  avg # of iterations =  2.0

     total cpu time spent up to now is       10.9 secs

     total energy              =    -329.49027937 Ry
     Harris-Foulkes estimate   =    -329.49027938 Ry
     estimated scf accuracy    <       0.00000001 Ry

     iteration #  8     ecut=    30.00 Ry     beta=0.70
     Davidson diagonalization with overlap
     ethr =  2.24E-11,  avg # of iterations =  2.0

     total cpu time spent up to now is       11.1 secs

     total energy              =    -329.49027939 Ry
     Harris-Foulkes estimate   =    -329.49027938 Ry
     estimated scf accuracy    <          1.5E-09 Ry

     iteration #  9     ecut=    30.00 Ry     beta=0.70
     Davidson diagonalization with overlap
     ethr =  2.81E-12,  avg # of iterations =  3.0

     total cpu time spent up to now is       11.4 secs

     total energy              =    -329.49027940 Ry
     Harris-Foulkes estimate   =    -329.49027939 Ry
     estimated scf accuracy    <          5.5E-10 Ry

     iteration # 10     ecut=    30.00 Ry     beta=0.70
     Davidson diagonalization with overlap
     ethr =  9.92E-13,  avg # of iterations =  3.0

     total cpu time spent up to now is       11.6 secs

     End of self-consistent calculation

          k = 0.0000 0.0000 0.0000 ( 22119 PWs)   bands (ev):

    -8.4393  -7.7466  -7.6457  -7.2286  -6.9735  -6.7813  -6.6713  -6.4654
    -6.3203  -6.0264  -6.0101  -5.7605  -5.7199  -5.6757  -5.3980  -5.3837
    -5.3356  -5.2191  -5.2022  -5.1893  -5.1657  -5.1391  -5.0000  -4.9011
    -4.8723  -4.6849  -4.4339  -3.7903  -2.5038  -2.1660  -0.5581  -0.2185
     0.4580   0.8916

     the Fermi energy is    -3.7666 ev

!    total energy              =    -329.49027939 Ry
     Harris-Foulkes estimate   =    -329.49027940 Ry
     estimated scf accuracy    <          4.5E-11 Ry

     The total energy is the sum of the following terms:

     one-electron contribution =    -608.77996741 Ry
     hartree contribution      =     325.83363670 Ry
     xc contribution           =     -51.40809369 Ry
     ewald contribution        =       4.86653420 Ry
     smearing contrib. (-TS)   =      -0.00238919 Ry

     convergence has been achieved in  10 iterations

     Forces acting on atoms (Ry/au):

     atom    1 type  1   force =     0.00041725   -0.00366724   -0.00452411
     atom    2 type  1   force =    -0.00029632    0.00078608   -0.00205257
     atom    3 type  1   force =    -0.00314498    0.00490521    0.00807691
     atom    4 type  1   force =     0.00147942   -0.00177187    0.00060396
     atom    5 type  1   force =     0.00154463   -0.00025219   -0.00210419

     Total force =     0.012279     Total SCF correction =     0.000035

     number of scf cycles    =   4
     number of bfgs steps    =   3

     energy   old            =    -329.4898737361 Ry
     energy   new            =    -329.4902793882 Ry

     CASE: energy  _new < energy  _old

     new trust radius        =       0.0380866468 bohr
     new conv_thr            =       0.0000000004 Ry


ATOMIC_POSITIONS (bohr)
Au      -1.750631277   1.425309316  -0.925553227
Au      -0.808046150   3.043499609   3.836235033
Au       3.077606794   1.292243013   0.561343083
Au       3.937128533   3.399834491   5.756788423
Au       7.628139100   1.589770570   2.733657689



     Writing output data file pwscf.save
     Check: negative starting charge=   -0.006411
     NEW-OLD atomic charge density approx. for the potential
     Check: negative starting charge=   -0.006438

     negative rho (up, down):  1.883E-04 0.000E+00

     total cpu time spent up to now is       11.8 secs

     per-process dynamical memory:    50.7 Mb

     Self-consistent Calculation

     iteration #  1     ecut=    30.00 Ry     beta=0.70
     Davidson diagonalization with overlap
     ethr =  1.00E-06,  avg # of iterations =  4.0

     negative rho (up, down):  3.318E-06 0.000E+00

     total cpu time spent up to now is       12.2 secs

     total energy              =    -329.49067972 Ry
     Harris-Foulkes estimate   =    -329.49067939 Ry
     estimated scf accuracy    <       0.00014432 Ry

     iteration #  2     ecut=    30.00 Ry     beta=0.70
     Davidson diagonalization with overlap
     ethr =  2.62E-07,  avg # of iterations =  3.0

     negative rho (up, down):  3.212E-07 0.000E+00

     total cpu time spent up to now is       12.4 secs

     total energy              =    -329.49069335 Ry
     Harris-Foulkes estimate   =    -329.49075819 Ry
     estimated scf accuracy    <       0.00013622 Ry

     iteration #  3     ecut=    30.00 Ry     beta=0.70
     Davidson diagonalization with overlap
     ethr =  2.48E-07,  avg # of iterations =  2.0

     total cpu time spent up to now is       12.6 secs

     total energy              =    -329.49072313 Ry
     Harris-Foulkes estimate   =    -329.49074049 Ry
     estimated scf accuracy    <       0.00005253 Ry

     iteration #  4     ecut=    30.00 Ry     beta=0.70
     Davidson diagonalization with overlap
     ethr =  9.55E-08,  avg # of iterations =  2.0

     total cpu time spent up to now is       12.8 secs

     total energy              =    -329.49073499 Ry
     Harris-Foulkes estimate   =    -329.49073510 Ry
     estimated scf accuracy    <       0.00000530 Ry

     iteration #  5     ecut=    30.00 Ry     beta=0.70
     Davidson diagonalization with overlap
     ethr =  9.63E-09,  avg # of iterations =  2.0

     total cpu time spent up to now is       13.1 secs

     total energy              =    -329.49073619 Ry
     Harris-Foulkes estimate   =    -329.49073668 Ry
     estimated scf accuracy    <       0.00000194 Ry

     iteration #  6     ecut=    30.00 Ry     beta=0.70
     Davidson diagonalization with overlap
     ethr =  3.53E-09,  avg # of iterations =  2.0

     total cpu time spent up to now is       13.3 secs

     total energy              =    -329.49073657 Ry
     Harris-Foulkes estimate   =    -329.49073659 Ry
     estimated scf accuracy    <       0.00000014 Ry

     iteration #  7     ecut=    30.00 Ry     beta=0.70
     Davidson diagonalization with overlap
     ethr =  2.46E-10,  avg # of iterations =  2.0

     total cpu time spent up to now is       13.5 secs

     total energy              =    -329.49073671 Ry
     Harris-Foulkes estimate   =    -329.49073661 Ry
     estimated scf accuracy    <       0.00000003 Ry

     iteration #  8     ecut=    30.00 Ry     beta=0.70
     Davidson diagonalization with overlap
     ethr =  4.84E-11,  avg # of iterations =  2.0

     total cpu time spent up to now is       13.7 secs

     total energy              =    -329.49073670 Ry
     Harris-Foulkes estimate   =    -329.49073672 Ry
     estimated scf accuracy    <          3.3E-09 Ry

     iteration #  9     ecut=    30.00 Ry     beta=0.70
     Davidson diagonalization with overlap
     ethr =  5.99E-12,  avg # of iterations =  3.0

     total cpu time spent up to now is       14.0 secs

     total energy              =    -329.49073673 Ry
     Harris-Foulkes estimate   =    -329.49073671 Ry
     estimated scf accuracy    <          9.7E-10 Ry

     iteration # 10     ecut=    30.00 Ry     beta=0.70
     Davidson diagonalization with overlap
     ethr =  1.77E-12,  avg # of iterations =  2.0

     total cpu time spent up to now is       14.2 secs

     End of self-consistent calculation

          k = 0.0000 0.0000 0.0000 ( 22119 PWs)   bands (ev):

    -8.4683  -7.7691  -7.6523  -7.2489  -6.9671  -6.7978  -6.6651  -6.4774
    -6.3267  -6.0351  -6.0126  -5.7646  -5.7267  -5.6824  -5.4045  -5.3932
    -5.3324  -5.2196  -5.2090  -5.1920  -5.1697  -5.1366  -5.0016  -4.9051
    -4.8818  -4.6813  -4.4492  -3.7805  -2.4990  -2.1729  -0.5619  -0.2098
     0.4547   0.8907

     the Fermi energy is    -3.7529 ev

!    total energy              =    -329.49073673 Ry
     Harris-Foulkes estimate   =    -329.49073673 Ry
     estimated scf accuracy    <          8.3E-11 Ry

     The total energy is the sum of the following terms:

     one-electron contribution =    -609.44431180 Ry
     hartree contribution      =     326.15335001 Ry
     xc contribution           =     -51.40797806 Ry
     ewald contribution        =       5.21141848 Ry
     smearing contrib. (-TS)   =      -0.00321536 Ry

     convergence has been achieved in  10 iterations

     Forces acting on atoms (Ry/au):

     atom    1 type  1   force =    -0.00046638   -0.00334856   -0.00458229
     atom    2 type  1   force =    -0.00032952    0.00156428   -0.00012572
     atom    3 type  1   force =    -0.00007652    0.00353799    0.00565042
     atom    4 type  1   force =    -0.00053553   -0.00139427    0.00117944
     atom    5 type  1   force =     0.00140795   -0.00035946   -0.00212185

     Total force =     0.009470     Total SCF correction =     0.000050

     number of scf cycles    =   5
     number of bfgs steps    =   4

     energy   old            =    -329.4902793882 Ry
     energy   new            =    -329.4907367308 Ry

     CASE: energy  _new < energy  _old

     new trust radius        =       0.0571299702 bohr
     new conv_thr            =       0.0000000005 Ry


ATOMIC_POSITIONS (bohr)
Au      -1.745767172   1.405443030  -0.949008220
Au      -0.812056942   3.047027671   3.821598154
Au       3.055679523   1.319326642   0.606614546
Au       3.949287452   3.389759514   5.760074166
Au       7.637054138   1.589100143   2.723192354



     Writing output data file pwscf.save
     Check: negative starting charge=   -0.006438
     NEW-OLD atomic charge density approx. for the potential
     Check: negative starting charge=   -0.006474

     negative rho (up, down):  4.600E-04 0.000E+00

     total cpu time spent up to now is       14.4 secs

     per-process dynamical memory:    50.7 Mb

     Self-consistent Calculation

     iteration #  1     ecut=    30.00 Ry     beta=0.70
     Davidson diagonalization with overlap
     ethr =  1.00E-06,  avg # of iterations =  5.0

     negative rho (up, down):  1.724E-05 0.000E+00

     total cpu time spent up to now is       14.8 secs

     total energy              =    -329.49099439 Ry
     Harris-Foulkes estimate   =    -329.49089603 Ry
     estimated scf accuracy    <       0.00034604 Ry

     iteration #  2     ecut=    30.00 Ry     beta=0.70
     Davidson diagonalization with overlap
     ethr =  6.29E-07,  avg # of iterations =  4.0

     negative rho (up, down):  2.932E-06 0.000E+00

     total cpu time spent up to now is       15.1 secs

     total energy              =    -329.49102219 Ry
     Harris-Foulkes estimate   =    -329.49119185 Ry
     estimated scf accuracy    <       0.00035250 Ry

     iteration #  3     ecut=    30.00 Ry     beta=0.70
     Davidson diagonalization with overlap
     ethr =  6.29E-07,  avg # of iterations =  2.0

     negative rho (up, down):  1.219E-07 0.000E+00

     total cpu time spent up to now is       15.3 secs

     total energy              =    -329.49109829 Ry
     Harris-Foulkes estimate   =    -329.49114040 Ry
     estimated scf accuracy    <       0.00012249 Ry

     iteration #  4     ecut=    30.00 Ry     beta=0.70
     Davidson diagonalization with overlap
     ethr =  2.23E-07,  avg # of iterations =  2.0

     total cpu time spent up to now is       15.5 secs

     total energy              =    -329.49112539 Ry
     Harris-Foulkes estimate   =    -329.49112555 Ry
     estimated scf accuracy    <       0.00001052 Ry

     iteration #  5     ecut=    30.00 Ry     beta=0.70
     Davidson diagonalization with overlap
     ethr =  1.91E-08,  avg # of iterations =  2.0

     total cpu time spent up to now is       15.8 secs

     total energy              =    -329.49112776 Ry
     Harris-Foulkes estimate   =    -329.49112886 Ry
     estimated scf accuracy    <       0.00000412 Ry

     iteration #  6     ecut=    30.00 Ry     beta=0.70
     Davidson diagonalization with overlap
     ethr =  7.50E-09,  avg # of iterations =  2.0

     total cpu time spent up to now is       16.0 secs

     total energy              =    -329.49112866 Ry
     Harris-Foulkes estimate   =    -329.49112861 Ry
     estimated scf accuracy    <       0.00000026 Ry

     iteration #  7     ecut=    30.00 Ry     beta=0.70
     Davidson diagonalization with overlap
     ethr =  4.81E-10,  avg # of iterations =  2.0

     total cpu time spent up to now is       16.2 secs

     total energy              =    -329.49112883 Ry
     Harris-Foulkes estimate   =    -329.49112874 Ry
     estimated scf accuracy    <       0.00000006 Ry

     iteration #  8     ecut=    30.00 Ry     beta=0.70
     Davidson diagonalization with overlap
     ethr =  1.04E-10,  avg # of iterations =  2.0

     total cpu time spent up to now is       16.4 secs

     total energy              =    -329.49112887 Ry
     Harris-Foulkes estimate   =    -329.49112885 Ry
     estimated scf accuracy    <          8.5E-09 Ry

     iteration #  9     ecut=    30.00 Ry     beta=0.70
     Davidson diagonalization with overlap
     ethr =  1.54E-11,  avg # of iterations =  2.0

     total cpu time spent up to now is       16.7 secs

     total energy              =    -329.49112887 Ry
     Harris-Foulkes estimate   =    -329.49112887 Ry
     estimated scf accuracy    <          2.0E-09 Ry

     iteration # 10     ecut=    30.00 Ry     beta=0.70
     Davidson diagonalization with overlap
     ethr =  3.71E-12,  avg # of iterations =  2.0

     total cpu time spent up to now is       16.9 secs

     End of self-consistent calculation

          k = 0.0000 0.0000 0.0000 ( 22119 PWs)   bands (ev):

    -8.5061  -7.7971  -7.6649  -7.2714  -6.9523  -6.8190  -6.6493  -6.4957
    -6.3325  -6.0563  -6.0030  -5.7684  -5.7337  -5.6902  -5.4333  -5.3854
    -5.3272  -5.2285  -5.2100  -5.1944  -5.1724  -5.1317  -5.0032  -4.9110
    -4.8895  -4.6771  -4.4703  -3.7688  -2.4913  -2.1840  -0.5667  -0.1970
     0.4501   0.8908

     the Fermi energy is    -3.7368 ev

!    total energy              =    -329.49112890 Ry
     Harris-Foulkes estimate   =    -329.49112887 Ry
     estimated scf accuracy    <          2.2E-10 Ry

     The total energy is the sum of the following terms:

     one-electron contribution =    -610.19399239 Ry
     hartree contribution      =     326.51404607 Ry
     xc contribution           =     -51.40770151 Ry
     ewald contribution        =       5.60070418 Ry
     smearing contrib. (-TS)   =      -0.00418524 Ry

     convergence has been achieved in  10 iterations

     Forces acting on atoms (Ry/au):

     atom    1 type  1   force =    -0.00093631   -0.00261136   -0.00434158
     atom    2 type  1   force =    -0.00098699    0.00241054    0.00208171
     atom    3 type  1   force =     0.00330596    0.00152235    0.00225490
     atom    4 type  1   force =    -0.00261852   -0.00091594    0.00185733
     atom    5 type  1   force =     0.00123586   -0.00040561   -0.00185236

     Total force =     0.008501     Total SCF correction =     0.000079

     number of scf cycles    =   6
     number of bfgs steps    =   5

     energy   old            =    -329.4907367308 Ry
     energy   new            =    -329.4911288993 Ry

     CASE: energy  _new < energy  _old

     new trust radius        =       0.0369970259 bohr
     new conv_thr            =       0.0000000004 Ry


ATOMIC_POSITIONS (bohr)
Au      -1.743200786   1.390332750  -0.968182062
Au      -0.816379746   3.051887159   3.814457347
Au       3.045220791   1.337643609   0.637009999
Au       3.954478473   3.382432494   5.764303420
Au       7.644078267   1.588360988   2.714882295



     Writing output data file pwscf.save
     Check: negative starting charge=   -0.006474
     NEW-OLD atomic charge density approx. for the potential
     Check: negative starting charge=   -0.006493

     negative rho (up, down):  2.027E-04 0.000E+00

     total cpu time spent up to now is       17.1 secs

     per-process dynamical memory:    50.7 Mb

     Self-consistent Calculation

     iteration #  1     ecut=    30.00 Ry     beta=0.70
     Davidson diagonalization with overlap
     ethr =  1.00E-06,  avg # of iterations =  4.0

     negative rho (up, down):  3.653E-06 0.000E+00

     total cpu time spent up to now is       17.6 secs

     total energy              =    -329.49120554 Ry
     Harris-Foulkes estimate   =    -329.49120929 Ry
     estimated scf accuracy    <       0.00016548 Ry

     iteration #  2     ecut=    30.00 Ry     beta=0.70
     Davidson diagonalization with overlap
     ethr =  3.01E-07,  avg # of iterations =  2.0

     negative rho (up, down):  3.891E-07 0.000E+00

     total cpu time spent up to now is       17.8 secs

     total energy              =    -329.49121884 Ry
     Harris-Foulkes estimate   =    -329.49130178 Ry
     estimated scf accuracy    <       0.00017320 Ry

     iteration #  3     ecut=    30.00 Ry     beta=0.70
     Davidson diagonalization with overlap
     ethr =  3.01E-07,  avg # of iterations =  2.0

     total cpu time spent up to now is       18.0 secs

     total energy              =    -329.49125787 Ry
     Harris-Foulkes estimate   =    -329.49127569 Ry
     estimated scf accuracy    <       0.00005479 Ry

     iteration #  4     ecut=    30.00 Ry     beta=0.70
     Davidson diagonalization with overlap
     ethr =  9.96E-08,  avg # of iterations =  2.0

     total cpu time spent up to now is       18.2 secs

     total energy              =    -329.49127011 Ry
     Harris-Foulkes estimate   =    -329.49127004 Ry
     estimated scf accuracy    <       0.00000441 Ry

     iteration #  5     ecut=    30.00 Ry     beta=0.70
     Davidson diagonalization with overlap
     ethr =  8.02E-09,  avg # of iterations =  3.0

     total cpu time spent up to now is       18.5 secs

     total energy              =    -329.49127122 Ry
     Harris-Foulkes estimate   =    -329.49127151 Ry
     estimated scf accuracy    <       0.00000155 Ry

     iteration #  6     ecut=    30.00 Ry     beta=0.70
     Davidson diagonalization with overlap
     ethr =  2.82E-09,  avg # of iterations =  2.0

     total cpu time spent up to now is       18.7 secs

     total energy              =    -329.49127149 Ry
     Harris-Foulkes estimate   =    -329.49127155 Ry
     estimated scf accuracy    <       0.00000010 Ry

     iteration #  7     ecut=    30.00 Ry     beta=0.70
     Davidson diagonalization with overlap
     ethr =  1.81E-10,  avg # of iterations =  2.0

     total cpu time spent up to now is       19.0 secs

     total energy              =    -329.49127154 Ry
     Harris-Foulkes estimate   =    -329.49127152 Ry
     estimated scf accuracy    <       0.00000003 Ry

     iteration #  8     ecut=    30.00 Ry     beta=0.70
     Davidson diagonalization with overlap
     ethr =  5.06E-11,  avg # of iterations =  2.0

     total cpu time spent up to now is       19.2 secs

     total energy              =    -329.49127156 Ry
     Harris-Foulkes estimate   =    -329.49127155 Ry
     estimated scf accuracy    <          5.1E-09 Ry

     iteration #  9     ecut=    30.00 Ry     beta=0.70
     Davidson diagonalization with overlap
     ethr =  9.22E-12,  avg # of iterations =  2.0

     total cpu time spent up to now is       19.5 secs

     total energy              =    -329.49127158 Ry
     Harris-Foulkes estimate   =    -329.49127157 Ry
     estimated scf accuracy    <          7.1E-10 Ry

     iteration # 10     ecut=    30.00 Ry     beta=0.70
     Davidson diagonalization with overlap
     ethr =  1.29E-12,  avg # of iterations =  2.0

     total cpu time spent up to now is       19.7 secs

     End of self-consistent calculation

          k = 0.0000 0.0000 0.0000 ( 22119 PWs)   bands (ev):

    -8.5238  -7.8083  -7.6742  -7.2762  -6.9374  -6.8285  -6.6326  -6.5062
    -6.3322  -6.0705  -5.9907  -5.7690  -5.7354  -5.6927  -5.4494  -5.3795
    -5.3238  -5.2360  -5.2081  -5.1963  -5.1718  -5.1285  -5.0035  -4.9170
    -4.8885  -4.6770  -4.4832  -3.7647  -2.4861  -2.1935  -0.5689  -0.1895
     0.4473   0.8921

     the Fermi energy is    -3.7307 ev

!    total energy              =    -329.49127158 Ry
     Harris-Foulkes estimate   =    -329.49127158 Ry
     estimated scf accuracy    <          1.1E-10 Ry

     The total energy is the sum of the following terms:

     one-electron contribution =    -610.34422982 Ry
     hartree contribution      =     326.58408025 Ry
     xc contribution           =     -51.40674534 Ry
     ewald contribution        =       5.68025776 Ry
     smearing contrib. (-TS)   =      -0.00463442 Ry

     convergence has been achieved in  10 iterations

     Forces acting on atoms (Ry/au):

     atom    1 type  1   force =    -0.00036481   -0.00191865   -0.00349155
     atom    2 type  1   force =    -0.00162862    0.00243159    0.00270150
     atom    3 type  1   force =     0.00415696    0.00068533   -0.00013800
     atom    4 type  1   force =    -0.00327606   -0.00082194    0.00208960
     atom    5 type  1   force =     0.00111253   -0.00037633   -0.00116155

     Total force =     0.008255     Total SCF correction =     0.000046

     number of scf cycles    =   7
     number of bfgs steps    =   6

     energy   old            =    -329.4911288993 Ry
     energy   new            =    -329.4912715805 Ry

     CASE: energy  _new < energy  _old

     new trust radius        =       0.0213233765 bohr
     new conv_thr            =       0.0000000001 Ry


ATOMIC_POSITIONS (bohr)
Au      -1.741434965   1.379165095  -0.983435537
Au      -0.821498520   3.057549331   3.812962061
Au       3.043251023   1.349404431   0.654687370
Au       3.954193334   3.376966064   5.769383121
Au       7.649686129   1.587572079   2.708873985



     Writing output data file pwscf.save
     Check: negative starting charge=   -0.006493
     NEW-OLD atomic charge density approx. for the potential
     Check: negative starting charge=   -0.006503

     negative rho (up, down):  7.114E-05 0.000E+00

     total cpu time spent up to now is       19.9 secs

     per-process dynamical memory:    50.7 Mb

     Self-consistent Calculation

     iteration #  1     ecut=    30.00 Ry     beta=0.70
     Davidson diagonalization with overlap
     ethr =  1.00E-06,  avg # of iterations =  4.0

     negative rho (up, down):  4.327E-07 0.000E+00

     total cpu time spent up to now is       20.3 secs

     total energy              =    -329.49133081 Ry
     Harris-Foulkes estimate   =    -329.49133914 Ry
     estimated scf accuracy    <       0.00007395 Ry

     iteration #  2     ecut=    30.00 Ry     beta=0.70
     Davidson diagonalization with overlap
     ethr =  1.34E-07,  avg # of iterations =  2.0

     negative rho (up, down):  2.583E-08 0.000E+00

     total cpu time spent up to now is       20.5 secs

     total energy              =    -329.49133685 Ry
     Harris-Foulkes estimate   =    -329.49137479 Ry
     estimated scf accuracy    <       0.00008050 Ry

     iteration #  3     ecut=    30.00 Ry     beta=0.70
     Davidson diagonalization with overlap
     ethr =  1.34E-07,  avg # of iterations =  2.0

     total cpu time spent up to now is       20.8 secs

     total energy              =    -329.49135482 Ry
     Harris-Foulkes estimate   =    -329.49136255 Ry
     estimated scf accuracy    <       0.00002319 Ry

     iteration #  4     ecut=    30.00 Ry     beta=0.70
     Davidson diagonalization with overlap
     ethr =  4.22E-08,  avg # of iterations =  2.0

     total cpu time spent up to now is       21.0 secs

     total energy              =    -329.49136017 Ry
     Harris-Foulkes estimate   =    -329.49136002 Ry
     estimated scf accuracy    <       0.00000185 Ry

     iteration #  5     ecut=    30.00 Ry     beta=0.70
     Davidson diagonalization with overlap
     ethr =  3.36E-09,  avg # of iterations =  3.0

     total cpu time spent up to now is       21.2 secs

     total energy              =    -329.49136057 Ry
     Harris-Foulkes estimate   =    -329.49136073 Ry
     estimated scf accuracy    <       0.00000050 Ry

     iteration #  6     ecut=    30.00 Ry     beta=0.70
     Davidson diagonalization with overlap
     ethr =  9.15E-10,  avg # of iterations =  2.0

     total cpu time spent up to now is       21.4 secs

     total energy              =    -329.49136073 Ry
     Harris-Foulkes estimate   =    -329.49136069 Ry
     estimated scf accuracy    <       0.00000005 Ry

     iteration #  7     ecut=    30.00 Ry     beta=0.70
     Davidson diagonalization with overlap
     ethr =  8.53E-11,  avg # of iterations =  3.0

     total cpu time spent up to now is       21.6 secs

     total energy              =    -329.49136089 Ry
     Harris-Foulkes estimate   =    -329.49136074 Ry
     estimated scf accuracy    <       0.00000001 Ry

     iteration #  8     ecut=    30.00 Ry     beta=0.70
     Davidson diagonalization with overlap
     ethr =  1.85E-11,  avg # of iterations =  2.0

     total cpu time spent up to now is       21.8 secs

     total energy              =    -329.49136095 Ry
     Harris-Foulkes estimate   =    -329.49136090 Ry
     estimated scf accuracy    <          3.1E-09 Ry

     iteration #  9     ecut=    30.00 Ry     beta=0.70
     Davidson diagonalization with overlap
     ethr =  5.70E-12,  avg # of iterations =  2.0

     total cpu time spent up to now is       22.1 secs

     total energy              =    -329.49136098 Ry
     Harris-Foulkes estimate   =    -329.49136095 Ry
     estimated scf accuracy    <          5.2E-10 Ry

     iteration # 10     ecut=    30.00 Ry     beta=0.70
     Davidson diagonalization with overlap
     ethr =  9.40E-13,  avg # of iterations =  2.0

     total cpu time spent up to now is       22.3 secs

     End of self-consistent calculation

          k = 0.0000 0.0000 0.0000 ( 22119 PWs)   bands (ev):

    -8.5269  -7.8067  -7.6774  -7.2700  -6.9238  -6.8296  -6.6166  -6.5088
    -6.3285  -6.0775  -5.9788  -5.7677  -5.7341  -5.6924  -5.4563  -5.3755
    -5.3222  -5.2405  -5.2064  -5.1987  -5.1700  -5.1271  -5.0031  -4.9216
    -4.8854  -4.6803  -4.4906  -3.7658  -2.4830  -2.2023  -0.5691  -0.1863
     0.4456   0.8939

     the Fermi energy is    -3.7312 ev

!    total energy              =    -329.49136098 Ry
     Harris-Foulkes estimate   =    -329.49136098 Ry
     estimated scf accuracy    <          7.5E-11 Ry

     The total energy is the sum of the following terms:

     one-electron contribution =    -610.04283700 Ry
     hartree contribution      =     326.43391707 Ry
     xc contribution           =     -51.40490345 Ry
     ewald contribution        =       5.52725234 Ry
     smearing contrib. (-TS)   =      -0.00478993 Ry

     convergence has been achieved in  10 iterations

     Forces acting on atoms (Ry/au):

     atom    1 type  1   force =     0.00071204   -0.00117070   -0.00219631
     atom    2 type  1   force =    -0.00189854    0.00201407    0.00206550
     atom    3 type  1   force =     0.00336048    0.00017503   -0.00139320
     atom    4 type  1   force =    -0.00311705   -0.00087381    0.00179000
     atom    5 type  1   force =     0.00094308   -0.00014458   -0.00026600

     Total force =     0.006823     Total SCF correction =     0.000028

     number of scf cycles    =   8
     number of bfgs steps    =   7

     energy   old            =    -329.4912715805 Ry
     energy   new            =    -329.4913609792 Ry

     CASE: energy  _new < energy  _old

     new trust radius        =       0.0192026847 bohr
     new conv_thr            =            1.0E-10 Ry


ATOMIC_POSITIONS (bohr)
Au      -1.738500816   1.368466094  -0.999109249
Au      -0.829312390   3.065673248   3.815454188
Au       3.047774231   1.358609374   0.665549868
Au       3.948425154   3.371127201   5.776689107
Au       7.655810821   1.586781083   2.703887085



     Writing output data file pwscf.save
     Check: negative starting charge=   -0.006503
     NEW-OLD atomic charge density approx. for the potential
     Check: negative starting charge=   -0.006512

     negative rho (up, down):  6.150E-05 0.000E+00

     total cpu time spent up to now is       22.5 secs

     per-process dynamical memory:    50.7 Mb

     Self-consistent Calculation

     iteration #  1     ecut=    30.00 Ry     beta=0.70
     Davidson diagonalization with overlap
     ethr =  1.00E-06,  avg # of iterations =  4.0

     negative rho (up, down):  3.335E-07 0.000E+00

     total cpu time spent up to now is       23.1 secs

     total energy              =    -329.49142560 Ry
     Harris-Foulkes estimate   =    -329.49142942 Ry
     estimated scf accuracy    <       0.00006165 Ry

     iteration #  2     ecut=    30.00 Ry     beta=0.70
     Davidson diagonalization with overlap
     ethr =  1.12E-07,  avg # of iterations =  2.0

     negative rho (up, down):  1.311E-08 0.000E+00

     total cpu time spent up to now is       23.4 secs

     total energy              =    -329.49143206 Ry
     Harris-Foulkes estimate   =    -329.49146136 Ry
     estimated scf accuracy    <       0.00006339 Ry

     iteration #  3     ecut=    30.00 Ry     beta=0.70
     Davidson diagonalization with overlap
     ethr =  1.12E-07,  avg # of iterations =  2.0

     total cpu time spent up to now is       23.6 secs

     total energy              =    -329.49144619 Ry
     Harris-Foulkes estimate   =    -329.49145186 Ry
     estimated scf accuracy    <       0.00001696 Ry

     iteration #  4     ecut=    30.00 Ry     beta=0.70
     Davidson diagonalization with overlap
     ethr =  3.08E-08,  avg # of iterations =  2.0

     total cpu time spent up to now is       23.8 secs

     total energy              =    -329.49145047 Ry
     Harris-Foulkes estimate   =    -329.49145046 Ry
     estimated scf accuracy    <       0.00000213 Ry

     iteration #  5     ecut=    30.00 Ry     beta=0.70
     Davidson diagonalization with overlap
     ethr =  3.87E-09,  avg # of iterations =  2.0

     total cpu time spent up to now is       24.0 secs

     total energy              =    -329.49145101 Ry
     Harris-Foulkes estimate   =    -329.49145102 Ry
     estimated scf accuracy    <       0.00000035 Ry

     iteration #  6     ecut=    30.00 Ry     beta=0.70
     Davidson diagonalization with overlap
     ethr =  6.31E-10,  avg # of iterations =  2.0

     total cpu time spent up to now is       24.2 secs

     total energy              =    -329.49145116 Ry
     Harris-Foulkes estimate   =    -329.49145110 Ry
     estimated scf accuracy    <       0.00000004 Ry

     iteration #  7     ecut=    30.00 Ry     beta=0.70
     Davidson diagonalization with overlap
     ethr =  6.62E-11,  avg # of iterations =  2.0

     total cpu time spent up to now is       24.4 secs

     total energy              =    -329.49145116 Ry
     Harris-Foulkes estimate   =    -329.49145117 Ry
     estimated scf accuracy    <          5.4E-09 Ry

     iteration #  8     ecut=    30.00 Ry     beta=0.70
     Davidson diagonalization with overlap
     ethr =  9.87E-12,  avg # of iterations =  2.0

     total cpu time spent up to now is       24.7 secs

     total energy              =    -329.49145120 Ry
     Harris-Foulkes estimate   =    -329.49145116 Ry
     estimated scf accuracy    <          1.3E-09 Ry

     iteration #  9     ecut=    30.00 Ry     beta=0.70
     Davidson diagonalization with overlap
     ethr =  2.39E-12,  avg # of iterations =  2.0

     total cpu time spent up to now is       24.9 secs

     total energy              =    -329.49145122 Ry
     Harris-Foulkes estimate   =    -329.49145120 Ry
     estimated scf accuracy    <          6.0E-10 Ry

     iteration # 10     ecut=    30.00 Ry     beta=0.70
     Davidson diagonalization with overlap
     ethr =  1.09E-12,  avg # of iterations =  2.0

     total cpu time spent up to now is       25.1 secs

     End of self-consistent calculation

          k = 0.0000 0.0000 0.0000 ( 22119 PWs)   bands (ev):

    -8.5194  -7.7941  -7.6742  -7.2546  -6.9084  -6.8249  -6.5973  -6.5040
    -6.3217  -6.0799  -5.9649  -5.7648  -5.7307  -5.6903  -5.4576  -5.3723
    -5.3218  -5.2435  -5.2045  -5.2021  -5.1672  -5.1268  -5.0018  -4.9257
    -4.8819  -4.6873  -4.4954  -3.7715  -2.4809  -2.2128  -0.5678  -0.1863
     0.4446   0.8966

     the Fermi energy is    -3.7370 ev

!    total energy              =    -329.49145121 Ry
     Harris-Foulkes estimate   =    -329.49145122 Ry
     estimated scf accuracy    <          3.9E-11 Ry

     The total energy is the sum of the following terms:

     one-electron contribution =    -609.29674380 Ry
     hartree contribution      =     326.06576993 Ry
     xc contribution           =     -51.40178108 Ry
     ewald contribution        =       5.14607330 Ry
     smearing contrib. (-TS)   =      -0.00476955 Ry

     convergence has been achieved in  10 iterations

     Forces acting on atoms (Ry/au):

     atom    1 type  1   force =     0.00222526   -0.00027693   -0.00028542
     atom    2 type  1   force =    -0.00178443    0.00114325    0.00032919
     atom    3 type  1   force =     0.00114124   -0.00006929   -0.00180230
     atom    4 type  1   force =    -0.00221405   -0.00106789    0.00078460
     atom    5 type  1   force =     0.00063198    0.00027086    0.00097392

     Total force =     0.004727     Total SCF correction =     0.000024

     number of scf cycles    =   9
     number of bfgs steps    =   8

     energy   old            =    -329.4913609792 Ry
     energy   new            =    -329.4914512052 Ry

     CASE: energy  _new < energy  _old

     new trust radius        =       0.0093484777 bohr
     new conv_thr            =            1.0E-10 Ry


ATOMIC_POSITIONS (bohr)
Au      -1.734581203   1.364552864  -1.005276391
Au      -0.835296749   3.071165483   3.818819857
Au       3.054168459   1.360441085   0.664068930
Au       3.940988846   3.367691801   5.781193927
Au       7.658917647   1.586805768   2.703664677



     Writing output data file pwscf.save
     Check: negative starting charge=   -0.006512
     NEW-OLD atomic charge density approx. for the potential
     Check: negative starting charge=   -0.006515

     negative rho (up, down):  7.290E-06 0.000E+00

     total cpu time spent up to now is       25.4 secs

     per-process dynamical memory:    50.7 Mb

     Self-consistent Calculation

     iteration #  1     ecut=    30.00 Ry     beta=0.70
     Davidson diagonalization with overlap
     ethr =  1.00E-06,  avg # of iterations =  4.0

     Threshold (ethr) on eigenvalues was too large:
     Diagonalizing with lowered threshold

     Davidson diagonalization with overlap
     ethr =  2.53E-08,  avg # of iterations =  2.0

     total cpu time spent up to now is       25.8 secs

     total energy              =    -329.49149232 Ry
     Harris-Foulkes estimate   =    -329.49149074 Ry
     estimated scf accuracy    <       0.00001481 Ry

     iteration #  2     ecut=    30.00 Ry     beta=0.70
     Davidson diagonalization with overlap
     ethr =  2.69E-08,  avg # of iterations =  3.0

     total cpu time spent up to now is       26.1 secs

     total energy              =    -329.49149444 Ry
     Harris-Foulkes estimate   =    -329.49149935 Ry
     estimated scf accuracy    <       0.00001077 Ry

     iteration #  3     ecut=    30.00 Ry     beta=0.70
     Davidson diagonalization with overlap
     ethr =  1.96E-08,  avg # of iterations =  2.0

     total cpu time spent up to now is       26.3 secs

     total energy              =    -329.49149690 Ry
     Harris-Foulkes estimate   =    -329.49149759 Ry
     estimated scf accuracy    <       0.00000186 Ry

     iteration #  4     ecut=    30.00 Ry     beta=0.70
     Davidson diagonalization with overlap
     ethr =  3.38E-09,  avg # of iterations =  3.0

     total cpu time spent up to now is       26.5 secs

     total energy              =    -329.49149741 Ry
     Harris-Foulkes estimate   =    -329.49149763 Ry
     estimated scf accuracy    <       0.00000084 Ry

     iteration #  5     ecut=    30.00 Ry     beta=0.70
     Davidson diagonalization with overlap
     ethr =  1.53E-09,  avg # of iterations =  2.0

     total cpu time spent up to now is       26.7 secs

     total energy              =    -329.49149747 Ry
     Harris-Foulkes estimate   =    -329.49149760 Ry
     estimated scf accuracy    <       0.00000005 Ry

     iteration #  6     ecut=    30.00 Ry     beta=0.70
     Davidson diagonalization with overlap
     ethr =  9.81E-11,  avg # of iterations =  3.0

     total cpu time spent up to now is       27.0 secs

     total energy              =    -329.49149753 Ry
     Harris-Foulkes estimate   =    -329.49149748 Ry
     estimated scf accuracy    <          5.5E-09 Ry

     iteration #  7     ecut=    30.00 Ry     beta=0.70
     Davidson diagonalization with overlap
     ethr =  1.01E-11,  avg # of iterations =  2.0

     total cpu time spent up to now is       27.2 secs

     total energy              =    -329.49149752 Ry
     Harris-Foulkes estimate   =    -329.49149754 Ry
     estimated scf accuracy    <          2.7E-09 Ry

     iteration #  8     ecut=    30.00 Ry     beta=0.70
     Davidson diagonalization with overlap
     ethr =  4.99E-12,  avg # of iterations =  2.0

     total cpu time spent up to now is       27.5 secs

     total energy              =    -329.49149751 Ry
     Harris-Foulkes estimate   =    -329.49149752 Ry
     estimated scf accuracy    <          2.4E-10 Ry

     iteration #  9     ecut=    30.00 Ry     beta=0.70
     Davidson diagonalization with overlap
     ethr =  4.44E-13,  avg # of iterations =  2.0

     total cpu time spent up to now is       27.7 secs

     End of self-consistent calculation

          k = 0.0000 0.0000 0.0000 ( 22119 PWs)   bands (ev):

    -8.5097  -7.7813  -7.6672  -7.2425  -6.9013  -6.8194  -6.5878  -6.4960
    -6.3170  -6.0775  -5.9583  -5.7631  -5.7283  -5.6886  -5.4539  -5.3716
    -5.3225  -5.2435  -5.2046  -5.2026  -5.1657  -5.1274  -5.0004  -4.9264
    -4.8808  -4.6929  -4.4950  -3.7770  -2.4804  -2.2180  -0.5662  -0.1887
     0.4451   0.8984

     the Fermi energy is    -3.7430 ev

!    total energy              =    -329.49149751 Ry
     Harris-Foulkes estimate   =    -329.49149751 Ry
     estimated scf accuracy    <          2.5E-11 Ry

     The total energy is the sum of the following terms:

     one-electron contribution =    -608.71083604 Ry
     hartree contribution      =     325.77783041 Ry
     xc contribution           =     -51.39975675 Ry
     ewald contribution        =       4.84589202 Ry
     smearing contrib. (-TS)   =      -0.00462715 Ry

     convergence has been achieved in   9 iterations

     Forces acting on atoms (Ry/au):

     atom    1 type  1   force =     0.00284801    0.00011539    0.00076208
     atom    2 type  1   force =    -0.00146336    0.00047952   -0.00100791
     atom    3 type  1   force =    -0.00041049    0.00012250   -0.00126478
     atom    4 type  1   force =    -0.00125857   -0.00125158   -0.00020040
     atom    5 type  1   force =     0.00028441    0.00053417    0.00171100

     Total force =     0.004512     Total SCF correction =     0.000017

     number of scf cycles    =  10
     number of bfgs steps    =   9

     energy   old            =    -329.4914512052 Ry
     energy   new            =    -329.4914975131 Ry

     CASE: energy  _new < energy  _old

     new trust radius        =       0.0092797609 bohr
     new conv_thr            =            1.0E-10 Ry


ATOMIC_POSITIONS (bohr)
Au      -1.728361205   1.363060039  -1.007340910
Au      -0.841189814   3.075650881   3.820950939
Au       3.059958783   1.360272357   0.658513724
Au       3.932863405   3.364095164   5.783868879
Au       7.660925831   1.587578559   2.706478368



     Writing output data file pwscf.save
     Check: negative starting charge=   -0.006515
     NEW-OLD atomic charge density approx. for the potential
     Check: negative starting charge=   -0.006514

     negative rho (up, down):  6.228E-06 0.000E+00

     total cpu time spent up to now is       27.9 secs

     per-process dynamical memory:    50.7 Mb

     Self-consistent Calculation

     iteration #  1     ecut=    30.00 Ry     beta=0.70
     Davidson diagonalization with overlap
     ethr =  1.00E-06,  avg # of iterations =  4.0

     Threshold (ethr) on eigenvalues was too large:
     Diagonalizing with lowered threshold

     Davidson diagonalization with overlap
     ethr =  2.45E-08,  avg # of iterations =  2.0

     total cpu time spent up to now is       28.4 secs

     total energy              =    -329.49153023 Ry
     Harris-Foulkes estimate   =    -329.49152878 Ry
     estimated scf accuracy    <       0.00001440 Ry

     iteration #  2     ecut=    30.00 Ry     beta=0.70
     Davidson diagonalization with overlap
     ethr =  2.62E-08,  avg # of iterations =  3.0

     total cpu time spent up to now is       28.6 secs

     total energy              =    -329.49153041 Ry
     Harris-Foulkes estimate   =    -329.49153826 Ry
     estimated scf accuracy    <       0.00001586 Ry

     iteration #  3     ecut=    30.00 Ry     beta=0.70
     Davidson diagonalization with overlap
     ethr =  2.62E-08,  avg # of iterations =  2.0

     total cpu time spent up to now is       28.8 secs

     total energy              =    -329.49153403 Ry
     Harris-Foulkes estimate   =    -329.49153536 Ry
     estimated scf accuracy    <       0.00000415 Ry

     iteration #  4     ecut=    30.00 Ry     beta=0.70
     Davidson diagonalization with overlap
     ethr =  7.55E-09,  avg # of iterations =  2.0

     total cpu time spent up to now is       29.0 secs

     total energy              =    -329.49153467 Ry
     Harris-Foulkes estimate   =    -329.49153515 Ry
     estimated scf accuracy    <       0.00000073 Ry

     iteration #  5     ecut=    30.00 Ry     beta=0.70
     Davidson diagonalization with overlap
     ethr =  1.32E-09,  avg # of iterations =  2.0

     total cpu time spent up to now is       29.3 secs

     total energy              =    -329.49153492 Ry
     Harris-Foulkes estimate   =    -329.49153487 Ry
     estimated scf accuracy    <       0.00000015 Ry

     iteration #  6     ecut=    30.00 Ry     beta=0.70
     Davidson diagonalization with overlap
     ethr =  2.64E-10,  avg # of iterations =  2.0

     total cpu time spent up to now is       29.5 secs

     total energy              =    -329.49153490 Ry
     Harris-Foulkes estimate   =    -329.49153495 Ry
     estimated scf accuracy    <       0.00000001 Ry

     iteration #  7     ecut=    30.00 Ry     beta=0.70
     Davidson diagonalization with overlap
     ethr =  2.12E-11,  avg # of iterations =  2.0

     total cpu time spent up to now is       29.7 secs

     total energy              =    -329.49153488 Ry
     Harris-Foulkes estimate   =    -329.49153491 Ry
     estimated scf accuracy    <          2.9E-09 Ry

     iteration #  8     ecut=    30.00 Ry     beta=0.70
     Davidson diagonalization with overlap
     ethr =  5.35E-12,  avg # of iterations =  2.0

     total cpu time spent up to now is       29.9 secs

     total energy              =    -329.49153488 Ry
     Harris-Foulkes estimate   =    -329.49153488 Ry
     estimated scf accuracy    <          6.1E-10 Ry

     iteration #  9     ecut=    30.00 Ry     beta=0.70
     Davidson diagonalization with overlap
     ethr =  1.10E-12,  avg # of iterations =  3.0

     total cpu time spent up to now is       30.2 secs

     total energy              =    -329.49153486 Ry
     Harris-Foulkes estimate   =    -329.49153489 Ry
     estimated scf accuracy    <          1.4E-10 Ry

     iteration # 10     ecut=    30.00 Ry     beta=0.70
     Davidson diagonalization with overlap
     ethr =  2.62E-13,  avg # of iterations =  3.0

     total cpu time spent up to now is       30.4 secs

     End of self-consistent calculation

          k = 0.0000 0.0000 0.0000 ( 22119 PWs)   bands (ev):

    -8.5022  -7.7715  -7.6603  -7.2341  -6.8978  -6.8153  -6.5840  -6.4882
    -6.3140  -6.0744  -5.9556  -5.7629  -5.7275  -5.6874  -5.4492  -5.3720
    -5.3232  -5.2423  -5.2057  -5.2012  -5.1653  -5.1282  -4.9990  -4.9255
    -4.8803  -4.6971  -4.4925  -3.7811  -2.4799  -2.2203  -0.5648  -0.1914
     0.4465   0.8995

     the Fermi energy is    -3.7479 ev

!    total energy              =    -329.49153487 Ry
     Harris-Foulkes estimate   =    -329.49153486 Ry
     estimated scf accuracy    <          7.7E-12 Ry

     The total energy is the sum of the following terms:

     one-electron contribution =    -608.33247673 Ry
     hartree contribution      =     325.59266518 Ry
     xc contribution           =     -51.39868496 Ry
     ewald contribution        =       4.65142485 Ry
     smearing contrib. (-TS)   =      -0.00446321 Ry

     convergence has been achieved in  10 iterations

     Forces acting on atoms (Ry/au):

     atom    1 type  1   force =     0.00273181    0.00025759    0.00112930
     atom    2 type  1   force =    -0.00113431    0.00001466   -0.00181655
     atom    3 type  1   force =    -0.00103670    0.00039250   -0.00035835
     atom    4 type  1   force =    -0.00044683   -0.00136678   -0.00104797
     atom    5 type  1   force =    -0.00011397    0.00070203    0.00209356

     Total force =     0.004775     Total SCF correction =     0.000015

     number of scf cycles    =  11
     number of bfgs steps    =  10

     energy   old            =    -329.4914975131 Ry
     energy   new            =    -329.4915348732 Ry

     CASE: energy  _new < energy  _old

     new trust radius        =       0.0102077370 bohr
     new conv_thr            =            1.0E-10 Ry


ATOMIC_POSITIONS (bohr)
Au      -1.719253109   1.361408360  -1.008780013
Au      -0.848303789   3.080270599   3.820916799
Au       3.064582897   1.361126730   0.653607318
Au       3.924296764   3.358734408   5.785308615
Au       7.662874238   1.589116903   2.711418281



     Writing output data file pwscf.save
     Check: negative starting charge=   -0.006514
     NEW-OLD atomic charge density approx. for the potential
     Check: negative starting charge=   -0.006513

     negative rho (up, down):  1.062E-05 0.000E+00

     total cpu time spent up to now is       30.6 secs

     per-process dynamical memory:    50.7 Mb

     Self-consistent Calculation

     iteration #  1     ecut=    30.00 Ry     beta=0.70
     Davidson diagonalization with overlap
     ethr =  1.00E-06,  avg # of iterations =  4.0

     Threshold (ethr) on eigenvalues was too large:
     Diagonalizing with lowered threshold

     Davidson diagonalization with overlap
     ethr =  3.58E-08,  avg # of iterations =  1.0

     negative rho (up, down):  1.561E-08 0.000E+00

     total cpu time spent up to now is       31.5 secs

     total energy              =    -329.49156675 Ry
     Harris-Foulkes estimate   =    -329.49156671 Ry
     estimated scf accuracy    <       0.00002065 Ry

     iteration #  2     ecut=    30.00 Ry     beta=0.70
     Davidson diagonalization with overlap
     ethr =  3.75E-08,  avg # of iterations =  3.0

     total cpu time spent up to now is       31.7 secs

     total energy              =    -329.49156711 Ry
     Harris-Foulkes estimate   =    -329.49158004 Ry
     estimated scf accuracy    <       0.00002963 Ry

     iteration #  3     ecut=    30.00 Ry     beta=0.70
     Davidson diagonalization with overlap
     ethr =  3.75E-08,  avg # of iterations =  2.0

     total cpu time spent up to now is       31.9 secs

     total energy              =    -329.49157314 Ry
     Harris-Foulkes estimate   =    -329.49157572 Ry
     estimated scf accuracy    <       0.00000640 Ry

     iteration #  4     ecut=    30.00 Ry     beta=0.70
     Davidson diagonalization with overlap
     ethr =  1.16E-08,  avg # of iterations =  2.0

     total cpu time spent up to now is       32.1 secs

     total energy              =    -329.49157426 Ry
     Harris-Foulkes estimate   =    -329.49157469 Ry
     estimated scf accuracy    <       0.00000076 Ry

     iteration #  5     ecut=    30.00 Ry     beta=0.70
     Davidson diagonalization with overlap
     ethr =  1.37E-09,  avg # of iterations =  2.0

     total cpu time spent up to now is       32.4 secs

     total energy              =    -329.49157439 Ry
     Harris-Foulkes estimate   =    -329.49157449 Ry
     estimated scf accuracy    <       0.00000022 Ry

     iteration #  6     ecut=    30.00 Ry     beta=0.70
     Davidson diagonalization with overlap
     ethr =  4.03E-10,  avg # of iterations =  2.0

     total cpu time spent up to now is       32.6 secs

     total energy              =    -329.49157444 Ry
     Harris-Foulkes estimate   =    -329.49157444 Ry
     estimated scf accuracy    <       0.00000002 Ry

     iteration #  7     ecut=    30.00 Ry     beta=0.70
     Davidson diagonalization with overlap
     ethr =  3.08E-11,  avg # of iterations =  2.0

     total cpu time spent up to now is       33.1 secs

     total energy              =    -329.49157447 Ry
     Harris-Foulkes estimate   =    -329.49157444 Ry
     estimated scf accuracy    <          3.2E-09 Ry

     iteration #  8     ecut=    30.00 Ry     beta=0.70
     Davidson diagonalization with overlap
     ethr =  5.88E-12,  avg # of iterations =  2.0

     total cpu time spent up to now is       33.4 secs

     total energy              =    -329.49157451 Ry
     Harris-Foulkes estimate   =    -329.49157447 Ry
     estimated scf accuracy    <          1.1E-09 Ry

     iteration #  9     ecut=    30.00 Ry     beta=0.70
     Davidson diagonalization with overlap
     ethr =  1.91E-12,  avg # of iterations =  2.0

     total cpu time spent up to now is       33.6 secs

     total energy              =    -329.49157451 Ry
     Harris-Foulkes estimate   =    -329.49157451 Ry
     estimated scf accuracy    <          1.5E-10 Ry

     iteration # 10     ecut=    30.00 Ry     beta=0.70
     Davidson diagonalization with overlap
     ethr =  2.70E-13,  avg # of iterations =  2.0

     total cpu time spent up to now is       33.8 secs

     End of self-consistent calculation

          k = 0.0000 0.0000 0.0000 ( 22119 PWs)   bands (ev):

    -8.4987  -7.7660  -7.6552  -7.2285  -6.8950  -6.8137  -6.5836  -6.4825
    -6.3118  -6.0728  -5.9545  -5.7642  -5.7280  -5.6869  -5.4456  -5.3722
    -5.3233  -5.2413  -5.2061  -5.1996  -5.1657  -5.1287  -4.9976  -4.9244
    -4.8793  -4.7006  -4.4897  -3.7837  -2.4787  -2.2214  -0.5640  -0.1933
     0.4484   0.9003

     the Fermi energy is    -3.7510 ev

!    total energy              =    -329.49157451 Ry
     Harris-Foulkes estimate   =    -329.49157451 Ry
     estimated scf accuracy    <          1.1E-11 Ry

     The total energy is the sum of the following terms:

     one-electron contribution =    -608.15309520 Ry
     hartree contribution      =     325.50559363 Ry
     xc contribution           =     -51.39835307 Ry
     ewald contribution        =       4.55861457 Ry
     smearing contrib. (-TS)   =      -0.00433443 Ry

     convergence has been achieved in  10 iterations

     Forces acting on atoms (Ry/au):

     atom    1 type  1   force =     0.00205138    0.00032734    0.00105803
     atom    2 type  1   force =    -0.00080518   -0.00030678   -0.00211963
     atom    3 type  1   force =    -0.00087995    0.00056036    0.00055884
     atom    4 type  1   force =     0.00010682   -0.00139605   -0.00171183
     atom    5 type  1   force =    -0.00047308    0.00081512    0.00221459

     Total force =     0.004770     Total SCF correction =     0.000015

     number of scf cycles    =  12
     number of bfgs steps    =  11

     energy   old            =    -329.4915348732 Ry
     energy   new            =    -329.4915745066 Ry

     CASE: energy  _new < energy  _old

     new trust radius        =       0.0153116055 bohr
     new conv_thr            =            1.0E-10 Ry


ATOMIC_POSITIONS (bohr)
Au      -1.704542310   1.358146162  -1.011499522
Au      -0.859286941   3.086689024   3.818001317
Au       3.069452531   1.364622375   0.650406769
Au       3.913005474   3.349106037   5.785627934
Au       7.665568246   1.592093403   2.719934502



     Writing output data file pwscf.save
     Check: negative starting charge=   -0.006513
     NEW-OLD atomic charge density approx. for the potential
     Check: negative starting charge=   -0.006515

     negative rho (up, down):  4.457E-05 0.000E+00

     total cpu time spent up to now is       34.0 secs

     per-process dynamical memory:    50.7 Mb

     Self-consistent Calculation

     iteration #  1     ecut=    30.00 Ry     beta=0.70
     Davidson diagonalization with overlap
     ethr =  1.00E-06,  avg # of iterations =  4.0

     Threshold (ethr) on eigenvalues was too large:
     Diagonalizing with lowered threshold

     Davidson diagonalization with overlap
     ethr =  8.66E-08,  avg # of iterations =  1.0

     negative rho (up, down):  1.975E-07 0.000E+00

     total cpu time spent up to now is       34.6 secs

     total energy              =    -329.49160684 Ry
     Harris-Foulkes estimate   =    -329.49161121 Ry
     estimated scf accuracy    <       0.00004769 Ry

     iteration #  2     ecut=    30.00 Ry     beta=0.70
     Davidson diagonalization with overlap
     ethr =  8.67E-08,  avg # of iterations =  3.0

     negative rho (up, down):  1.718E-08 0.000E+00

     total cpu time spent up to now is       35.0 secs

     total energy              =    -329.49160813 Ry
     Harris-Foulkes estimate   =    -329.49163752 Ry
     estimated scf accuracy    <       0.00006735 Ry

     iteration #  3     ecut=    30.00 Ry     beta=0.70
     Davidson diagonalization with overlap
     ethr =  8.67E-08,  avg # of iterations =  2.0

     total cpu time spent up to now is       35.2 secs

     total energy              =    -329.49162254 Ry
     Harris-Foulkes estimate   =    -329.49162778 Ry
     estimated scf accuracy    <       0.00001521 Ry

     iteration #  4     ecut=    30.00 Ry     beta=0.70
     Davidson diagonalization with overlap
     ethr =  2.77E-08,  avg # of iterations =  2.0

     total cpu time spent up to now is       35.4 secs

     total energy              =    -329.49162552 Ry
     Harris-Foulkes estimate   =    -329.49162617 Ry
     estimated scf accuracy    <       0.00000169 Ry

     iteration #  5     ecut=    30.00 Ry     beta=0.70
     Davidson diagonalization with overlap
     ethr =  3.07E-09,  avg # of iterations =  2.0

     total cpu time spent up to now is       35.7 secs

     total energy              =    -329.49162587 Ry
     Harris-Foulkes estimate   =    -329.49162605 Ry
     estimated scf accuracy    <       0.00000054 Ry

     iteration #  6     ecut=    30.00 Ry     beta=0.70
     Davidson diagonalization with overlap
[...]

     CASE: energy  _new < energy  _old

     new trust radius        =       0.0046232167 bohr
     new conv_thr            =            1.0E-10 Ry


ATOMIC_POSITIONS (bohr)
Au      -1.672872109   1.350093661  -1.023738970
Au      -0.886413806   3.096451434   3.796303819
Au       3.083623041   1.383212164   0.665126116
Au       3.886898501   3.313216880   5.771316520
Au       7.672961374   1.607682862   2.753463515



     Writing output data file pwscf.save
     Check: negative starting charge=   -0.006530
     NEW-OLD atomic charge density approx. for the potential
     Check: negative starting charge=   -0.006532

     negative rho (up, down):  1.987E-07 0.000E+00

     total cpu time spent up to now is       46.6 secs

     per-process dynamical memory:    50.7 Mb

     Self-consistent Calculation

     iteration #  1     ecut=    30.00 Ry     beta=0.70
     Davidson diagonalization with overlap
     ethr =  1.00E-06,  avg # of iterations =  3.0

     Threshold (ethr) on eigenvalues was too large:
     Diagonalizing with lowered threshold

     Davidson diagonalization with overlap
     ethr =  5.42E-09,  avg # of iterations =  2.0

     total cpu time spent up to now is       47.3 secs

     total energy              =    -329.49173623 Ry
     Harris-Foulkes estimate   =    -329.49173400 Ry
     estimated scf accuracy    <       0.00000322 Ry

     iteration #  2     ecut=    30.00 Ry     beta=0.70
     Davidson diagonalization with overlap
     ethr =  5.85E-09,  avg # of iterations =  3.0

     total cpu time spent up to now is       47.6 secs

     total energy              =    -329.49173645 Ry
     Harris-Foulkes estimate   =    -329.49173803 Ry
     estimated scf accuracy    <       0.00000376 Ry

     iteration #  3     ecut=    30.00 Ry     beta=0.70
     Davidson diagonalization with overlap
     ethr =  5.85E-09,  avg # of iterations =  2.0

     total cpu time spent up to now is       47.8 secs

     total energy              =    -329.49173756 Ry
     Harris-Foulkes estimate   =    -329.49173762 Ry
     estimated scf accuracy    <       0.00000096 Ry

     iteration #  4     ecut=    30.00 Ry     beta=0.70
     Davidson diagonalization with overlap
     ethr =  1.74E-09,  avg # of iterations =  2.0

     total cpu time spent up to now is       48.1 secs

     total energy              =    -329.49173793 Ry
     Harris-Foulkes estimate   =    -329.49173783 Ry
     estimated scf accuracy    <       0.00000019 Ry

     iteration #  5     ecut=    30.00 Ry     beta=0.70
     Davidson diagonalization with overlap
     ethr =  3.46E-10,  avg # of iterations =  2.0

     total cpu time spent up to now is       48.3 secs

     total energy              =    -329.49173798 Ry
     Harris-Foulkes estimate   =    -329.49173798 Ry
     estimated scf accuracy    <       0.00000002 Ry

     iteration #  6     ecut=    30.00 Ry     beta=0.70
     Davidson diagonalization with overlap
     ethr =  4.04E-11,  avg # of iterations =  2.0

     total cpu time spent up to now is       48.5 secs

     total energy              =    -329.49173795 Ry
     Harris-Foulkes estimate   =    -329.49173799 Ry
     estimated scf accuracy    <          3.6E-09 Ry

     iteration #  7     ecut=    30.00 Ry     beta=0.70
     Davidson diagonalization with overlap
     ethr =  6.47E-12,  avg # of iterations =  2.0

     total cpu time spent up to now is       48.7 secs

     total energy              =    -329.49173798 Ry
     Harris-Foulkes estimate   =    -329.49173796 Ry
     estimated scf accuracy    <          4.5E-10 Ry

     iteration #  8     ecut=    30.00 Ry     beta=0.70
     Davidson diagonalization with overlap
     ethr =  8.17E-13,  avg # of iterations =  2.0

     total cpu time spent up to now is       49.0 secs

     total energy              =    -329.49173797 Ry
     Harris-Foulkes estimate   =    -329.49173798 Ry
     estimated scf accuracy    <          1.7E-10 Ry

     iteration #  9     ecut=    30.00 Ry     beta=0.70
     Davidson diagonalization with overlap
     ethr =  3.12E-13,  avg # of iterations =  2.0

     total cpu time spent up to now is       49.1 secs

     End of self-consistent calculation

          k = 0.0000 0.0000 0.0000 ( 22119 PWs)   bands (ev):

    -8.5228  -7.7934  -7.6695  -7.2485  -6.8842  -6.8276  -6.6110  -6.4937
    -6.3200  -6.0826  -5.9621  -5.7731  -5.7363  -5.6928  -5.4583  -5.3676
    -5.3180  -5.2458  -5.2021  -5.1964  -5.1688  -5.1252  -4.9982  -4.9201
    -4.8586  -4.7144  -4.4820  -3.7748  -2.4747  -2.2125  -0.5682  -0.1867
     0.4542   0.9012

     the Fermi energy is    -3.7416 ev

!    total energy              =    -329.49173797 Ry
     Harris-Foulkes estimate   =    -329.49173797 Ry
     estimated scf accuracy    <          1.8E-11 Ry

     The total energy is the sum of the following terms:

     one-electron contribution =    -609.50478787 Ry
     hartree contribution      =     326.17377118 Ry
     xc contribution           =     -51.40329919 Ry
     ewald contribution        =       5.24706067 Ry
     smearing contrib. (-TS)   =      -0.00448276 Ry

     convergence has been achieved in   9 iterations

     Forces acting on atoms (Ry/au):

     atom    1 type  1   force =    -0.00113912    0.00034420   -0.00060303
     atom    2 type  1   force =     0.00015889   -0.00052296    0.00015897
     atom    3 type  1   force =     0.00047430   -0.00033182   -0.00013723
     atom    4 type  1   force =    -0.00084443    0.00013830    0.00034827
     atom    5 type  1   force =     0.00135037    0.00037230    0.00023302

     Total force =     0.002308     Total SCF correction =     0.000014

     number of scf cycles    =  17
     number of bfgs steps    =  16

     energy   old            =    -329.4917270574 Ry
     energy   new            =    -329.4917379666 Ry

     CASE: energy  _new < energy  _old

     new trust radius        =       0.0050971049 bohr
     new conv_thr            =            1.0E-10 Ry


ATOMIC_POSITIONS (bohr)
Au      -1.676706234   1.352124182  -1.024743833
Au      -0.885918912   3.094038532   3.795075842
Au       3.086806722   1.382480565   0.665880773
Au       3.884307772   3.311911646   5.769247052
Au       7.675707653   1.610102076   2.757011167



     Writing output data file pwscf.save
     Check: negative starting charge=   -0.006532
     NEW-OLD atomic charge density approx. for the potential
     Check: negative starting charge=   -0.006532

     negative rho (up, down):  3.078E-07 0.000E+00

     total cpu time spent up to now is       49.5 secs

     per-process dynamical memory:    50.7 Mb

     Self-consistent Calculation

     iteration #  1     ecut=    30.00 Ry     beta=0.70
     Davidson diagonalization with overlap
     ethr =  1.00E-06,  avg # of iterations =  3.0

     Threshold (ethr) on eigenvalues was too large:
     Diagonalizing with lowered threshold

     Davidson diagonalization with overlap
     ethr =  6.63E-09,  avg # of iterations =  2.0

     total cpu time spent up to now is       50.0 secs

     total energy              =    -329.49174638 Ry
     Harris-Foulkes estimate   =    -329.49174345 Ry
     estimated scf accuracy    <       0.00000401 Ry

     iteration #  2     ecut=    30.00 Ry     beta=0.70
     Davidson diagonalization with overlap
     ethr =  7.29E-09,  avg # of iterations =  3.0

     total cpu time spent up to now is       50.2 secs

     total energy              =    -329.49174683 Ry
     Harris-Foulkes estimate   =    -329.49174868 Ry
     estimated scf accuracy    <       0.00000458 Ry

     iteration #  3     ecut=    30.00 Ry     beta=0.70
     Davidson diagonalization with overlap
     ethr =  7.29E-09,  avg # of iterations =  2.0

     total cpu time spent up to now is       50.5 secs

     total energy              =    -329.49174799 Ry
     Harris-Foulkes estimate   =    -329.49174821 Ry
     estimated scf accuracy    <       0.00000112 Ry

     iteration #  4     ecut=    30.00 Ry     beta=0.70
     Davidson diagonalization with overlap
     ethr =  2.03E-09,  avg # of iterations =  2.0

     total cpu time spent up to now is       50.7 secs

     total energy              =    -329.49174850 Ry
     Harris-Foulkes estimate   =    -329.49174830 Ry
     estimated scf accuracy    <       0.00000020 Ry

     iteration #  5     ecut=    30.00 Ry     beta=0.70
     Davidson diagonalization with overlap
     ethr =  3.71E-10,  avg # of iterations =  2.0

     total cpu time spent up to now is       50.9 secs

     total energy              =    -329.49174848 Ry
     Harris-Foulkes estimate   =    -329.49174855 Ry
     estimated scf accuracy    <       0.00000003 Ry

     iteration #  6     ecut=    30.00 Ry     beta=0.70
     Davidson diagonalization with overlap
     ethr =  4.76E-11,  avg # of iterations =  2.0

     total cpu time spent up to now is       51.4 secs

     total energy              =    -329.49174851 Ry
     Harris-Foulkes estimate   =    -329.49174849 Ry
     estimated scf accuracy    <          2.5E-09 Ry

     iteration #  7     ecut=    30.00 Ry     beta=0.70
     Davidson diagonalization with overlap
     ethr =  4.63E-12,  avg # of iterations =  2.0

     total cpu time spent up to now is       51.7 secs

     total energy              =    -329.49174853 Ry
     Harris-Foulkes estimate   =    -329.49174851 Ry
     estimated scf accuracy    <          3.4E-10 Ry

     iteration #  8     ecut=    30.00 Ry     beta=0.70
     Davidson diagonalization with overlap
     ethr =  6.23E-13,  avg # of iterations =  3.0

     total cpu time spent up to now is       52.0 secs

     total energy              =    -329.49174853 Ry
     Harris-Foulkes estimate   =    -329.49174853 Ry
     estimated scf accuracy    <          1.8E-10 Ry

     iteration #  9     ecut=    30.00 Ry     beta=0.70
     Davidson diagonalization with overlap
     ethr =  3.24E-13,  avg # of iterations =  2.0

     total cpu time spent up to now is       52.2 secs

     End of self-consistent calculation

          k = 0.0000 0.0000 0.0000 ( 22119 PWs)   bands (ev):

    -8.5186  -7.7925  -7.6718  -7.2518  -6.8842  -6.8244  -6.6117  -6.4947
    -6.3229  -6.0802  -5.9617  -5.7716  -5.7345  -5.6924  -5.4603  -5.3681
    -5.3184  -5.2460  -5.2021  -5.1969  -5.1683  -5.1249  -5.0007  -4.9190
    -4.8569  -4.7162  -4.4815  -3.7746  -2.4783  -2.2103  -0.5685  -0.1859
     0.4530   0.9010

     the Fermi energy is    -3.7414 ev

!    total energy              =    -329.49174851 Ry
     Harris-Foulkes estimate   =    -329.49174853 Ry
     estimated scf accuracy    <          2.0E-11 Ry

     The total energy is the sum of the following terms:

     one-electron contribution =    -609.48318273 Ry
     hartree contribution      =     326.16289085 Ry
     xc contribution           =     -51.40309054 Ry
     ewald contribution        =       5.23611856 Ry
     smearing contrib. (-TS)   =      -0.00448466 Ry

     convergence has been achieved in   9 iterations

     Forces acting on atoms (Ry/au):

     atom    1 type  1   force =    -0.00024189    0.00027208   -0.00029508
     atom    2 type  1   force =    -0.00011566   -0.00047176    0.00005627
     atom    3 type  1   force =    -0.00032112   -0.00032824   -0.00049480
     atom    4 type  1   force =    -0.00064017    0.00026377    0.00070610
     atom    5 type  1   force =     0.00131884    0.00026416    0.00002751

     Total force =     0.001924     Total SCF correction =     0.000013

     number of scf cycles    =  18
     number of bfgs steps    =  17

     energy   old            =    -329.4917379666 Ry
     energy   new            =    -329.4917485127 Ry

     CASE: energy  _new < energy  _old

     new trust radius        =       0.0046467149 bohr
     new conv_thr            =            1.0E-10 Ry


ATOMIC_POSITIONS (bohr)
Au      -1.679279461   1.354089450  -1.025408402
Au      -0.885951803   3.092018304   3.794765943
Au       3.089191018   1.381055656   0.664610377
Au       3.881228041   3.311445974   5.768863876
Au       7.679009205   1.612047616   2.759639205



     Writing output data file pwscf.save
     Check: negative starting charge=   -0.006532
     NEW-OLD atomic charge density approx. for the potential
     Check: negative starting charge=   -0.006530

     negative rho (up, down):  1.027E-07 0.000E+00

     total cpu time spent up to now is       52.4 secs

     per-process dynamical memory:    50.7 Mb

     Self-consistent Calculation

     iteration #  1     ecut=    30.00 Ry     beta=0.70
     Davidson diagonalization with overlap
     ethr =  1.00E-06,  avg # of iterations =  3.0

     Threshold (ethr) on eigenvalues was too large:
     Diagonalizing with lowered threshold

     Davidson diagonalization with overlap
     ethr =  5.32E-09,  avg # of iterations =  2.0

     total cpu time spent up to now is       52.9 secs

     total energy              =    -329.49175393 Ry
     Harris-Foulkes estimate   =    -329.49175187 Ry
     estimated scf accuracy    <       0.00000321 Ry

     iteration #  2     ecut=    30.00 Ry     beta=0.70
     Davidson diagonalization with overlap
     ethr =  5.83E-09,  avg # of iterations =  3.0

     total cpu time spent up to now is       53.1 secs

     total energy              =    -329.49175421 Ry
     Harris-Foulkes estimate   =    -329.49175575 Ry
     estimated scf accuracy    <       0.00000329 Ry

     iteration #  3     ecut=    30.00 Ry     beta=0.70
     Davidson diagonalization with overlap
     ethr =  5.83E-09,  avg # of iterations =  2.0

     total cpu time spent up to now is       53.3 secs

     total energy              =    -329.49175492 Ry
     Harris-Foulkes estimate   =    -329.49175520 Ry
     estimated scf accuracy    <       0.00000083 Ry

     iteration #  4     ecut=    30.00 Ry     beta=0.70
     Davidson diagonalization with overlap
     ethr =  1.52E-09,  avg # of iterations =  2.0

     total cpu time spent up to now is       53.5 secs

     total energy              =    -329.49175503 Ry
     Harris-Foulkes estimate   =    -329.49175517 Ry
     estimated scf accuracy    <       0.00000019 Ry

     iteration #  5     ecut=    30.00 Ry     beta=0.70
     Davidson diagonalization with overlap
     ethr =  3.39E-10,  avg # of iterations =  2.0

     total cpu time spent up to now is       53.7 secs

     total energy              =    -329.49175501 Ry
     Harris-Foulkes estimate   =    -329.49175508 Ry
     estimated scf accuracy    <       0.00000003 Ry

     iteration #  6     ecut=    30.00 Ry     beta=0.70
     Davidson diagonalization with overlap
     ethr =  4.70E-11,  avg # of iterations =  2.0

     total cpu time spent up to now is       53.9 secs

     total energy              =    -329.49175508 Ry
     Harris-Foulkes estimate   =    -329.49175502 Ry
     estimated scf accuracy    <          2.4E-09 Ry

     iteration #  7     ecut=    30.00 Ry     beta=0.70
     Davidson diagonalization with overlap
     ethr =  4.42E-12,  avg # of iterations =  3.0

     total cpu time spent up to now is       54.2 secs

     total energy              =    -329.49175509 Ry
     Harris-Foulkes estimate   =    -329.49175508 Ry
     estimated scf accuracy    <          4.8E-10 Ry

     iteration #  8     ecut=    30.00 Ry     beta=0.70
     Davidson diagonalization with overlap
     ethr =  8.67E-13,  avg # of iterations =  3.0

     total cpu time spent up to now is       54.4 secs

     total energy              =    -329.49175507 Ry
     Harris-Foulkes estimate   =    -329.49175509 Ry
     estimated scf accuracy    <          1.6E-10 Ry

     iteration #  9     ecut=    30.00 Ry     beta=0.70
     Davidson diagonalization with overlap
     ethr =  2.95E-13,  avg # of iterations =  2.0

     total cpu time spent up to now is       54.6 secs

     End of self-consistent calculation

          k = 0.0000 0.0000 0.0000 ( 22119 PWs)   bands (ev):

    -8.5127  -7.7885  -7.6714  -7.2520  -6.8838  -6.8204  -6.6104  -6.4934
    -6.3241  -6.0772  -5.9605  -5.7703  -5.7327  -5.6915  -5.4605  -5.3688
    -5.3190  -5.2456  -5.2023  -5.1967  -5.1683  -5.1250  -5.0026  -4.9181
    -4.8565  -4.7180  -4.4809  -3.7754  -2.4815  -2.2092  -0.5682  -0.1860
     0.4522   0.9010

     the Fermi energy is    -3.7423 ev

!    total energy              =    -329.49175507 Ry
     Harris-Foulkes estimate   =    -329.49175507 Ry
     estimated scf accuracy    <          1.5E-11 Ry

     The total energy is the sum of the following terms:

     one-electron contribution =    -609.33298699 Ry
     hartree contribution      =     326.08885814 Ry
     xc contribution           =     -51.40248284 Ry
     ewald contribution        =       5.15931019 Ry
     smearing contrib. (-TS)   =      -0.00445357 Ry

     convergence has been achieved in   9 iterations

     Forces acting on atoms (Ry/au):

     atom    1 type  1   force =     0.00031530    0.00021822   -0.00006947
     atom    2 type  1   force =    -0.00025082   -0.00047036   -0.00011617
     atom    3 type  1   force =    -0.00063182   -0.00019172   -0.00042198
     atom    4 type  1   force =    -0.00027228    0.00020134    0.00067567
     atom    5 type  1   force =     0.00083962    0.00024251   -0.00006805

     Total force =     0.001550     Total SCF correction =     0.000013

     bfgs converged in  19 scf cycles and  18 bfgs steps
     (criteria: energy <  1.0E-04, force <  1.0E-03)

     End of BFGS Geometry Optimization

     Final energy   =    -329.4917550741 Ry
Begin final coordinates

ATOMIC_POSITIONS (bohr)
Au      -1.679279461   1.354089450  -1.025408402
Au      -0.885951803   3.092018304   3.794765943
Au       3.089191018   1.381055656   0.664610377
Au       3.881228041   3.311445974   5.768863876
Au       7.679009205   1.612047616   2.759639205
End final coordinates



     Writing output data file pwscf.save
 
     init_run     :      0.16s CPU      0.19s WALL (       1 calls)
     electrons    :     47.73s CPU     50.80s WALL (      19 calls)
     update_pot   :      1.33s CPU      1.61s WALL (      18 calls)
     forces       :      0.88s CPU      0.90s WALL (      19 calls)

     Called by init_run:
     wfcinit      :      0.07s CPU      0.09s WALL (       1 calls)
     potinit      :      0.03s CPU      0.04s WALL (       1 calls)

     Called by electrons:
     c_bands      :     36.95s CPU     37.54s WALL (     196 calls)
     sum_band     :      5.13s CPU      5.24s WALL (     196 calls)
     v_of_rho     :      3.96s CPU      4.04s WALL (     203 calls)
     mix_rho      :      1.50s CPU      3.10s WALL (     196 calls)

     Called by c_bands:
     init_us_2    :      0.62s CPU      0.64s WALL (     393 calls)
     cegterg      :     33.21s CPU     33.67s WALL (     196 calls)

     Called by sum_band:

     Called by *egterg:
     h_psi        :     26.35s CPU     26.68s WALL (     664 calls)
     g_psi        :      0.23s CPU      0.23s WALL (     467 calls)
     cdiaghg      :      1.56s CPU      1.56s WALL (     633 calls)

     Called by h_psi:
     h_psi:pot    :     26.01s CPU     26.34s WALL (     664 calls)
     h_psi:calbec :      1.42s CPU      1.45s WALL (     664 calls)
     vloc_psi     :     23.19s CPU     23.49s WALL (     664 calls)
     add_vuspsi   :      1.40s CPU      1.41s WALL (     664 calls)

     General routines
     calbec       :      1.69s CPU      1.74s WALL (     740 calls)
     fft          :      2.28s CPU      2.32s WALL (    2294 calls)
     fftw         :     24.56s CPU     25.04s WALL (   42746 calls)
     davcio       :      0.21s CPU      1.46s WALL (    1920 calls)
 
     Parallel routines
     fft_scatter  :      9.07s CPU      9.05s WALL (   45040 calls)
 
     PWSCF        :    50.68s CPU        54.87s WALL

 
   This run was terminated on:  15:39:24   3Aug2017            

=------------------------------------------------------------------------------=
   JOB DONE.
=------------------------------------------------------------------------------=
