
     Program PWSCF v.6.0 (svn rev. 13079) starts on  3Aug2017 at 17:44:29 

     This program is part of the open-source Quantum ESPRESSO suite
     for quantum simulation of materials; please cite
         "P. Giannozzi et al., J. Phys.:Condens. Matter 21 395502 (2009);
          URL http://www.quantum-espresso.org", 
     in publications or presentations arising from this work. More details at
     http://www.quantum-espresso.org/quote

     Parallel version (MPI), running on    10 processors
     R & G space division:  proc/nbgrp/npool/nimage =      10
     Reading input from input/multi/minchecks-Gold5-312.in

     Current dimensions of program PWSCF are:
     Max number of different atomic species (ntypx) = 10
     Max number of k-points (npk) =  40000
     Max angular momentum in pseudopotentials (lmaxx) =  3
     Message from routine iosys:
     pot_extrapolation='second-order' not available, using 'atomic'
     Message from routine iosys:
     wfc_extrapolation='second-order' not available, using 'atomic'

     Subspace diagonalization in iterative solution of the eigenvalue problem:
     a serial algorithm will be used

 
     Parallelization info
     --------------------
     sticks:   dense  smooth     PW     G-vecs:    dense   smooth      PW
     Min         380     380     94                17748    17748    2208
     Max         381     381     95                17753    17753    2213
     Sum        3809    3809    949               177509   177509   22119
 


     bravais-lattice index     =            1
     lattice parameter (alat)  =      20.0000  a.u.
     unit-cell volume          =    8000.0000 (a.u.)^3
     number of atoms/cell      =            5
     number of atomic types    =            1
     number of electrons       =        55.00
     number of Kohn-Sham states=           34
     kinetic-energy cutoff     =      30.0000  Ry
     charge density cutoff     =     120.0000  Ry
     convergence threshold     =      1.0E-08
     mixing beta               =       0.7000
     number of iterations used =            8  plain     mixing
     Exchange-correlation      = BLYP ( 1  3  1  3 0 0)
     nstep                     =           50


     celldm(1)=  20.000000  celldm(2)=   0.000000  celldm(3)=   0.000000
     celldm(4)=   0.000000  celldm(5)=   0.000000  celldm(6)=   0.000000

     crystal axes: (cart. coord. in units of alat)
               a(1) = (   1.000000   0.000000   0.000000 )  
               a(2) = (   0.000000   1.000000   0.000000 )  
               a(3) = (   0.000000   0.000000   1.000000 )  

     reciprocal axes: (cart. coord. in units 2 pi/alat)
               b(1) = (  1.000000  0.000000  0.000000 )  
               b(2) = (  0.000000  1.000000  0.000000 )  
               b(3) = (  0.000000  0.000000  1.000000 )  


     PseudoPot. # 1 for Au read from file:
     ./Au.blyp-d-hgh.UPF
     MD5 check sum: c10d8bae01f806c36a1643a1c69a8479
     Pseudo is Norm-conserving, Zval = 11.0
     Generated in analytical, separable form
     Using radial grid of 1279 points,  6 beta functions with: 
                l(1) =   0
                l(2) =   0
                l(3) =   1
                l(4) =   1
                l(5) =   2
                l(6) =   2

     atomic species   valence    mass     pseudopotential
        Au            11.00    28.08600     Au( 1.00)

     No symmetry found



   Cartesian axes

     site n.     atom                  positions (alat units)
         1           Au  tau(   1) = (  -0.0951980   0.0463959  -0.0282645  )
         2           Au  tau(   2) = (  -0.0287775   0.1108639   0.2151392  )
         3           Au  tau(   3) = (   0.1514399   0.0655258   0.0187990  )
         4           Au  tau(   4) = (   0.2092635   0.1880611   0.2703431  )
         5           Au  tau(   5) = (   0.3843640   0.0961379   0.1100966  )

     number of k points=     1  Marzari-Vanderbilt smearing, width (Ry)=  0.0250
                       cart. coord. in units 2pi/alat
        k(    1) = (   0.0000000   0.0000000   0.0000000), wk =   2.0000000

     Dense  grid:   177509 G-vectors     FFT dimensions: (  72,  72,  72)

     Estimated max dynamical RAM per process >      15.04Mb

     Estimated total allocated dynamical RAM >     150.39Mb

     Initial potential from superposition of free atoms
     Check: negative starting charge=   -0.006446

     starting charge   54.99940, renormalised to   55.00000

     negative rho (up, down):  6.447E-03 0.000E+00
     Starting wfc are   45 randomized atomic wfcs

     total cpu time spent up to now is        0.3 secs

     per-process dynamical memory:    41.0 Mb

     Self-consistent Calculation

     iteration #  1     ecut=    30.00 Ry     beta=0.70
     Davidson diagonalization with overlap
     ethr =  1.00E-02,  avg # of iterations =  3.0

     Threshold (ethr) on eigenvalues was too large:
     Diagonalizing with lowered threshold

     Davidson diagonalization with overlap
     ethr =  3.99E-04,  avg # of iterations =  6.0

     negative rho (up, down):  8.799E-04 0.000E+00

     total cpu time spent up to now is        0.7 secs

     total energy              =    -329.37931115 Ry
     Harris-Foulkes estimate   =    -329.54570562 Ry
     estimated scf accuracy    <       0.27710548 Ry

     iteration #  2     ecut=    30.00 Ry     beta=0.70
     Davidson diagonalization with overlap
     ethr =  5.04E-04,  avg # of iterations =  5.0

     negative rho (up, down):  3.922E-04 0.000E+00

     total cpu time spent up to now is        1.0 secs

     total energy              =    -329.41353922 Ry
     Harris-Foulkes estimate   =    -329.55978846 Ry
     estimated scf accuracy    <       0.29940260 Ry

     iteration #  3     ecut=    30.00 Ry     beta=0.70
     Davidson diagonalization with overlap
     ethr =  5.04E-04,  avg # of iterations =  2.0

     negative rho (up, down):  1.471E-04 0.000E+00

     total cpu time spent up to now is        1.2 secs

     total energy              =    -329.47385690 Ry
     Harris-Foulkes estimate   =    -329.50140017 Ry
     estimated scf accuracy    <       0.07237264 Ry

     iteration #  4     ecut=    30.00 Ry     beta=0.70
     Davidson diagonalization with overlap
     ethr =  1.32E-04,  avg # of iterations =  2.0

     negative rho (up, down):  1.214E-05 0.000E+00

     total cpu time spent up to now is        1.4 secs

     total energy              =    -329.48684507 Ry
     Harris-Foulkes estimate   =    -329.48877505 Ry
     estimated scf accuracy    <       0.00473818 Ry

     iteration #  5     ecut=    30.00 Ry     beta=0.70
     Davidson diagonalization with overlap
     ethr =  8.61E-06,  avg # of iterations =  6.0

     total cpu time spent up to now is        1.6 secs

     total energy              =    -329.48791919 Ry
     Harris-Foulkes estimate   =    -329.48878497 Ry
     estimated scf accuracy    <       0.00231998 Ry

     iteration #  6     ecut=    30.00 Ry     beta=0.70
     Davidson diagonalization with overlap
     ethr =  4.22E-06,  avg # of iterations =  2.0

     total cpu time spent up to now is        1.9 secs

     total energy              =    -329.48829589 Ry
     Harris-Foulkes estimate   =    -329.48844120 Ry
     estimated scf accuracy    <       0.00033673 Ry

     iteration #  7     ecut=    30.00 Ry     beta=0.70
     Davidson diagonalization with overlap
     ethr =  6.12E-07,  avg # of iterations =  2.0

     total cpu time spent up to now is        2.1 secs

     total energy              =    -329.48836738 Ry
     Harris-Foulkes estimate   =    -329.48838063 Ry
     estimated scf accuracy    <       0.00003094 Ry

     iteration #  8     ecut=    30.00 Ry     beta=0.70
     Davidson diagonalization with overlap
     ethr =  5.62E-08,  avg # of iterations =  2.0

     total cpu time spent up to now is        2.3 secs

     total energy              =    -329.48837397 Ry
     Harris-Foulkes estimate   =    -329.48837898 Ry
     estimated scf accuracy    <       0.00001215 Ry

     iteration #  9     ecut=    30.00 Ry     beta=0.70
     Davidson diagonalization with overlap
     ethr =  2.21E-08,  avg # of iterations =  2.0

     total cpu time spent up to now is        2.5 secs

     total energy              =    -329.48837621 Ry
     Harris-Foulkes estimate   =    -329.48837701 Ry
     estimated scf accuracy    <       0.00000160 Ry

     iteration # 10     ecut=    30.00 Ry     beta=0.70
     Davidson diagonalization with overlap
     ethr =  2.91E-09,  avg # of iterations =  2.0

     total cpu time spent up to now is        2.7 secs

     total energy              =    -329.48837634 Ry
     Harris-Foulkes estimate   =    -329.48837666 Ry
     estimated scf accuracy    <       0.00000025 Ry

     iteration # 11     ecut=    30.00 Ry     beta=0.70
     Davidson diagonalization with overlap
     ethr =  4.52E-10,  avg # of iterations =  2.0

     total cpu time spent up to now is        3.0 secs

     total energy              =    -329.48837639 Ry
     Harris-Foulkes estimate   =    -329.48837641 Ry
     estimated scf accuracy    <       0.00000004 Ry

     iteration # 12     ecut=    30.00 Ry     beta=0.70
     Davidson diagonalization with overlap
     ethr =  7.86E-11,  avg # of iterations =  2.0

     total cpu time spent up to now is        3.2 secs

     End of self-consistent calculation

          k = 0.0000 0.0000 0.0000 ( 22119 PWs)   bands (ev):

    -8.4321  -7.7288  -7.6186  -7.2053  -6.9863  -6.7697  -6.6674  -6.4575
    -6.2528  -6.0182  -6.0041  -5.7558  -5.7154  -5.6886  -5.4365  -5.3520
    -5.3313  -5.2349  -5.2104  -5.1957  -5.1607  -5.1394  -4.9793  -4.9481
    -4.8766  -4.6468  -4.4504  -3.7887  -2.5024  -2.2177  -0.5328  -0.2227
     0.4805   0.8281

     the Fermi energy is    -3.7636 ev

!    total energy              =    -329.48837636 Ry
     Harris-Foulkes estimate   =    -329.48837640 Ry
     estimated scf accuracy    <          8.8E-09 Ry

     The total energy is the sum of the following terms:

     one-electron contribution =    -608.66578322 Ry
     hartree contribution      =     325.78251008 Ry
     xc contribution           =     -51.40351407 Ry
     ewald contribution        =       4.80101518 Ry
     smearing contrib. (-TS)   =      -0.00260433 Ry

     convergence has been achieved in  12 iterations

     Forces acting on atoms (Ry/au):

     atom    1 type  1   force =    -0.00205886   -0.00258048    0.00189385
     atom    2 type  1   force =    -0.00174930   -0.00035500   -0.00760396
     atom    3 type  1   force =    -0.00007034    0.00389083    0.00749150
     atom    4 type  1   force =    -0.00001269   -0.00140263    0.00002129
     atom    5 type  1   force =     0.00389119    0.00044729   -0.00180269

     Total force =     0.012935     Total SCF correction =     0.000303

     BFGS Geometry Optimization

     number of scf cycles    =   1
     number of bfgs steps    =   0

     energy   new            =    -329.4883763589 Ry

     new trust radius        =       0.0084419298 bohr
     new conv_thr            =       0.0000000100 Ry


ATOMIC_POSITIONS (bohr)
Au      -1.906018860   0.925336516  -0.563396145
Au      -0.577299297   2.216921999   4.295179037
Au       3.028727660   1.314405834   0.383470505
Au       4.185257310   3.759818366   5.406883290
Au       7.691171186   1.923206285   2.200130314



     Writing output data file pwscf.save
     Check: negative starting charge=   -0.006446
     NEW-OLD atomic charge density approx. for the potential
     Check: negative starting charge=   -0.006448

     negative rho (up, down):  2.125E-06 0.000E+00

     total cpu time spent up to now is        3.4 secs

     per-process dynamical memory:    42.9 Mb

     Self-consistent Calculation

     iteration #  1     ecut=    30.00 Ry     beta=0.70
     Davidson diagonalization with overlap
     ethr =  1.00E-06,  avg # of iterations =  3.0

     Threshold (ethr) on eigenvalues was too large:
     Diagonalizing with lowered threshold

     Davidson diagonalization with overlap
     ethr =  1.93E-08,  avg # of iterations =  2.0

     total cpu time spent up to now is        3.8 secs

     total energy              =    -329.48853048 Ry
     Harris-Foulkes estimate   =    -329.48853018 Ry
     estimated scf accuracy    <       0.00001121 Ry

     iteration #  2     ecut=    30.00 Ry     beta=0.70
     Davidson diagonalization with overlap
     ethr =  2.04E-08,  avg # of iterations =  3.0

     total cpu time spent up to now is        4.1 secs

     total energy              =    -329.48852963 Ry
     Harris-Foulkes estimate   =    -329.48853856 Ry
     estimated scf accuracy    <       0.00002151 Ry

     iteration #  3     ecut=    30.00 Ry     beta=0.70
     Davidson diagonalization with overlap
     ethr =  2.04E-08,  avg # of iterations =  2.0

     total cpu time spent up to now is        4.3 secs

     total energy              =    -329.48853505 Ry
     Harris-Foulkes estimate   =    -329.48853555 Ry
     estimated scf accuracy    <       0.00000443 Ry

     iteration #  4     ecut=    30.00 Ry     beta=0.70
     Davidson diagonalization with overlap
     ethr =  8.05E-09,  avg # of iterations =  2.0

     total cpu time spent up to now is        4.5 secs

     total energy              =    -329.48853575 Ry
     Harris-Foulkes estimate   =    -329.48853600 Ry
     estimated scf accuracy    <       0.00000041 Ry

     iteration #  5     ecut=    30.00 Ry     beta=0.70
     Davidson diagonalization with overlap
     ethr =  7.38E-10,  avg # of iterations =  3.0

     total cpu time spent up to now is        4.7 secs

     total energy              =    -329.48853586 Ry
     Harris-Foulkes estimate   =    -329.48853588 Ry
     estimated scf accuracy    <       0.00000010 Ry

     iteration #  6     ecut=    30.00 Ry     beta=0.70
     Davidson diagonalization with overlap
     ethr =  1.73E-10,  avg # of iterations =  2.0

     total cpu time spent up to now is        4.9 secs

     End of self-consistent calculation

          k = 0.0000 0.0000 0.0000 ( 22119 PWs)   bands (ev):

    -8.4378  -7.7350  -7.6223  -7.2099  -6.9860  -6.7720  -6.6696  -6.4618
    -6.2547  -6.0191  -6.0065  -5.7559  -5.7166  -5.6905  -5.4364  -5.3578
    -5.3319  -5.2346  -5.2121  -5.1952  -5.1619  -5.1383  -4.9823  -4.9492
    -4.8763  -4.6462  -4.4532  -3.7855  -2.5043  -2.2163  -0.5342  -0.2202
     0.4811   0.8274

     the Fermi energy is    -3.7595 ev

!    total energy              =    -329.48853587 Ry
     Harris-Foulkes estimate   =    -329.48853588 Ry
     estimated scf accuracy    <          9.0E-09 Ry

     The total energy is the sum of the following terms:

     one-electron contribution =    -608.89670333 Ry
     hartree contribution      =     325.89481169 Ry
     xc contribution           =     -51.40372018 Ry
     ewald contribution        =       4.91989147 Ry
     smearing contrib. (-TS)   =      -0.00281552 Ry

     convergence has been achieved in   6 iterations

     Forces acting on atoms (Ry/au):

     atom    1 type  1   force =    -0.00180778   -0.00263519    0.00133607
     atom    2 type  1   force =    -0.00159616   -0.00000723   -0.00670767
     atom    3 type  1   force =    -0.00003636    0.00364697    0.00694091
     atom    4 type  1   force =    -0.00014564   -0.00148118    0.00010169
     atom    5 type  1   force =     0.00358594    0.00047663   -0.00167100

     Total force =     0.011795     Total SCF correction =     0.000284

     number of scf cycles    =   2
     number of bfgs steps    =   1

     energy   old            =    -329.4883763589 Ry
     energy   new            =    -329.4885358748 Ry

     CASE: energy  _new < energy  _old


     WARNING: bfgs curvature condition failed, Theta= 0.879
     new trust radius        =       0.0092861228 bohr
     new conv_thr            =       0.0000000002 Ry


ATOMIC_POSITIONS (bohr)
Au      -1.908188524   0.922280924  -0.561697844
Au      -0.579197525   2.216825030   4.287137608
Au       3.028676659   1.318715984   0.391695593
Au       4.185121516   3.758113058   5.406981268
Au       7.695425873   1.923754004   2.198150374



     Writing output data file pwscf.save
     Check: negative starting charge=   -0.006448
     NEW-OLD atomic charge density approx. for the potential
     Check: negative starting charge=   -0.006449

     negative rho (up, down):  3.167E-06 0.000E+00

     total cpu time spent up to now is        5.1 secs

     per-process dynamical memory:    50.5 Mb

     Self-consistent Calculation

     iteration #  1     ecut=    30.00 Ry     beta=0.70
     Davidson diagonalization with overlap
     ethr =  1.00E-06,  avg # of iterations =  4.0

     Threshold (ethr) on eigenvalues was too large:
     Diagonalizing with lowered threshold

     Davidson diagonalization with overlap
     ethr =  2.40E-08,  avg # of iterations =  2.0

     total cpu time spent up to now is        5.6 secs

     total energy              =    -329.48868659 Ry
     Harris-Foulkes estimate   =    -329.48868730 Ry
     estimated scf accuracy    <       0.00001384 Ry

     iteration #  2     ecut=    30.00 Ry     beta=0.70
     Davidson diagonalization with overlap
     ethr =  2.52E-08,  avg # of iterations =  2.0

     total cpu time spent up to now is        5.8 secs

     total energy              =    -329.48868572 Ry
     Harris-Foulkes estimate   =    -329.48869672 Ry
     estimated scf accuracy    <       0.00002686 Ry

     iteration #  3     ecut=    30.00 Ry     beta=0.70
     Davidson diagonalization with overlap
     ethr =  2.52E-08,  avg # of iterations =  2.0

     total cpu time spent up to now is        6.0 secs

     total energy              =    -329.48869179 Ry
     Harris-Foulkes estimate   =    -329.48869307 Ry
     estimated scf accuracy    <       0.00000543 Ry

     iteration #  4     ecut=    30.00 Ry     beta=0.70
     Davidson diagonalization with overlap
     ethr =  9.88E-09,  avg # of iterations =  2.0

     total cpu time spent up to now is        6.2 secs

     total energy              =    -329.48869322 Ry
     Harris-Foulkes estimate   =    -329.48869292 Ry
     estimated scf accuracy    <       0.00000040 Ry

     iteration #  5     ecut=    30.00 Ry     beta=0.70
     Davidson diagonalization with overlap
     ethr =  7.33E-10,  avg # of iterations =  2.0

     total cpu time spent up to now is        6.4 secs

     total energy              =    -329.48869334 Ry
     Harris-Foulkes estimate   =    -329.48869334 Ry
     estimated scf accuracy    <       0.00000006 Ry

     iteration #  6     ecut=    30.00 Ry     beta=0.70
     Davidson diagonalization with overlap
     ethr =  1.12E-10,  avg # of iterations =  2.0

     total cpu time spent up to now is        6.6 secs

     total energy              =    -329.48869332 Ry
     Harris-Foulkes estimate   =    -329.48869336 Ry
     estimated scf accuracy    <          6.5E-09 Ry

     iteration #  7     ecut=    30.00 Ry     beta=0.70
     Davidson diagonalization with overlap
     ethr =  1.18E-11,  avg # of iterations =  2.0

     total cpu time spent up to now is        6.9 secs

     total energy              =    -329.48869332 Ry
     Harris-Foulkes estimate   =    -329.48869332 Ry
     estimated scf accuracy    <          1.6E-09 Ry

     iteration #  8     ecut=    30.00 Ry     beta=0.70
     Davidson diagonalization with overlap
     ethr =  2.95E-12,  avg # of iterations =  2.0

     total cpu time spent up to now is        7.1 secs

     total energy              =    -329.48869334 Ry
     Harris-Foulkes estimate   =    -329.48869332 Ry
     estimated scf accuracy    <          2.5E-10 Ry

     iteration #  9     ecut=    30.00 Ry     beta=0.70
     Davidson diagonalization with overlap
     ethr =  4.59E-13,  avg # of iterations =  2.0

     total cpu time spent up to now is        7.3 secs

     End of self-consistent calculation

          k = 0.0000 0.0000 0.0000 ( 22119 PWs)   bands (ev):

    -8.4438  -7.7415  -7.6264  -7.2153  -6.9857  -6.7742  -6.6714  -6.4666
    -6.2571  -6.0197  -6.0090  -5.7557  -5.7176  -5.6923  -5.4359  -5.3648
    -5.3318  -5.2343  -5.2141  -5.1947  -5.1629  -5.1372  -4.9850  -4.9504
    -4.8760  -4.6457  -4.4563  -3.7824  -2.5062  -2.2148  -0.5358  -0.2174
     0.4816   0.8268

     the Fermi energy is    -3.7554 ev

!    total energy              =    -329.48869334 Ry
     Harris-Foulkes estimate   =    -329.48869334 Ry
     estimated scf accuracy    <          4.4E-11 Ry

     The total energy is the sum of the following terms:

     one-electron contribution =    -609.13855632 Ry
     hartree contribution      =     326.01239377 Ry
     xc contribution           =     -51.40390763 Ry
     ewald contribution        =       5.04440705 Ry
     smearing contrib. (-TS)   =      -0.00303020 Ry

     convergence has been achieved in   9 iterations

     Forces acting on atoms (Ry/au):

     atom    1 type  1   force =    -0.00152112   -0.00265101    0.00081813
     atom    2 type  1   force =    -0.00151548    0.00034965   -0.00579341
     atom    3 type  1   force =     0.00000799    0.00338222    0.00635194
     atom    4 type  1   force =    -0.00023342   -0.00159279    0.00019529
     atom    5 type  1   force =     0.00326202    0.00051193   -0.00157195

     Total force =     0.010667     Total SCF correction =     0.000027

     number of scf cycles    =   3
     number of bfgs steps    =   2

     energy   old            =    -329.4885358748 Ry
     energy   new            =    -329.4886933353 Ry

     CASE: energy  _new < energy  _old

     new trust radius        =       0.0139291841 bohr
     new conv_thr            =       0.0000000002 Ry


ATOMIC_POSITIONS (bohr)
Au      -1.911227790   0.917337078  -0.559783039
Au      -0.582125833   2.217233407   4.275638569
Au       3.028664722   1.325235700   0.404004750
Au       4.184764171   3.755191262   5.407287059
Au       7.701762730   1.924691553   2.195119661



     Writing output data file pwscf.save
     Check: negative starting charge=   -0.006449
     NEW-OLD atomic charge density approx. for the potential
     Check: negative starting charge=   -0.006450

     negative rho (up, down):  1.660E-05 0.000E+00

     total cpu time spent up to now is        7.5 secs

     per-process dynamical memory:    50.5 Mb

     Self-consistent Calculation

     iteration #  1     ecut=    30.00 Ry     beta=0.70
     Davidson diagonalization with overlap
     ethr =  1.00E-06,  avg # of iterations =  4.0

     Threshold (ethr) on eigenvalues was too large:
     Diagonalizing with lowered threshold

     Davidson diagonalization with overlap
     ethr =  5.29E-08,  avg # of iterations =  1.0

     negative rho (up, down):  1.978E-08 0.000E+00

     total cpu time spent up to now is        8.0 secs

     total energy              =    -329.48888365 Ry
     Harris-Foulkes estimate   =    -329.48888872 Ry
     estimated scf accuracy    <       0.00002942 Ry

     iteration #  2     ecut=    30.00 Ry     beta=0.70
     Davidson diagonalization with overlap
     ethr =  5.35E-08,  avg # of iterations =  3.0

     total cpu time spent up to now is        8.3 secs

     total energy              =    -329.48888275 Ry
     Harris-Foulkes estimate   =    -329.48890320 Ry
     estimated scf accuracy    <       0.00004792 Ry

     iteration #  3     ecut=    30.00 Ry     beta=0.70
     Davidson diagonalization with overlap
     ethr =  5.35E-08,  avg # of iterations =  2.0

     total cpu time spent up to now is        8.5 secs

     total energy              =    -329.48889383 Ry
     Harris-Foulkes estimate   =    -329.48889692 Ry
     estimated scf accuracy    <       0.00001225 Ry

     iteration #  4     ecut=    30.00 Ry     beta=0.70
     Davidson diagonalization with overlap
     ethr =  2.23E-08,  avg # of iterations =  2.0

     total cpu time spent up to now is        8.7 secs

     total energy              =    -329.48889660 Ry
     Harris-Foulkes estimate   =    -329.48889640 Ry
     estimated scf accuracy    <       0.00000098 Ry

     iteration #  5     ecut=    30.00 Ry     beta=0.70
     Davidson diagonalization with overlap
     ethr =  1.78E-09,  avg # of iterations =  2.0

     total cpu time spent up to now is        8.9 secs

     total energy              =    -329.48889668 Ry
     Harris-Foulkes estimate   =    -329.48889690 Ry
     estimated scf accuracy    <       0.00000020 Ry

     iteration #  6     ecut=    30.00 Ry     beta=0.70
     Davidson diagonalization with overlap
     ethr =  3.66E-10,  avg # of iterations =  2.0

     total cpu time spent up to now is        9.1 secs

     total energy              =    -329.48889679 Ry
     Harris-Foulkes estimate   =    -329.48889673 Ry
     estimated scf accuracy    <       0.00000002 Ry

     iteration #  7     ecut=    30.00 Ry     beta=0.70
     Davidson diagonalization with overlap
     ethr =  4.51E-11,  avg # of iterations =  2.0

     total cpu time spent up to now is        9.3 secs

     total energy              =    -329.48889685 Ry
     Harris-Foulkes estimate   =    -329.48889680 Ry
     estimated scf accuracy    <          5.5E-09 Ry

     iteration #  8     ecut=    30.00 Ry     beta=0.70
     Davidson diagonalization with overlap
     ethr =  1.00E-11,  avg # of iterations =  2.0

     total cpu time spent up to now is        9.6 secs

     total energy              =    -329.48889685 Ry
     Harris-Foulkes estimate   =    -329.48889685 Ry
     estimated scf accuracy    <          1.0E-09 Ry

     iteration #  9     ecut=    30.00 Ry     beta=0.70
     Davidson diagonalization with overlap
     ethr =  1.90E-12,  avg # of iterations =  2.0

     total cpu time spent up to now is        9.8 secs

     total energy              =    -329.48889687 Ry
     Harris-Foulkes estimate   =    -329.48889685 Ry
     estimated scf accuracy    <          3.2E-10 Ry

     iteration # 10     ecut=    30.00 Ry     beta=0.70
     Davidson diagonalization with overlap
     ethr =  5.90E-13,  avg # of iterations =  2.0

     total cpu time spent up to now is       10.0 secs

     End of self-consistent calculation

          k = 0.0000 0.0000 0.0000 ( 22119 PWs)   bands (ev):

    -8.4525  -7.7508  -7.6325  -7.2231  -6.9846  -6.7775  -6.6728  -6.4735
    -6.2607  -6.0201  -6.0124  -5.7555  -5.7189  -5.6947  -5.4350  -5.3753
    -5.3312  -5.2336  -5.2170  -5.1940  -5.1641  -5.1354  -4.9890  -4.9518
    -4.8752  -4.6452  -4.4606  -3.7781  -2.5087  -2.2126  -0.5381  -0.2134
     0.4824   0.8262

     the Fermi energy is    -3.7497 ev

!    total energy              =    -329.48889687 Ry
     Harris-Foulkes estimate   =    -329.48889687 Ry
     estimated scf accuracy    <          2.2E-11 Ry

     The total energy is the sum of the following terms:

     one-electron contribution =    -609.47857492 Ry
     hartree contribution      =     326.17770584 Ry
     xc contribution           =     -51.40420899 Ry
     ewald contribution        =       5.21950219 Ry
     smearing contrib. (-TS)   =      -0.00332099 Ry

     convergence has been achieved in  10 iterations

     Forces acting on atoms (Ry/au):

     atom    1 type  1   force =    -0.00105220   -0.00261318    0.00005769
     atom    2 type  1   force =    -0.00146178    0.00082380   -0.00439850
     atom    3 type  1   force =     0.00004692    0.00294507    0.00550997
     atom    4 type  1   force =    -0.00031323   -0.00172698    0.00029393
     atom    5 type  1   force =     0.00278029    0.00057129   -0.00146308

     Total force =     0.009083     Total SCF correction =     0.000024

     number of scf cycles    =   4
     number of bfgs steps    =   3

     energy   old            =    -329.4886933353 Ry
     energy   new            =    -329.4888968700 Ry

     CASE: energy  _new < energy  _old

     new trust radius        =       0.0208937762 bohr
     new conv_thr            =       0.0000000002 Ry


ATOMIC_POSITIONS (bohr)
Au      -1.915350806   0.909426714  -0.557956587
Au      -0.586761669   2.218677882   4.259406662
Au       3.028709417   1.335025510   0.422463013
Au       4.184056431   3.750256332   5.407943062
Au       7.711184626   1.926302562   2.190410849



     Writing output data file pwscf.save
     Check: negative starting charge=   -0.006450
     NEW-OLD atomic charge density approx. for the potential
     Check: negative starting charge=   -0.006452

     negative rho (up, down):  6.134E-05 0.000E+00

     total cpu time spent up to now is       10.2 secs

     per-process dynamical memory:    50.5 Mb

     Self-consistent Calculation

     iteration #  1     ecut=    30.00 Ry     beta=0.70
     Davidson diagonalization with overlap
     ethr =  1.00E-06,  avg # of iterations =  4.0

     negative rho (up, down):  3.284E-07 0.000E+00

     total cpu time spent up to now is       10.6 secs

     total energy              =    -329.48910963 Ry
     Harris-Foulkes estimate   =    -329.48912055 Ry
     estimated scf accuracy    <       0.00006604 Ry

     iteration #  2     ecut=    30.00 Ry     beta=0.70
     Davidson diagonalization with overlap
     ethr =  1.20E-07,  avg # of iterations =  2.0

     negative rho (up, down):  2.681E-08 0.000E+00

     total cpu time spent up to now is       10.8 secs

     total energy              =    -329.48910874 Ry
     Harris-Foulkes estimate   =    -329.48915293 Ry
     estimated scf accuracy    <       0.00009969 Ry

     iteration #  3     ecut=    30.00 Ry     beta=0.70
     Davidson diagonalization with overlap
     ethr =  1.20E-07,  avg # of iterations =  2.0

     total cpu time spent up to now is       11.0 secs

     total energy              =    -329.48913057 Ry
     Harris-Foulkes estimate   =    -329.48913882 Ry
     estimated scf accuracy    <       0.00002684 Ry

     iteration #  4     ecut=    30.00 Ry     beta=0.70
     Davidson diagonalization with overlap
     ethr =  4.88E-08,  avg # of iterations =  2.0

     total cpu time spent up to now is       11.2 secs

     total energy              =    -329.48913648 Ry
     Harris-Foulkes estimate   =    -329.48913626 Ry
     estimated scf accuracy    <       0.00000216 Ry

     iteration #  5     ecut=    30.00 Ry     beta=0.70
     Davidson diagonalization with overlap
     ethr =  3.93E-09,  avg # of iterations =  2.0

     total cpu time spent up to now is       11.5 secs

     total energy              =    -329.48913684 Ry
     Harris-Foulkes estimate   =    -329.48913715 Ry
     estimated scf accuracy    <       0.00000050 Ry

     iteration #  6     ecut=    30.00 Ry     beta=0.70
     Davidson diagonalization with overlap
     ethr =  9.11E-10,  avg # of iterations =  2.0

     total cpu time spent up to now is       11.7 secs

     total energy              =    -329.48913701 Ry
     Harris-Foulkes estimate   =    -329.48913696 Ry
     estimated scf accuracy    <       0.00000006 Ry

     iteration #  7     ecut=    30.00 Ry     beta=0.70
     Davidson diagonalization with overlap
     ethr =  1.09E-10,  avg # of iterations =  2.0

     total cpu time spent up to now is       11.9 secs

     total energy              =    -329.48913696 Ry
     Harris-Foulkes estimate   =    -329.48913703 Ry
     estimated scf accuracy    <       0.00000001 Ry

     iteration #  8     ecut=    30.00 Ry     beta=0.70
     Davidson diagonalization with overlap
     ethr =  2.24E-11,  avg # of iterations =  2.0

     total cpu time spent up to now is       12.1 secs

     total energy              =    -329.48913696 Ry
     Harris-Foulkes estimate   =    -329.48913697 Ry
     estimated scf accuracy    <          2.5E-09 Ry

     iteration #  9     ecut=    30.00 Ry     beta=0.70
     Davidson diagonalization with overlap
     ethr =  4.46E-12,  avg # of iterations =  2.0

     total cpu time spent up to now is       12.3 secs

     total energy              =    -329.48913694 Ry
     Harris-Foulkes estimate   =    -329.48913696 Ry
     estimated scf accuracy    <          6.7E-10 Ry

     iteration # 10     ecut=    30.00 Ry     beta=0.70
     Davidson diagonalization with overlap
     ethr =  1.22E-12,  avg # of iterations =  2.0

     total cpu time spent up to now is       12.5 secs

     End of self-consistent calculation

          k = 0.0000 0.0000 0.0000 ( 22119 PWs)   bands (ev):

    -8.4652  -7.7641  -7.6419  -7.2349  -6.9819  -6.7824  -6.6729  -6.4836
    -6.2663  -6.0217  -6.0152  -5.7553  -5.7206  -5.6976  -5.4329  -5.3909
    -5.3297  -5.2323  -5.2213  -5.1929  -5.1654  -5.1328  -4.9945  -4.9534
    -4.8735  -4.6449  -4.4667  -3.7724  -2.5121  -2.2096  -0.5414  -0.2076
     0.4836   0.8257

     the Fermi energy is    -3.7423 ev

!    total energy              =    -329.48913694 Ry
     Harris-Foulkes estimate   =    -329.48913694 Ry
     estimated scf accuracy    <          3.9E-11 Ry

     The total energy is the sum of the following terms:

     one-electron contribution =    -609.94970455 Ry
     hartree contribution      =     326.40693141 Ry
     xc contribution           =     -51.40472197 Ry
     ewald contribution        =       5.46206248 Ry
     smearing contrib. (-TS)   =      -0.00370432 Ry

     convergence has been achieved in  10 iterations

     Forces acting on atoms (Ry/au):

     atom    1 type  1   force =    -0.00032451   -0.00245228   -0.00100590
     atom    2 type  1   force =    -0.00155342    0.00145607   -0.00222610
     atom    3 type  1   force =     0.00010137    0.00222590    0.00425538
     atom    4 type  1   force =    -0.00034747   -0.00191239    0.00038624
     atom    5 type  1   force =     0.00212404    0.00068269   -0.00140963

     Total force =     0.007112     Total SCF correction =     0.000031

     number of scf cycles    =   5
     number of bfgs steps    =   4

     energy   old            =    -329.4888968700 Ry
     energy   new            =    -329.4891369404 Ry

     CASE: energy  _new < energy  _old

     new trust radius        =       0.0313406643 bohr
     new conv_thr            =       0.0000000002 Ry


ATOMIC_POSITIONS (bohr)
Au      -1.920661145   0.896793964  -0.557073796
Au      -0.594519694   2.222294057   4.237130243
Au       3.028889390   1.349628900   0.450192886
Au       4.182826257   3.741814253   5.409201137
Au       7.725303192   1.929157825   2.182816530



     Writing output data file pwscf.save
     Check: negative starting charge=   -0.006452
     NEW-OLD atomic charge density approx. for the potential
     Check: negative starting charge=   -0.006455

     negative rho (up, down):  1.762E-04 0.000E+00

     total cpu time spent up to now is       12.7 secs

     per-process dynamical memory:    50.6 Mb

     Self-consistent Calculation

     iteration #  1     ecut=    30.00 Ry     beta=0.70
     Davidson diagonalization with overlap
     ethr =  1.00E-06,  avg # of iterations =  4.0

     negative rho (up, down):  2.753E-06 0.000E+00

     total cpu time spent up to now is       13.1 secs

     total energy              =    -329.48930559 Ry
     Harris-Foulkes estimate   =    -329.48931871 Ry
     estimated scf accuracy    <       0.00014960 Ry

     iteration #  2     ecut=    30.00 Ry     beta=0.70
     Davidson diagonalization with overlap
     ethr =  2.72E-07,  avg # of iterations =  2.0

     negative rho (up, down):  3.647E-07 0.000E+00

     total cpu time spent up to now is       13.3 secs

     total energy              =    -329.48930625 Ry
     Harris-Foulkes estimate   =    -329.48940265 Ry
     estimated scf accuracy    <       0.00021214 Ry

     iteration #  3     ecut=    30.00 Ry     beta=0.70
     Davidson diagonalization with overlap
     ethr =  2.72E-07,  avg # of iterations =  2.0

     total cpu time spent up to now is       13.5 secs

     total energy              =    -329.48935134 Ry
     Harris-Foulkes estimate   =    -329.48937101 Ry
     estimated scf accuracy    <       0.00005866 Ry

     iteration #  4     ecut=    30.00 Ry     beta=0.70
     Davidson diagonalization with overlap
     ethr =  1.07E-07,  avg # of iterations =  2.0

     total cpu time spent up to now is       13.7 secs

     total energy              =    -329.48936329 Ry
     Harris-Foulkes estimate   =    -329.48936395 Ry
     estimated scf accuracy    <       0.00000479 Ry

     iteration #  5     ecut=    30.00 Ry     beta=0.70
     Davidson diagonalization with overlap
     ethr =  8.71E-09,  avg # of iterations =  2.0

     total cpu time spent up to now is       13.9 secs

     total energy              =    -329.48936440 Ry
     Harris-Foulkes estimate   =    -329.48936476 Ry
     estimated scf accuracy    <       0.00000121 Ry

     iteration #  6     ecut=    30.00 Ry     beta=0.70
     Davidson diagonalization with overlap
     ethr =  2.20E-09,  avg # of iterations =  2.0

     total cpu time spent up to now is       14.1 secs

     total energy              =    -329.48936453 Ry
     Harris-Foulkes estimate   =    -329.48936469 Ry
     estimated scf accuracy    <       0.00000013 Ry

     iteration #  7     ecut=    30.00 Ry     beta=0.70
     Davidson diagonalization with overlap
     ethr =  2.40E-10,  avg # of iterations =  2.0

     total cpu time spent up to now is       14.4 secs

     total energy              =    -329.48936463 Ry
     Harris-Foulkes estimate   =    -329.48936457 Ry
     estimated scf accuracy    <       0.00000003 Ry

     iteration #  8     ecut=    30.00 Ry     beta=0.70
     Davidson diagonalization with overlap
     ethr =  4.68E-11,  avg # of iterations =  2.0

     total cpu time spent up to now is       14.6 secs

     total energy              =    -329.48936472 Ry
     Harris-Foulkes estimate   =    -329.48936463 Ry
     estimated scf accuracy    <          5.6E-09 Ry

     iteration #  9     ecut=    30.00 Ry     beta=0.70
     Davidson diagonalization with overlap
     ethr =  1.01E-11,  avg # of iterations =  2.0

     total cpu time spent up to now is       14.8 secs

     total energy              =    -329.48936472 Ry
     Harris-Foulkes estimate   =    -329.48936472 Ry
     estimated scf accuracy    <          1.3E-09 Ry

     iteration # 10     ecut=    30.00 Ry     beta=0.70
     Davidson diagonalization with overlap
     ethr =  2.28E-12,  avg # of iterations =  2.0

     total cpu time spent up to now is       15.0 secs

     End of self-consistent calculation

          k = 0.0000 0.0000 0.0000 ( 22119 PWs)   bands (ev):

    -8.4833  -7.7825  -7.6564  -7.2516  -6.9752  -6.7893  -6.6699  -6.4984
    -6.2745  -6.0297  -6.0118  -5.7557  -5.7226  -5.7001  -5.4288  -5.4130
    -5.3270  -5.2308  -5.2267  -5.1914  -5.1666  -5.1288  -5.0017  -4.9549
    -4.8699  -4.6454  -4.4751  -3.7651  -2.5161  -2.2057  -0.5463  -0.1992
     0.4855   0.8257

     the Fermi energy is    -3.7330 ev

!    total energy              =    -329.48936472 Ry
     Harris-Foulkes estimate   =    -329.48936472 Ry
     estimated scf accuracy    <          9.1E-11 Ry

     The total energy is the sum of the following terms:

     one-electron contribution =    -610.57028818 Ry
     hartree contribution      =     326.70911396 Ry
     xc contribution           =     -51.40553818 Ry
     ewald contribution        =       5.78153283 Ry
     smearing contrib. (-TS)   =      -0.00418514 Ry

     convergence has been achieved in  10 iterations

     Forces acting on atoms (Ry/au):

     atom    1 type  1   force =     0.00077639   -0.00211579   -0.00232122
     atom    2 type  1   force =    -0.00204307    0.00234736    0.00108465
     atom    3 type  1   force =     0.00015398    0.00098097    0.00208367
     atom    4 type  1   force =    -0.00025932   -0.00214721    0.00054136
     atom    5 type  1   force =     0.00137201    0.00093467   -0.00138846

     Total force =     0.006026     Total SCF correction =     0.000050

     number of scf cycles    =   6
     number of bfgs steps    =   5

     energy   old            =    -329.4891369404 Ry
     energy   new            =    -329.4893647193 Ry

     CASE: energy  _new < energy  _old

     new trust radius        =       0.0315760279 bohr
     new conv_thr            =       0.0000000002 Ry


ATOMIC_POSITIONS (bohr)
Au      -1.924432048   0.882521993  -0.559191393
Au      -0.604680870   2.228675044   4.218294263
Au       3.029236063   1.364168886   0.478219912
Au       4.181497674   3.731234818   5.411051126
Au       7.740217181   1.933088260   2.173893091



     Writing output data file pwscf.save
     Check: negative starting charge=   -0.006455
     NEW-OLD atomic charge density approx. for the potential
     Check: negative starting charge=   -0.006460

     negative rho (up, down):  1.865E-04 0.000E+00

     total cpu time spent up to now is       15.2 secs

     per-process dynamical memory:    50.7 Mb

     Self-consistent Calculation

     iteration #  1     ecut=    30.00 Ry     beta=0.70
     Davidson diagonalization with overlap
     ethr =  1.00E-06,  avg # of iterations =  4.0

     negative rho (up, down):  3.018E-06 0.000E+00

     total cpu time spent up to now is       15.5 secs

     total energy              =    -329.48940564 Ry
     Harris-Foulkes estimate   =    -329.48942392 Ry
     estimated scf accuracy    <       0.00016329 Ry

     iteration #  2     ecut=    30.00 Ry     beta=0.70
     Davidson diagonalization with overlap
     ethr =  2.97E-07,  avg # of iterations =  2.0

     negative rho (up, down):  3.693E-07 0.000E+00

     total cpu time spent up to now is       15.8 secs

     total energy              =    -329.48941234 Ry
     Harris-Foulkes estimate   =    -329.48950879 Ry
     estimated scf accuracy    <       0.00020896 Ry

     iteration #  3     ecut=    30.00 Ry     beta=0.70
     Davidson diagonalization with overlap
     ethr =  2.97E-07,  avg # of iterations =  2.0

     negative rho (up, down):  1.088E-08 0.000E+00

     total cpu time spent up to now is       16.0 secs

     total energy              =    -329.48945616 Ry
     Harris-Foulkes estimate   =    -329.48947720 Ry
     estimated scf accuracy    <       0.00006078 Ry

     iteration #  4     ecut=    30.00 Ry     beta=0.70
     Davidson diagonalization with overlap
     ethr =  1.11E-07,  avg # of iterations =  2.0

     total cpu time spent up to now is       16.2 secs

     total energy              =    -329.48946827 Ry
     Harris-Foulkes estimate   =    -329.48946944 Ry
     estimated scf accuracy    <       0.00000498 Ry

     iteration #  5     ecut=    30.00 Ry     beta=0.70
     Davidson diagonalization with overlap
     ethr =  9.06E-09,  avg # of iterations =  3.0

     total cpu time spent up to now is       16.4 secs

     total energy              =    -329.48946926 Ry
     Harris-Foulkes estimate   =    -329.48946980 Ry
     estimated scf accuracy    <       0.00000131 Ry

     iteration #  6     ecut=    30.00 Ry     beta=0.70
     Davidson diagonalization with overlap
     ethr =  2.38E-09,  avg # of iterations =  2.0

     total cpu time spent up to now is       16.6 secs

     total energy              =    -329.48946973 Ry
     Harris-Foulkes estimate   =    -329.48946956 Ry
     estimated scf accuracy    <       0.00000014 Ry

     iteration #  7     ecut=    30.00 Ry     beta=0.70
     Davidson diagonalization with overlap
     ethr =  2.52E-10,  avg # of iterations =  2.0

     total cpu time spent up to now is       16.8 secs

     total energy              =    -329.48946971 Ry
     Harris-Foulkes estimate   =    -329.48946977 Ry
     estimated scf accuracy    <       0.00000002 Ry

     iteration #  8     ecut=    30.00 Ry     beta=0.70
     Davidson diagonalization with overlap
     ethr =  4.40E-11,  avg # of iterations =  2.0

     total cpu time spent up to now is       17.0 secs

     total energy              =    -329.48946968 Ry
     Harris-Foulkes estimate   =    -329.48946971 Ry
     estimated scf accuracy    <          6.3E-09 Ry

     iteration #  9     ecut=    30.00 Ry     beta=0.70
     Davidson diagonalization with overlap
     ethr =  1.15E-11,  avg # of iterations =  2.0

     total cpu time spent up to now is       17.2 secs

     total energy              =    -329.48946966 Ry
     Harris-Foulkes estimate   =    -329.48946968 Ry
     estimated scf accuracy    <          1.3E-09 Ry

     iteration # 10     ecut=    30.00 Ry     beta=0.70
     Davidson diagonalization with overlap
     ethr =  2.33E-12,  avg # of iterations =  2.0

     total cpu time spent up to now is       17.4 secs

     End of self-consistent calculation

          k = 0.0000 0.0000 0.0000 ( 22119 PWs)   bands (ev):

    -8.4989  -7.7971  -7.6708  -7.2648  -6.9640  -6.7946  -6.6628  -6.5115
    -6.2816  -6.0391  -6.0038  -5.7570  -5.7237  -5.7002  -5.4341  -5.4226
    -5.3242  -5.2353  -5.2255  -5.1901  -5.1669  -5.1251  -5.0077  -4.9557
    -4.8651  -4.6483  -4.4829  -3.7600  -2.5191  -2.2037  -0.5509  -0.1913
     0.4873   0.8268

     the Fermi energy is    -3.7262 ev

!    total energy              =    -329.48946965 Ry
     Harris-Foulkes estimate   =    -329.48946966 Ry
     estimated scf accuracy    <          1.1E-10 Ry

     The total energy is the sum of the following terms:

     one-electron contribution =    -610.99769632 Ry
     hartree contribution      =     326.91683789 Ry
     xc contribution           =     -51.40597175 Ry
     ewald contribution        =       6.00192554 Ry
     smearing contrib. (-TS)   =      -0.00456500 Ry

     convergence has been achieved in  10 iterations

     Forces acting on atoms (Ry/au):

     atom    1 type  1   force =     0.00192130   -0.00180951   -0.00286110
     atom    2 type  1   force =    -0.00263814    0.00322029    0.00377538
     atom    3 type  1   force =    -0.00007618   -0.00043691   -0.00080326
     atom    4 type  1   force =    -0.00002805   -0.00234485    0.00093709
     atom    5 type  1   force =     0.00082107    0.00137098   -0.00104811

     Total force =     0.007590     Total SCF correction =     0.000052

     number of scf cycles    =   7
     number of bfgs steps    =   6

     energy   old            =    -329.4893647193 Ry
     energy   new            =    -329.4894696451 Ry

     CASE: energy  _new < energy  _old

     new trust radius        =       0.0085939484 bohr
     new conv_thr            =       0.0000000001 Ry


ATOMIC_POSITIONS (bohr)
Au      -1.923602381   0.876356253  -0.562565640
Au      -0.610637399   2.233868501   4.216305283
Au       3.029211843   1.368104445   0.485859725
Au       4.181148152   3.725617907   5.412589009
Au       7.745717786   1.935741895   2.170078623



     Writing output data file pwscf.save
     Check: negative starting charge=   -0.006460
     NEW-OLD atomic charge density approx. for the potential
     Check: negative starting charge=   -0.006465

     negative rho (up, down):  7.658E-06 0.000E+00

     total cpu time spent up to now is       17.6 secs

     per-process dynamical memory:    50.7 Mb

     Self-consistent Calculation

     iteration #  1     ecut=    30.00 Ry     beta=0.70
     Davidson diagonalization with overlap
     ethr =  1.00E-06,  avg # of iterations =  4.0

     Threshold (ethr) on eigenvalues was too large:
     Diagonalizing with lowered threshold

     Davidson diagonalization with overlap
     ethr =  4.06E-08,  avg # of iterations =  1.0

     total cpu time spent up to now is       18.1 secs

     total energy              =    -329.48952323 Ry
     Harris-Foulkes estimate   =    -329.48953167 Ry
     estimated scf accuracy    <       0.00002361 Ry

     iteration #  2     ecut=    30.00 Ry     beta=0.70
     Davidson diagonalization with overlap
     ethr =  4.29E-08,  avg # of iterations =  2.0

     total cpu time spent up to now is       18.3 secs

     total energy              =    -329.48952598 Ry
     Harris-Foulkes estimate   =    -329.48953687 Ry
     estimated scf accuracy    <       0.00002218 Ry

     iteration #  3     ecut=    30.00 Ry     beta=0.70
     Davidson diagonalization with overlap
     ethr =  4.03E-08,  avg # of iterations =  2.0

     total cpu time spent up to now is       18.5 secs

     total energy              =    -329.48952998 Ry
     Harris-Foulkes estimate   =    -329.48953273 Ry
     estimated scf accuracy    <       0.00000633 Ry

     iteration #  4     ecut=    30.00 Ry     beta=0.70
     Davidson diagonalization with overlap
     ethr =  1.15E-08,  avg # of iterations =  2.0

     total cpu time spent up to now is       18.7 secs

     total energy              =    -329.48953149 Ry
     Harris-Foulkes estimate   =    -329.48953163 Ry
     estimated scf accuracy    <       0.00000092 Ry

     iteration #  5     ecut=    30.00 Ry     beta=0.70
     Davidson diagonalization with overlap
     ethr =  1.67E-09,  avg # of iterations =  2.0

     total cpu time spent up to now is       18.9 secs

     total energy              =    -329.48953175 Ry
     Harris-Foulkes estimate   =    -329.48953170 Ry
     estimated scf accuracy    <       0.00000013 Ry

     iteration #  6     ecut=    30.00 Ry     beta=0.70
     Davidson diagonalization with overlap
     ethr =  2.33E-10,  avg # of iterations =  2.0

     total cpu time spent up to now is       19.1 secs

     total energy              =    -329.48953174 Ry
     Harris-Foulkes estimate   =    -329.48953178 Ry
     estimated scf accuracy    <       0.00000001 Ry

     iteration #  7     ecut=    30.00 Ry     beta=0.70
     Davidson diagonalization with overlap
     ethr =  2.33E-11,  avg # of iterations =  2.0

     total cpu time spent up to now is       19.3 secs

     total energy              =    -329.48953176 Ry
     Harris-Foulkes estimate   =    -329.48953174 Ry
     estimated scf accuracy    <          2.5E-09 Ry

     iteration #  8     ecut=    30.00 Ry     beta=0.70
     Davidson diagonalization with overlap
     ethr =  4.53E-12,  avg # of iterations =  2.0

     total cpu time spent up to now is       19.6 secs

     total energy              =    -329.48953174 Ry
     Harris-Foulkes estimate   =    -329.48953176 Ry
     estimated scf accuracy    <          7.2E-10 Ry

     iteration #  9     ecut=    30.00 Ry     beta=0.70
     Davidson diagonalization with overlap
     ethr =  1.31E-12,  avg # of iterations =  2.0

     total cpu time spent up to now is       19.8 secs

     total energy              =    -329.48953174 Ry
     Harris-Foulkes estimate   =    -329.48953174 Ry
     estimated scf accuracy    <          1.5E-10 Ry

     iteration # 10     ecut=    30.00 Ry     beta=0.70
     Davidson diagonalization with overlap
     ethr =  2.71E-13,  avg # of iterations =  2.0

     total cpu time spent up to now is       20.0 secs

     End of self-consistent calculation

          k = 0.0000 0.0000 0.0000 ( 22119 PWs)   bands (ev):

    -8.4999  -7.7969  -7.6721  -7.2637  -6.9569  -6.7941  -6.6576  -6.5123
    -6.2819  -6.0417  -5.9991  -5.7572  -5.7235  -5.6993  -5.4386  -5.4200
    -5.3232  -5.2372  -5.2242  -5.1900  -5.1666  -5.1246  -5.0088  -4.9558
    -4.8637  -4.6518  -4.4851  -3.7605  -2.5196  -2.2052  -0.5520  -0.1900
     0.4875   0.8282

     the Fermi energy is    -3.7264 ev

!    total energy              =    -329.48953174 Ry
     Harris-Foulkes estimate   =    -329.48953174 Ry
     estimated scf accuracy    <          1.1E-11 Ry

     The total energy is the sum of the following terms:

     one-electron contribution =    -610.88610162 Ry
     hartree contribution      =     326.86118407 Ry
     xc contribution           =     -51.40530148 Ry
     ewald contribution        =       5.94531365 Ry
     smearing contrib. (-TS)   =      -0.00462637 Ry

     convergence has been achieved in  10 iterations

     Forces acting on atoms (Ry/au):

     atom    1 type  1   force =     0.00231845   -0.00163555   -0.00246964
     atom    2 type  1   force =    -0.00255556    0.00327366    0.00369824
     atom    3 type  1   force =    -0.00024204   -0.00069296   -0.00135699
     atom    4 type  1   force =     0.00001753   -0.00251693    0.00096640
     atom    5 type  1   force =     0.00046162    0.00157178   -0.00083800

     Total force =     0.007623     Total SCF correction =     0.000015

     number of scf cycles    =   8
     number of bfgs steps    =   7

     energy   old            =    -329.4894696451 Ry
     energy   new            =    -329.4895317442 Ry

     CASE: energy  _new < energy  _old


     WARNING: bfgs curvature condition failed, Theta= 0.919
     new trust radius        =       0.0094533433 bohr
     new conv_thr            =            1.0E-10 Ry


ATOMIC_POSITIONS (bohr)
Au      -1.921538444   0.869815277  -0.566752567
Au      -0.617507733   2.240359443   4.216126720
Au       3.029001876   1.371402118   0.492262508
Au       4.180860956   3.719011874   5.414507228
Au       7.751021345   1.939100288   2.166123111



     Writing output data file pwscf.save
     Check: negative starting charge=   -0.006465
     NEW-OLD atomic charge density approx. for the potential
     Check: negative starting charge=   -0.006470

     negative rho (up, down):  9.898E-06 0.000E+00

     total cpu time spent up to now is       20.2 secs

     per-process dynamical memory:    50.7 Mb

     Self-consistent Calculation

     iteration #  1     ecut=    30.00 Ry     beta=0.70
     Davidson diagonalization with overlap
     ethr =  1.00E-06,  avg # of iterations =  4.0

     Threshold (ethr) on eigenvalues was too large:
     Diagonalizing with lowered threshold

     Davidson diagonalization with overlap
     ethr =  4.71E-08,  avg # of iterations =  1.0

     total cpu time spent up to now is       20.6 secs

     total energy              =    -329.48960112 Ry
     Harris-Foulkes estimate   =    -329.48961168 Ry
     estimated scf accuracy    <       0.00002658 Ry

     iteration #  2     ecut=    30.00 Ry     beta=0.70
     Davidson diagonalization with overlap
     ethr =  4.83E-08,  avg # of iterations =  2.0

     total cpu time spent up to now is       20.9 secs

     total energy              =    -329.48960496 Ry
     Harris-Foulkes estimate   =    -329.48961593 Ry
     estimated scf accuracy    <       0.00002209 Ry

     iteration #  3     ecut=    30.00 Ry     beta=0.70
     Davidson diagonalization with overlap
     ethr =  4.02E-08,  avg # of iterations =  2.0

     total cpu time spent up to now is       21.1 secs

     total energy              =    -329.48960914 Ry
     Harris-Foulkes estimate   =    -329.48961135 Ry
     estimated scf accuracy    <       0.00000535 Ry

     iteration #  4     ecut=    30.00 Ry     beta=0.70
     Davidson diagonalization with overlap
     ethr =  9.74E-09,  avg # of iterations =  2.0

     total cpu time spent up to now is       21.3 secs

     total energy              =    -329.48961054 Ry
     Harris-Foulkes estimate   =    -329.48961080 Ry
     estimated scf accuracy    <       0.00000136 Ry

     iteration #  5     ecut=    30.00 Ry     beta=0.70
     Davidson diagonalization with overlap
     ethr =  2.48E-09,  avg # of iterations =  2.0

     total cpu time spent up to now is       21.5 secs

     total energy              =    -329.48961069 Ry
     Harris-Foulkes estimate   =    -329.48961081 Ry
     estimated scf accuracy    <       0.00000011 Ry

     iteration #  6     ecut=    30.00 Ry     beta=0.70
     Davidson diagonalization with overlap
     ethr =  1.96E-10,  avg # of iterations =  3.0

     total cpu time spent up to now is       21.7 secs

     total energy              =    -329.48961064 Ry
     Harris-Foulkes estimate   =    -329.48961072 Ry
     estimated scf accuracy    <       0.00000001 Ry

     iteration #  7     ecut=    30.00 Ry     beta=0.70
     Davidson diagonalization with overlap
     ethr =  2.31E-11,  avg # of iterations =  3.0

     total cpu time spent up to now is       21.9 secs

     total energy              =    -329.48961061 Ry
     Harris-Foulkes estimate   =    -329.48961065 Ry
     estimated scf accuracy    <          2.8E-09 Ry

     iteration #  8     ecut=    30.00 Ry     beta=0.70
     Davidson diagonalization with overlap
     ethr =  5.09E-12,  avg # of iterations =  2.0

     total cpu time spent up to now is       22.1 secs

     total energy              =    -329.48961061 Ry
     Harris-Foulkes estimate   =    -329.48961061 Ry
     estimated scf accuracy    <          5.9E-10 Ry

     iteration #  9     ecut=    30.00 Ry     beta=0.70
     Davidson diagonalization with overlap
     ethr =  1.08E-12,  avg # of iterations =  2.0

     total cpu time spent up to now is       22.4 secs

     total energy              =    -329.48961061 Ry
     Harris-Foulkes estimate   =    -329.48961061 Ry
     estimated scf accuracy    <          1.4E-10 Ry

     iteration # 10     ecut=    30.00 Ry     beta=0.70
     Davidson diagonalization with overlap
     ethr =  2.51E-13,  avg # of iterations =  2.0

     total cpu time spent up to now is       22.6 secs

     End of self-consistent calculation

          k = 0.0000 0.0000 0.0000 ( 22119 PWs)   bands (ev):

    -8.4995  -7.7950  -7.6718  -7.2605  -6.9491  -6.7931  -6.6518  -6.5115
    -6.2815  -6.0441  -5.9939  -5.7574  -5.7233  -5.6984  -5.4419  -5.4171
    -5.3223  -5.2390  -5.2229  -5.1899  -5.1662  -5.1244  -5.0094  -4.9558
    -4.8624  -4.6560  -4.4869  -3.7617  -2.5198  -2.2074  -0.5528  -0.1893
     0.4877   0.8300

     the Fermi energy is    -3.7276 ev

!    total energy              =    -329.48961065 Ry
     Harris-Foulkes estimate   =    -329.48961061 Ry
     estimated scf accuracy    <          8.0E-12 Ry

     The total energy is the sum of the following terms:

     one-electron contribution =    -610.68949830 Ry
     hartree contribution      =     326.76373897 Ry
     xc contribution           =     -51.40437969 Ry
     ewald contribution        =       5.84518775 Ry
     smearing contrib. (-TS)   =      -0.00465938 Ry

     convergence has been achieved in  10 iterations

     Forces acting on atoms (Ry/au):

     atom    1 type  1   force =     0.00262949   -0.00144729   -0.00193342
     atom    2 type  1   force =    -0.00230459    0.00317420    0.00322226
     atom    3 type  1   force =    -0.00037002   -0.00079669   -0.00160916
     atom    4 type  1   force =     0.00001079   -0.00270804    0.00094167
     atom    5 type  1   force =     0.00003433    0.00177782   -0.00062133

     Total force =     0.007324     Total SCF correction =     0.000013

     number of scf cycles    =   9
     number of bfgs steps    =   8

     energy   old            =    -329.4895317442 Ry
     energy   new            =    -329.4896106473 Ry

     CASE: energy  _new < energy  _old

     new trust radius        =       0.0141800149 bohr
     new conv_thr            =            1.0E-10 Ry


ATOMIC_POSITIONS (bohr)
Au      -1.917417178   0.860542514  -0.572813619
Au      -0.627546467   2.250346598   4.216870613
Au       3.028485283   1.375450243   0.500087333
Au       4.180468956   3.708810947   5.417453333
Au       7.757847407   1.944538698   2.160669340



     Writing output data file pwscf.save
     Check: negative starting charge=   -0.006470
     NEW-OLD atomic charge density approx. for the potential
     Check: negative starting charge=   -0.006478

     negative rho (up, down):  3.782E-05 0.000E+00

     total cpu time spent up to now is       22.8 secs

     per-process dynamical memory:    50.7 Mb

     Self-consistent Calculation

     iteration #  1     ecut=    30.00 Ry     beta=0.70
     Davidson diagonalization with overlap
     ethr =  1.00E-06,  avg # of iterations =  4.0

     Threshold (ethr) on eigenvalues was too large:
     Diagonalizing with lowered threshold

     Davidson diagonalization with overlap
     ethr =  9.98E-08,  avg # of iterations =  1.0

     negative rho (up, down):  9.829E-08 0.000E+00

     total cpu time spent up to now is       23.3 secs

     total energy              =    -329.48970397 Ry
     Harris-Foulkes estimate   =    -329.48972486 Ry
     estimated scf accuracy    <       0.00005511 Ry

     iteration #  2     ecut=    30.00 Ry     beta=0.70
     Davidson diagonalization with overlap
     ethr =  1.00E-07,  avg # of iterations =  2.0

     total cpu time spent up to now is       23.5 secs

     total energy              =    -329.48971321 Ry
     Harris-Foulkes estimate   =    -329.48973410 Ry
     estimated scf accuracy    <       0.00004288 Ry

     iteration #  3     ecut=    30.00 Ry     beta=0.70
     Davidson diagonalization with overlap
     ethr =  7.80E-08,  avg # of iterations =  2.0

     total cpu time spent up to now is       23.7 secs

     total energy              =    -329.48972119 Ry
     Harris-Foulkes estimate   =    -329.48972508 Ry
     estimated scf accuracy    <       0.00000871 Ry

     iteration #  4     ecut=    30.00 Ry     beta=0.70
     Davidson diagonalization with overlap
     ethr =  1.58E-08,  avg # of iterations =  2.0

     total cpu time spent up to now is       23.9 secs

     total energy              =    -329.48972336 Ry
     Harris-Foulkes estimate   =    -329.48972438 Ry
     estimated scf accuracy    <       0.00000350 Ry

     iteration #  5     ecut=    30.00 Ry     beta=0.70
     Davidson diagonalization with overlap
     ethr =  6.37E-09,  avg # of iterations =  2.0

     total cpu time spent up to now is       24.1 secs

     total energy              =    -329.48972395 Ry
     Harris-Foulkes estimate   =    -329.48972400 Ry
     estimated scf accuracy    <       0.00000020 Ry

     iteration #  6     ecut=    30.00 Ry     beta=0.70
     Davidson diagonalization with overlap
     ethr =  3.61E-10,  avg # of iterations =  3.0

     total cpu time spent up to now is       24.3 secs

     total energy              =    -329.48972420 Ry
     Harris-Foulkes estimate   =    -329.48972402 Ry
     estimated scf accuracy    <       0.00000002 Ry

     iteration #  7     ecut=    30.00 Ry     beta=0.70
     Davidson diagonalization with overlap
     ethr =  4.39E-11,  avg # of iterations =  3.0

     total cpu time spent up to now is       24.6 secs

     total energy              =    -329.48972416 Ry
     Harris-Foulkes estimate   =    -329.48972420 Ry
     estimated scf accuracy    <          5.6E-09 Ry

     iteration #  8     ecut=    30.00 Ry     beta=0.70
     Davidson diagonalization with overlap
     ethr =  1.02E-11,  avg # of iterations =  2.0

     total cpu time spent up to now is       24.8 secs

     total energy              =    -329.48972416 Ry
     Harris-Foulkes estimate   =    -329.48972416 Ry
     estimated scf accuracy    <          1.1E-09 Ry

     iteration #  9     ecut=    30.00 Ry     beta=0.70
     Davidson diagonalization with overlap
     ethr =  1.95E-12,  avg # of iterations =  2.0

     total cpu time spent up to now is       25.0 secs

     total energy              =    -329.48972420 Ry
     Harris-Foulkes estimate   =    -329.48972416 Ry
     estimated scf accuracy    <          2.7E-10 Ry

     iteration # 10     ecut=    30.00 Ry     beta=0.70
     Davidson diagonalization with overlap
     ethr =  4.89E-13,  avg # of iterations =  2.0

     total cpu time spent up to now is       25.2 secs

     End of self-consistent calculation

          k = 0.0000 0.0000 0.0000 ( 22119 PWs)   bands (ev):

    -8.4985  -7.7916  -7.6706  -7.2550  -6.9383  -6.7917  -6.6438  -6.5097
    -6.2806  -6.0474  -5.9870  -5.7578  -5.7232  -5.6971  -5.4457  -5.4129
    -5.3211  -5.2412  -5.2211  -5.1898  -5.1657  -5.1243  -5.0098  -4.9556
    -4.8607  -4.6623  -4.4891  -3.7639  -2.5197  -2.2106  -0.5540  -0.1888
     0.4879   0.8330

     the Fermi energy is    -3.7296 ev

!    total energy              =    -329.48972420 Ry
     Harris-Foulkes estimate   =    -329.48972420 Ry
     estimated scf accuracy    <          1.4E-11 Ry

     The total energy is the sum of the following terms:

     one-electron contribution =    -610.39644466 Ry
     hartree contribution      =     326.61867731 Ry
     xc contribution           =     -51.40309503 Ry
     ewald contribution        =       5.69582333 Ry
     smearing contrib. (-TS)   =      -0.00468516 Ry

     convergence has been achieved in  10 iterations

     Forces acting on atoms (Ry/au):

     atom    1 type  1   force =     0.00290870   -0.00119443   -0.00119796
     atom    2 type  1   force =    -0.00184220    0.00287663    0.00236496
     atom    3 type  1   force =    -0.00045374   -0.00080087   -0.00172083
     atom    4 type  1   force =    -0.00005193   -0.00292751    0.00087866
     atom    5 type  1   force =    -0.00056082    0.00204617   -0.00032483

     Total force =     0.006808     Total SCF correction =     0.000015

     number of scf cycles    =  10
     number of bfgs steps    =   9

     energy   old            =    -329.4896106473 Ry
     energy   new            =    -329.4897242000 Ry

     CASE: energy  _new < energy  _old

     new trust radius        =       0.0212700223 bohr
     new conv_thr            =       0.0000000001 Ry


ATOMIC_POSITIONS (bohr)
Au      -1.910143712   0.846897661  -0.581454605
Au      -0.642335069   2.265583787   4.218111245
Au       3.027543701   1.381033994   0.510734089
Au       4.179803966   3.692754809   5.421980147
Au       7.766969114   1.953418749   2.152896123



     Writing output data file pwscf.save
     Check: negative starting charge=   -0.006478
     NEW-OLD atomic charge density approx. for the potential
     Check: negative starting charge=   -0.006486

     negative rho (up, down):  1.220E-04 0.000E+00

     total cpu time spent up to now is       25.4 secs

     per-process dynamical memory:    50.7 Mb

     Self-consistent Calculation

     iteration #  1     ecut=    30.00 Ry     beta=0.70
     Davidson diagonalization with overlap
     ethr =  1.00E-06,  avg # of iterations =  4.0

     negative rho (up, down):  1.153E-06 0.000E+00

     total cpu time spent up to now is       25.8 secs

     total energy              =    -329.48982848 Ry
     Harris-Foulkes estimate   =    -329.48986137 Ry
     estimated scf accuracy    <       0.00012318 Ry

     iteration #  2     ecut=    30.00 Ry     beta=0.70
     Davidson diagonalization with overlap
     ethr =  2.24E-07,  avg # of iterations =  2.0

     negative rho (up, down):  5.438E-08 0.000E+00

     total cpu time spent up to now is       26.0 secs

     total energy              =    -329.48985099 Ry
     Harris-Foulkes estimate   =    -329.48989614 Ry
     estimated scf accuracy    <       0.00009238 Ry

     iteration #  3     ecut=    30.00 Ry     beta=0.70
     Davidson diagonalization with overlap
     ethr =  1.68E-07,  avg # of iterations =  2.0

     total cpu time spent up to now is       26.2 secs

     total energy              =    -329.48986849 Ry
     Harris-Foulkes estimate   =    -329.48987556 Ry
     estimated scf accuracy    <       0.00001590 Ry

     iteration #  4     ecut=    30.00 Ry     beta=0.70
     Davidson diagonalization with overlap
     ethr =  2.89E-08,  avg # of iterations =  2.0

     total cpu time spent up to now is       26.4 secs

     total energy              =    -329.48987224 Ry
     Harris-Foulkes estimate   =    -329.48987514 Ry
     estimated scf accuracy    <       0.00000888 Ry

     iteration #  5     ecut=    30.00 Ry     beta=0.70
     Davidson diagonalization with overlap
     ethr =  1.61E-08,  avg # of iterations =  2.0

     total cpu time spent up to now is       26.6 secs

     total energy              =    -329.48987364 Ry
     Harris-Foulkes estimate   =    -329.48987378 Ry
     estimated scf accuracy    <       0.00000037 Ry

     iteration #  6     ecut=    30.00 Ry     beta=0.70
     Davidson diagonalization with overlap
     ethr =  6.68E-10,  avg # of iterations =  3.0

     total cpu time spent up to now is       26.8 secs

     total energy              =    -329.48987353 Ry
     Harris-Foulkes estimate   =    -329.48987378 Ry
     estimated scf accuracy    <       0.00000005 Ry

     iteration #  7     ecut=    30.00 Ry     beta=0.70
     Davidson diagonalization with overlap
     ethr =  9.79E-11,  avg # of iterations =  3.0

     total cpu time spent up to now is       27.1 secs

     total energy              =    -329.48987354 Ry
     Harris-Foulkes estimate   =    -329.48987354 Ry
     estimated scf accuracy    <       0.00000001 Ry

     iteration #  8     ecut=    30.00 Ry     beta=0.70
     Davidson diagonalization with overlap
     ethr =  2.25E-11,  avg # of iterations =  2.0

     total cpu time spent up to now is       27.3 secs

     total energy              =    -329.48987353 Ry
     Harris-Foulkes estimate   =    -329.48987354 Ry
     estimated scf accuracy    <          2.2E-09 Ry

     iteration #  9     ecut=    30.00 Ry     beta=0.70
     Davidson diagonalization with overlap
     ethr =  3.91E-12,  avg # of iterations =  2.0

     total cpu time spent up to now is       27.5 secs

     total energy              =    -329.48987350 Ry
     Harris-Foulkes estimate   =    -329.48987353 Ry
     estimated scf accuracy    <          6.4E-10 Ry

     iteration # 10     ecut=    30.00 Ry     beta=0.70
     Davidson diagonalization with overlap
     ethr =  1.16E-12,  avg # of iterations =  2.0

     total cpu time spent up to now is       27.7 secs

     End of self-consistent calculation

          k = 0.0000 0.0000 0.0000 ( 22119 PWs)   bands (ev):

    -8.4977  -7.7873  -7.6691  -7.2470  -6.9234  -6.7902  -6.6329  -6.5070
    -6.2796  -6.0525  -5.9774  -5.7587  -5.7232  -5.6955  -5.4505  -5.4069
    -5.3196  -5.2442  -5.2186  -5.1896  -5.1653  -5.1243  -5.0099  -4.9552
    -4.8580  -4.6712  -4.4919  -3.7671  -2.5190  -2.2149  -0.5557  -0.1883
     0.4885   0.8377

     the Fermi energy is    -3.7327 ev

!    total energy              =    -329.48987347 Ry
     Harris-Foulkes estimate   =    -329.48987351 Ry
     estimated scf accuracy    <          3.5E-11 Ry

     The total energy is the sum of the following terms:

     one-electron contribution =    -610.00817752 Ry
     hartree contribution      =     326.42653849 Ry
     xc contribution           =     -51.40143680 Ry
     ewald contribution        =       5.49791397 Ry
     smearing contrib. (-TS)   =      -0.00471161 Ry

     convergence has been achieved in  10 iterations

     Forces acting on atoms (Ry/au):

     atom    1 type  1   force =     0.00315135   -0.00086158   -0.00029911
     atom    2 type  1   force =    -0.00128412    0.00233771    0.00119300
     atom    3 type  1   force =    -0.00038524   -0.00069364   -0.00173660
     atom    4 type  1   force =    -0.00014481   -0.00310896    0.00073390
     atom    5 type  1   force =    -0.00133719    0.00232648    0.00010881

     Total force =     0.006355     Total SCF correction =     0.000022

     number of scf cycles    =  11
     number of bfgs steps    =  10

     energy   old            =    -329.4897242000 Ry
     energy   new            =    -329.4898734664 Ry

     CASE: energy  _new < energy  _old

     new trust radius        =       0.0319050335 bohr
     new conv_thr            =       0.0000000001 Ry


ATOMIC_POSITIONS (bohr)
Au      -1.897783769   0.826638997  -0.593768977
Au      -0.664314083   2.288657080   4.219685169
Au       3.026167870   1.389071732   0.525653754
Au       4.178650155   3.667498696   5.428856826
Au       7.779117828   1.967822495   2.141840228



     Writing output data file pwscf.save
     Check: negative starting charge=   -0.006486
     NEW-OLD atomic charge density approx. for the potential
     Check: negative starting charge=   -0.006495

     negative rho (up, down):  3.224E-04 0.000E+00

     total cpu time spent up to now is       27.9 secs

     per-process dynamical memory:    50.7 Mb

     Self-consistent Calculation

     iteration #  1     ecut=    30.00 Ry     beta=0.70
     Davidson diagonalization with overlap
     ethr =  1.00E-06,  avg # of iterations =  4.0

     negative rho (up, down):  7.972E-06 0.000E+00

     total cpu time spent up to now is       28.3 secs

     total energy              =    -329.48994998 Ry
     Harris-Foulkes estimate   =    -329.48996239 Ry
     estimated scf accuracy    <       0.00027945 Ry

     iteration #  2     ecut=    30.00 Ry     beta=0.70
     Davidson diagonalization with overlap
     ethr =  5.08E-07,  avg # of iterations =  3.0

     negative rho (up, down):  7.299E-07 0.000E+00

     total cpu time spent up to now is       28.5 secs

     total energy              =    -329.49000395 Ry
     Harris-Foulkes estimate   =    -329.49010460 Ry
     estimated scf accuracy    <       0.00020754 Ry

     iteration #  3     ecut=    30.00 Ry     beta=0.70
     Davidson diagonalization with overlap
     ethr =  3.77E-07,  avg # of iterations =  2.0

     negative rho (up, down):  1.407E-08 0.000E+00

     total cpu time spent up to now is       28.8 secs

     total energy              =    -329.49004331 Ry
     Harris-Foulkes estimate   =    -329.49005735 Ry
     estimated scf accuracy    <       0.00003045 Ry

     iteration #  4     ecut=    30.00 Ry     beta=0.70
     Davidson diagonalization with overlap
     ethr =  5.54E-08,  avg # of iterations =  2.0

     total cpu time spent up to now is       29.0 secs

     total energy              =    -329.49005035 Ry
     Harris-Foulkes estimate   =    -329.49005757 Ry
     estimated scf accuracy    <       0.00002178 Ry

     iteration #  5     ecut=    30.00 Ry     beta=0.70
     Davidson diagonalization with overlap
     ethr =  3.96E-08,  avg # of iterations =  2.0

     total cpu time spent up to now is       29.2 secs

     total energy              =    -329.49005380 Ry
     Harris-Foulkes estimate   =    -329.49005407 Ry
     estimated scf accuracy    <       0.00000083 Ry

     iteration #  6     ecut=    30.00 Ry     beta=0.70
     Davidson diagonalization with overlap
     ethr =  1.51E-09,  avg # of iterations =  3.0

     total cpu time spent up to now is       29.4 secs

     total energy              =    -329.49005387 Ry
     Harris-Foulkes estimate   =    -329.49005410 Ry
     estimated scf accuracy    <       0.00000012 Ry

     iteration #  7     ecut=    30.00 Ry     beta=0.70
     Davidson diagonalization with overlap
     ethr =  2.12E-10,  avg # of iterations =  3.0

     total cpu time spent up to now is       29.6 secs

     total energy              =    -329.49005382 Ry
     Harris-Foulkes estimate   =    -329.49005390 Ry
     estimated scf accuracy    <       0.00000002 Ry

     iteration #  8     ecut=    30.00 Ry     beta=0.70
     Davidson diagonalization with overlap
     ethr =  4.30E-11,  avg # of iterations =  2.0

     total cpu time spent up to now is       29.8 secs

     total energy              =    -329.49005380 Ry
     Harris-Foulkes estimate   =    -329.49005383 Ry
     estimated scf accuracy    <          4.6E-09 Ry

     iteration #  9     ecut=    30.00 Ry     beta=0.70
     Davidson diagonalization with overlap
     ethr =  8.34E-12,  avg # of iterations =  2.0

     total cpu time spent up to now is       30.1 secs

     total energy              =    -329.49005384 Ry
     Harris-Foulkes estimate   =    -329.49005380 Ry
     estimated scf accuracy    <          1.2E-09 Ry

     iteration # 10     ecut=    30.00 Ry     beta=0.70
     Davidson diagonalization with overlap
     ethr =  2.21E-12,  avg # of iterations =  2.0

     total cpu time spent up to now is       30.3 secs

     End of self-consistent calculation

          k = 0.0000 0.0000 0.0000 ( 22119 PWs)   bands (ev):

    -8.4980  -7.7822  -7.6674  -7.2356  -6.9029  -6.7890  -6.6182  -6.5035
    -6.2781  -6.0605  -5.9645  -5.7603  -5.7236  -5.6933  -5.4567  -5.3981
    -5.3175  -5.2485  -5.2155  -5.1890  -5.1649  -5.1242  -5.0095  -4.9548
    -4.8533  -4.6841  -4.4956  -3.7714  -2.5173  -2.2208  -0.5582  -0.1878
     0.4894   0.8451

     the Fermi energy is    -3.7369 ev

!    total energy              =    -329.49005386 Ry
     Harris-Foulkes estimate   =    -329.49005384 Ry
     estimated scf accuracy    <          1.2E-10 Ry

     The total energy is the sum of the following terms:

     one-electron contribution =    -609.50816070 Ry
     hartree contribution      =     326.17912056 Ry
     xc contribution           =     -51.39934917 Ry
     ewald contribution        =       5.24307963 Ry
     smearing contrib. (-TS)   =      -0.00474418 Ry

     convergence has been achieved in  10 iterations

     Forces acting on atoms (Ry/au):

     atom    1 type  1   force =     0.00322694   -0.00040914    0.00087289
     atom    2 type  1   force =    -0.00093892    0.00172028   -0.00027376
     atom    3 type  1   force =     0.00009844   -0.00054625   -0.00173848
     atom    4 type  1   force =    -0.00013648   -0.00307763    0.00035018
     atom    5 type  1   force =    -0.00224998    0.00231274    0.00078917

     Total force =     0.006264     Total SCF correction =     0.000033

     number of scf cycles    =  12
     number of bfgs steps    =  11

     energy   old            =    -329.4898734664 Ry
     energy   new            =    -329.4900538553 Ry

     CASE: energy  _new < energy  _old

     new trust radius        =       0.0478575502 bohr
     new conv_thr            =       0.0000000002 Ry


ATOMIC_POSITIONS (bohr)
Au      -1.877120699   0.797226170  -0.610748828
Au      -0.697159450   2.323397079   4.221843770
Au       3.024976800   1.400153477   0.545423263
Au       4.176928559   3.628495996   5.438797565
Au       7.794212790   1.990416278   2.126951230



     Writing output data file pwscf.save
     Check: negative starting charge=   -0.006495
     NEW-OLD atomic charge density approx. for the potential
     Check: negative starting charge=   -0.006503

     negative rho (up, down):  7.078E-04 0.000E+00

     total cpu time spent up to now is       30.5 secs

     per-process dynamical memory:    50.7 Mb

     Self-consistent Calculation

     iteration #  1     ecut=    30.00 Ry     beta=0.70
     Davidson diagonalization with overlap
     ethr =  1.00E-06,  avg # of iterations = 11.0

     negative rho (up, down):  3.378E-05 0.000E+00

     total cpu time spent up to now is       30.9 secs

     total energy              =    -329.48997131 Ry
     Harris-Foulkes estimate   =    -329.48978740 Ry
     estimated scf accuracy    <       0.00061517 Ry

     iteration #  2     ecut=    30.00 Ry     beta=0.70
     Davidson diagonalization with overlap
     ethr =  1.12E-06,  avg # of iterations =  6.0

     negative rho (up, down):  5.225E-06 0.000E+00

     total cpu time spent up to now is       31.2 secs

     total energy              =    -329.49009810 Ry
     Harris-Foulkes estimate   =    -329.49031328 Ry
     estimated scf accuracy    <       0.00045323 Ry

     iteration #  3     ecut=    30.00 Ry     beta=0.70
     Davidson diagonalization with overlap
     ethr =  8.24E-07,  avg # of iterations =  2.0

     negative rho (up, down):  9.348E-08 0.000E+00

     total cpu time spent up to now is       31.4 secs

     total energy              =    -329.49018641 Ry
     Harris-Foulkes estimate   =    -329.49020899 Ry
     estimated scf accuracy    <       0.00004938 Ry

     iteration #  4     ecut=    30.00 Ry     beta=0.70
     Davidson diagonalization with overlap
     ethr =  8.98E-08,  avg # of iterations =  3.0

     total cpu time spent up to now is       31.6 secs

     total energy              =    -329.49019702 Ry
     Harris-Foulkes estimate   =    -329.49021402 Ry
     estimated scf accuracy    <       0.00005063 Ry

     iteration #  5     ecut=    30.00 Ry     beta=0.70
     Davidson diagonalization with overlap
     ethr =  8.98E-08,  avg # of iterations =  2.0

     total cpu time spent up to now is       31.8 secs

     total energy              =    -329.49020507 Ry
     Harris-Foulkes estimate   =    -329.49020582 Ry
     estimated scf accuracy    <       0.00000199 Ry

     iteration #  6     ecut=    30.00 Ry     beta=0.70
     Davidson diagonalization with overlap
[...]
     atom    5 type  1   force =    -0.00105231    0.00043008    0.00142795

     Total force =     0.004119     Total SCF correction =     0.000039

     number of scf cycles    =  36
     number of bfgs steps    =  35

     energy   old            =    -329.4914988449 Ry
     energy   new            =    -329.4915434022 Ry

     CASE: energy  _new < energy  _old

     new trust radius        =       0.0120780200 bohr
     new conv_thr            =            1.0E-10 Ry


ATOMIC_POSITIONS (bohr)
Au      -1.735605099   0.587284525  -0.645093466
Au      -0.803243283   2.529920247   4.058714448
Au       3.101301819   1.362541717   0.556709363
Au       4.076441901   3.359016042   5.583487535
Au       7.782942661   2.300926470   2.168449120



     Writing output data file pwscf.save
     Check: negative starting charge=   -0.006525
     NEW-OLD atomic charge density approx. for the potential
     Check: negative starting charge=   -0.006515

     negative rho (up, down):  1.472E-05 0.000E+00

     total cpu time spent up to now is       93.1 secs

     per-process dynamical memory:    50.7 Mb

     Self-consistent Calculation

     iteration #  1     ecut=    30.00 Ry     beta=0.70
     Davidson diagonalization with overlap
     ethr =  1.00E-06,  avg # of iterations =  4.0

     Threshold (ethr) on eigenvalues was too large:
     Diagonalizing with lowered threshold

     Davidson diagonalization with overlap
     ethr =  4.94E-08,  avg # of iterations =  1.0

     negative rho (up, down):  1.895E-08 0.000E+00

     total cpu time spent up to now is       93.6 secs

     total energy              =    -329.49156756 Ry
     Harris-Foulkes estimate   =    -329.49157274 Ry
     estimated scf accuracy    <       0.00002754 Ry

     iteration #  2     ecut=    30.00 Ry     beta=0.70
     Davidson diagonalization with overlap
     ethr =  5.01E-08,  avg # of iterations =  3.0

     total cpu time spent up to now is       93.8 secs

     total energy              =    -329.49156459 Ry
     Harris-Foulkes estimate   =    -329.49158848 Ry
     estimated scf accuracy    <       0.00005604 Ry

     iteration #  3     ecut=    30.00 Ry     beta=0.70
     Davidson diagonalization with overlap
     ethr =  5.01E-08,  avg # of iterations =  2.0

     total cpu time spent up to now is       94.1 secs

     total energy              =    -329.49157556 Ry
     Harris-Foulkes estimate   =    -329.49157909 Ry
     estimated scf accuracy    <       0.00000812 Ry

     iteration #  4     ecut=    30.00 Ry     beta=0.70
     Davidson diagonalization with overlap
     ethr =  1.48E-08,  avg # of iterations =  2.0

     total cpu time spent up to now is       94.2 secs

     total energy              =    -329.49157699 Ry
     Harris-Foulkes estimate   =    -329.49157744 Ry
     estimated scf accuracy    <       0.00000094 Ry

     iteration #  5     ecut=    30.00 Ry     beta=0.70
     Davidson diagonalization with overlap
     ethr =  1.72E-09,  avg # of iterations =  2.0

     total cpu time spent up to now is       94.5 secs

     total energy              =    -329.49157721 Ry
     Harris-Foulkes estimate   =    -329.49157730 Ry
     estimated scf accuracy    <       0.00000026 Ry

     iteration #  6     ecut=    30.00 Ry     beta=0.70
     Davidson diagonalization with overlap
     ethr =  4.77E-10,  avg # of iterations =  2.0

     total cpu time spent up to now is       94.7 secs

     total energy              =    -329.49157722 Ry
     Harris-Foulkes estimate   =    -329.49157727 Ry
     estimated scf accuracy    <       0.00000002 Ry

     iteration #  7     ecut=    30.00 Ry     beta=0.70
     Davidson diagonalization with overlap
     ethr =  2.80E-11,  avg # of iterations =  3.0

     total cpu time spent up to now is       94.9 secs

     total energy              =    -329.49157728 Ry
     Harris-Foulkes estimate   =    -329.49157723 Ry
     estimated scf accuracy    <          4.8E-09 Ry

     iteration #  8     ecut=    30.00 Ry     beta=0.70
     Davidson diagonalization with overlap
     ethr =  8.76E-12,  avg # of iterations =  2.0

     total cpu time spent up to now is       95.1 secs

     total energy              =    -329.49157722 Ry
     Harris-Foulkes estimate   =    -329.49157728 Ry
     estimated scf accuracy    <          1.2E-09 Ry

     iteration #  9     ecut=    30.00 Ry     beta=0.70
     Davidson diagonalization with overlap
     ethr =  2.17E-12,  avg # of iterations =  2.0

     total cpu time spent up to now is       95.3 secs

     total energy              =    -329.49157719 Ry
     Harris-Foulkes estimate   =    -329.49157722 Ry
     estimated scf accuracy    <          1.9E-10 Ry

     iteration # 10     ecut=    30.00 Ry     beta=0.70
     Davidson diagonalization with overlap
     ethr =  3.41E-13,  avg # of iterations =  2.0

     total cpu time spent up to now is       95.5 secs

     End of self-consistent calculation

          k = 0.0000 0.0000 0.0000 ( 22119 PWs)   bands (ev):

    -8.5248  -7.7917  -7.6571  -7.2332  -6.8668  -6.8277  -6.6145  -6.4858
    -6.3071  -6.0824  -5.9595  -5.7751  -5.7379  -5.6882  -5.4600  -5.3661
    -5.3173  -5.2460  -5.2039  -5.1923  -5.1719  -5.1239  -4.9978  -4.9238
    -4.8498  -4.7294  -4.4771  -3.7818  -2.4948  -2.2038  -0.5731  -0.1949
     0.4870   0.9179

     the Fermi energy is    -3.7498 ev

!    total energy              =    -329.49157719 Ry
     Harris-Foulkes estimate   =    -329.49157719 Ry
     estimated scf accuracy    <          1.2E-11 Ry

     The total energy is the sum of the following terms:

     one-electron contribution =    -609.69856567 Ry
     hartree contribution      =     326.27500778 Ry
     xc contribution           =     -51.40361035 Ry
     ewald contribution        =       5.33979558 Ry
     smearing contrib. (-TS)   =      -0.00420453 Ry

     convergence has been achieved in  10 iterations

     Forces acting on atoms (Ry/au):

     atom    1 type  1   force =    -0.00024360   -0.00056787    0.00021825
     atom    2 type  1   force =    -0.00072949   -0.00045509    0.00001714
     atom    3 type  1   force =     0.00067058    0.00060699   -0.00015306
     atom    4 type  1   force =     0.00016343    0.00002506   -0.00133155
     atom    5 type  1   force =     0.00013908    0.00039092    0.00124922

     Total force =     0.002354     Total SCF correction =     0.000016

     number of scf cycles    =  37
     number of bfgs steps    =  36

     energy   old            =    -329.4915434022 Ry
     energy   new            =    -329.4915771907 Ry

     CASE: energy  _new < energy  _old

     new trust radius        =       0.0048663829 bohr
     new conv_thr            =            1.0E-10 Ry


ATOMIC_POSITIONS (bohr)
Au      -1.735088388   0.584724259  -0.646695710
Au      -0.805246764   2.531124880   4.059137798
Au       3.102740648   1.362309251   0.555700653
Au       4.077173827   3.357151714   5.582314395
Au       7.782258677   2.304378897   2.171809864



     Writing output data file pwscf.save
     Check: negative starting charge=   -0.006515
     NEW-OLD atomic charge density approx. for the potential
     Check: negative starting charge=   -0.006512

     negative rho (up, down):  7.442E-08 0.000E+00

     total cpu time spent up to now is       95.8 secs

     per-process dynamical memory:    50.7 Mb

     Self-consistent Calculation

     iteration #  1     ecut=    30.00 Ry     beta=0.70
     Davidson diagonalization with overlap
     ethr =  1.00E-06,  avg # of iterations =  3.0

     Threshold (ethr) on eigenvalues was too large:
     Diagonalizing with lowered threshold

     Davidson diagonalization with overlap
     ethr =  5.74E-09,  avg # of iterations =  2.0

     total cpu time spent up to now is       96.2 secs

     total energy              =    -329.49158359 Ry
     Harris-Foulkes estimate   =    -329.49158453 Ry
     estimated scf accuracy    <       0.00000335 Ry

     iteration #  2     ecut=    30.00 Ry     beta=0.70
     Davidson diagonalization with overlap
     ethr =  6.09E-09,  avg # of iterations =  2.0

     total cpu time spent up to now is       96.4 secs

     total energy              =    -329.49158366 Ry
     Harris-Foulkes estimate   =    -329.49158592 Ry
     estimated scf accuracy    <       0.00000543 Ry

     iteration #  3     ecut=    30.00 Ry     beta=0.70
     Davidson diagonalization with overlap
     ethr =  6.09E-09,  avg # of iterations =  2.0

     total cpu time spent up to now is       96.6 secs

     total energy              =    -329.49158480 Ry
     Harris-Foulkes estimate   =    -329.49158518 Ry
     estimated scf accuracy    <       0.00000109 Ry

     iteration #  4     ecut=    30.00 Ry     beta=0.70
     Davidson diagonalization with overlap
     ethr =  1.99E-09,  avg # of iterations =  2.0

     total cpu time spent up to now is       96.8 secs

     total energy              =    -329.49158520 Ry
     Harris-Foulkes estimate   =    -329.49158506 Ry
     estimated scf accuracy    <       0.00000013 Ry

     iteration #  5     ecut=    30.00 Ry     beta=0.70
     Davidson diagonalization with overlap
     ethr =  2.29E-10,  avg # of iterations =  2.0

     total cpu time spent up to now is       97.0 secs

     total energy              =    -329.49158520 Ry
     Harris-Foulkes estimate   =    -329.49158523 Ry
     estimated scf accuracy    <       0.00000002 Ry

     iteration #  6     ecut=    30.00 Ry     beta=0.70
     Davidson diagonalization with overlap
     ethr =  3.44E-11,  avg # of iterations =  2.0

     total cpu time spent up to now is       97.3 secs

     total energy              =    -329.49158515 Ry
     Harris-Foulkes estimate   =    -329.49158520 Ry
     estimated scf accuracy    <          2.2E-09 Ry

     iteration #  7     ecut=    30.00 Ry     beta=0.70
     Davidson diagonalization with overlap
     ethr =  3.96E-12,  avg # of iterations =  2.0

     total cpu time spent up to now is       97.5 secs

     total energy              =    -329.49158510 Ry
     Harris-Foulkes estimate   =    -329.49158515 Ry
     estimated scf accuracy    <          4.0E-10 Ry

     iteration #  8     ecut=    30.00 Ry     beta=0.70
     Davidson diagonalization with overlap
     ethr =  7.20E-13,  avg # of iterations =  2.0

     total cpu time spent up to now is       97.7 secs

     End of self-consistent calculation

          k = 0.0000 0.0000 0.0000 ( 22119 PWs)   bands (ev):

    -8.5229  -7.7912  -7.6549  -7.2331  -6.8661  -6.8265  -6.6165  -6.4851
    -6.3065  -6.0816  -5.9606  -5.7746  -5.7378  -5.6877  -5.4600  -5.3659
    -5.3171  -5.2460  -5.2036  -5.1931  -5.1715  -5.1241  -4.9983  -4.9240
    -4.8498  -4.7302  -4.4771  -3.7812  -2.4955  -2.2044  -0.5729  -0.1947
     0.4856   0.9169

     the Fermi energy is    -3.7492 ev

!    total energy              =    -329.49158506 Ry
     Harris-Foulkes estimate   =    -329.49158510 Ry
     estimated scf accuracy    <          8.2E-11 Ry

     The total energy is the sum of the following terms:

     one-electron contribution =    -609.62691010 Ry
     hartree contribution      =     326.23945427 Ry
     xc contribution           =     -51.40335129 Ry
     ewald contribution        =       5.30344755 Ry
     smearing contrib. (-TS)   =      -0.00422549 Ry

     convergence has been achieved in   8 iterations

     Forces acting on atoms (Ry/au):

     atom    1 type  1   force =     0.00004007   -0.00039606    0.00046488
     atom    2 type  1   force =    -0.00049996   -0.00061487   -0.00024275
     atom    3 type  1   force =     0.00028492    0.00058828   -0.00013834
     atom    4 type  1   force =    -0.00032202    0.00013662   -0.00106102
     atom    5 type  1   force =     0.00049698    0.00028603    0.00097723

     Total force =     0.002010     Total SCF correction =     0.000034

     number of scf cycles    =  38
     number of bfgs steps    =  37

     energy   old            =    -329.4915771907 Ry
     energy   new            =    -329.4915850609 Ry

     CASE: energy  _new < energy  _old

     new trust radius        =       0.0053530212 bohr
     new conv_thr            =            1.0E-10 Ry


ATOMIC_POSITIONS (bohr)
Au      -1.734524778   0.581492518  -0.647727048
Au      -0.806841776   2.531151263   4.057815261
Au       3.104027638   1.362701100   0.555568201
Au       4.077013287   3.355788818   5.581453569
Au       7.782163629   2.308555302   2.175157017



     Writing output data file pwscf.save
     Check: negative starting charge=   -0.006512
     NEW-OLD atomic charge density approx. for the potential
     Check: negative starting charge=   -0.006510

     negative rho (up, down):  9.600E-08 0.000E+00

     total cpu time spent up to now is       97.9 secs

     per-process dynamical memory:    50.7 Mb

     Self-consistent Calculation

     iteration #  1     ecut=    30.00 Ry     beta=0.70
     Davidson diagonalization with overlap
     ethr =  1.00E-06,  avg # of iterations =  3.0

     Threshold (ethr) on eigenvalues was too large:
     Diagonalizing with lowered threshold

     Davidson diagonalization with overlap
     ethr =  5.81E-09,  avg # of iterations =  2.0

     total cpu time spent up to now is       98.4 secs

     total energy              =    -329.49159031 Ry
     Harris-Foulkes estimate   =    -329.49159035 Ry
     estimated scf accuracy    <       0.00000342 Ry

     iteration #  2     ecut=    30.00 Ry     beta=0.70
     Davidson diagonalization with overlap
     ethr =  6.22E-09,  avg # of iterations =  2.0

     total cpu time spent up to now is       98.6 secs

     total energy              =    -329.49159066 Ry
     Harris-Foulkes estimate   =    -329.49159228 Ry
     estimated scf accuracy    <       0.00000344 Ry

     iteration #  3     ecut=    30.00 Ry     beta=0.70
     Davidson diagonalization with overlap
     ethr =  6.22E-09,  avg # of iterations =  2.0

     total cpu time spent up to now is       98.8 secs

     total energy              =    -329.49159151 Ry
     Harris-Foulkes estimate   =    -329.49159163 Ry
     estimated scf accuracy    <       0.00000067 Ry

     iteration #  4     ecut=    30.00 Ry     beta=0.70
     Davidson diagonalization with overlap
     ethr =  1.22E-09,  avg # of iterations =  2.0

     total cpu time spent up to now is       99.0 secs

     total energy              =    -329.49159156 Ry
     Harris-Foulkes estimate   =    -329.49159175 Ry
     estimated scf accuracy    <       0.00000028 Ry

     iteration #  5     ecut=    30.00 Ry     beta=0.70
     Davidson diagonalization with overlap
     ethr =  5.11E-10,  avg # of iterations =  2.0

     total cpu time spent up to now is       99.2 secs

     total energy              =    -329.49159169 Ry
     Harris-Foulkes estimate   =    -329.49159162 Ry
     estimated scf accuracy    <       0.00000001 Ry

     iteration #  6     ecut=    30.00 Ry     beta=0.70
     Davidson diagonalization with overlap
     ethr =  2.68E-11,  avg # of iterations =  3.0

     total cpu time spent up to now is       99.4 secs

     total energy              =    -329.49159174 Ry
     Harris-Foulkes estimate   =    -329.49159169 Ry
     estimated scf accuracy    <          2.7E-09 Ry

     iteration #  7     ecut=    30.00 Ry     beta=0.70
     Davidson diagonalization with overlap
     ethr =  4.83E-12,  avg # of iterations =  3.0

     total cpu time spent up to now is       99.7 secs

     total energy              =    -329.49159172 Ry
     Harris-Foulkes estimate   =    -329.49159174 Ry
     estimated scf accuracy    <          4.5E-10 Ry

     iteration #  8     ecut=    30.00 Ry     beta=0.70
     Davidson diagonalization with overlap
     ethr =  8.18E-13,  avg # of iterations =  2.0

     total cpu time spent up to now is       99.9 secs

     End of self-consistent calculation

          k = 0.0000 0.0000 0.0000 ( 22119 PWs)   bands (ev):

    -8.5220  -7.7919  -7.6541  -7.2343  -6.8656  -6.8258  -6.6188  -6.4854
    -6.3067  -6.0811  -5.9617  -5.7742  -5.7377  -5.6875  -5.4609  -5.3658
    -5.3169  -5.2462  -5.2032  -5.1937  -5.1713  -5.1241  -4.9991  -4.9241
    -4.8496  -4.7305  -4.4772  -3.7802  -2.4963  -2.2042  -0.5729  -0.1940
     0.4843   0.9160

     the Fermi energy is    -3.7481 ev

!    total energy              =    -329.49159172 Ry
     Harris-Foulkes estimate   =    -329.49159172 Ry
     estimated scf accuracy    <          2.6E-11 Ry

     The total energy is the sum of the following terms:

     one-electron contribution =    -609.61801245 Ry
     hartree contribution      =     326.23472437 Ry
     xc contribution           =     -51.40327499 Ry
     ewald contribution        =       5.29923195 Ry
     smearing contrib. (-TS)   =      -0.00426060 Ry

     convergence has been achieved in   8 iterations

     Forces acting on atoms (Ry/au):

     atom    1 type  1   force =     0.00025394   -0.00027904    0.00053342
     atom    2 type  1   force =    -0.00036108   -0.00066464   -0.00028043
     atom    3 type  1   force =     0.00007567    0.00054262   -0.00020028
     atom    4 type  1   force =    -0.00068025    0.00022939   -0.00080407
     atom    5 type  1   force =     0.00071172    0.00017166    0.00075136

     Total force =     0.001918     Total SCF correction =     0.000026

     bfgs converged in  39 scf cycles and  38 bfgs steps
     (criteria: energy <  1.0E-04, force <  1.0E-03)

     End of BFGS Geometry Optimization

     Final energy   =    -329.4915917211 Ry
Begin final coordinates

ATOMIC_POSITIONS (bohr)
Au      -1.734524778   0.581492518  -0.647727048
Au      -0.806841776   2.531151263   4.057815261
Au       3.104027638   1.362701100   0.555568201
Au       4.077013287   3.355788818   5.581453569
Au       7.782163629   2.308555302   2.175157017
End final coordinates



     Writing output data file pwscf.save
 
     init_run     :      0.16s CPU      0.18s WALL (       1 calls)
     electrons    :     87.24s CPU     92.85s WALL (      39 calls)
     update_pot   :      2.52s CPU      3.06s WALL (      38 calls)
     forces       :      1.62s CPU      1.65s WALL (      39 calls)

     Called by init_run:
     wfcinit      :      0.07s CPU      0.08s WALL (       1 calls)
     potinit      :      0.03s CPU      0.03s WALL (       1 calls)

     Called by electrons:
     c_bands      :     66.67s CPU     67.53s WALL (     403 calls)
     sum_band     :      9.46s CPU      9.65s WALL (     403 calls)
     v_of_rho     :      7.49s CPU      7.62s WALL (     423 calls)
     mix_rho      :      2.87s CPU      6.09s WALL (     403 calls)

     Called by c_bands:
     init_us_2    :      1.19s CPU      1.24s WALL (     807 calls)
     cegterg      :     59.38s CPU     59.95s WALL (     403 calls)

     Called by sum_band:

     Called by *egterg:
     h_psi        :     46.35s CPU     46.72s WALL (    1422 calls)
     g_psi        :      0.47s CPU      0.47s WALL (    1018 calls)
     cdiaghg      :      3.27s CPU      3.32s WALL (    1364 calls)

     Called by h_psi:
     h_psi:pot    :     45.67s CPU     46.03s WALL (    1422 calls)
     h_psi:calbec :      2.54s CPU      2.55s WALL (    1422 calls)
     vloc_psi     :     40.30s CPU     40.65s WALL (    1422 calls)
     add_vuspsi   :      2.82s CPU      2.83s WALL (    1422 calls)

     General routines
     calbec       :      3.00s CPU      3.03s WALL (    1578 calls)
     fft          :      4.13s CPU      4.23s WALL (    4768 calls)
     fftw         :     42.37s CPU     43.05s WALL (   89370 calls)
     davcio       :      0.48s CPU      3.07s WALL (    4072 calls)
 
     Parallel routines
     fft_scatter  :     10.94s CPU     10.67s WALL (   94138 calls)
 
     PWSCF        :  1m32.60s CPU     1m40.03s WALL

 
   This run was terminated on:  17:46: 9   3Aug2017            

=------------------------------------------------------------------------------=
   JOB DONE.
=------------------------------------------------------------------------------=
