
     Program PWSCF v.6.0 (svn rev. 13079) starts on  3Aug2017 at 13:50: 9 

     This program is part of the open-source Quantum ESPRESSO suite
     for quantum simulation of materials; please cite
         "P. Giannozzi et al., J. Phys.:Condens. Matter 21 395502 (2009);
          URL http://www.quantum-espresso.org", 
     in publications or presentations arising from this work. More details at
     http://www.quantum-espresso.org/quote

     Parallel version (MPI), running on    10 processors
     R & G space division:  proc/nbgrp/npool/nimage =      10
     Reading input from input/multi/minchecks-Gold5-149.in

     Current dimensions of program PWSCF are:
     Max number of different atomic species (ntypx) = 10
     Max number of k-points (npk) =  40000
     Max angular momentum in pseudopotentials (lmaxx) =  3
     Message from routine iosys:
     pot_extrapolation='second-order' not available, using 'atomic'
     Message from routine iosys:
     wfc_extrapolation='second-order' not available, using 'atomic'

     Subspace diagonalization in iterative solution of the eigenvalue problem:
     a serial algorithm will be used

 
     Parallelization info
     --------------------
     sticks:   dense  smooth     PW     G-vecs:    dense   smooth      PW
     Min         380     380     94                17748    17748    2208
     Max         381     381     95                17753    17753    2213
     Sum        3809    3809    949               177509   177509   22119
 


     bravais-lattice index     =            1
     lattice parameter (alat)  =      20.0000  a.u.
     unit-cell volume          =    8000.0000 (a.u.)^3
     number of atoms/cell      =            5
     number of atomic types    =            1
     number of electrons       =        55.00
     number of Kohn-Sham states=           34
     kinetic-energy cutoff     =      30.0000  Ry
     charge density cutoff     =     120.0000  Ry
     convergence threshold     =      1.0E-08
     mixing beta               =       0.7000
     number of iterations used =            8  plain     mixing
     Exchange-correlation      = BLYP ( 1  3  1  3 0 0)
     nstep                     =           50


     celldm(1)=  20.000000  celldm(2)=   0.000000  celldm(3)=   0.000000
     celldm(4)=   0.000000  celldm(5)=   0.000000  celldm(6)=   0.000000

     crystal axes: (cart. coord. in units of alat)
               a(1) = (   1.000000   0.000000   0.000000 )  
               a(2) = (   0.000000   1.000000   0.000000 )  
               a(3) = (   0.000000   0.000000   1.000000 )  

     reciprocal axes: (cart. coord. in units 2 pi/alat)
               b(1) = (  1.000000  0.000000  0.000000 )  
               b(2) = (  0.000000  1.000000  0.000000 )  
               b(3) = (  0.000000  0.000000  1.000000 )  


     PseudoPot. # 1 for Au read from file:
     ./Au.blyp-d-hgh.UPF
     MD5 check sum: c10d8bae01f806c36a1643a1c69a8479
     Pseudo is Norm-conserving, Zval = 11.0
     Generated in analytical, separable form
     Using radial grid of 1279 points,  6 beta functions with: 
                l(1) =   0
                l(2) =   0
                l(3) =   1
                l(4) =   1
                l(5) =   2
                l(6) =   2

     atomic species   valence    mass     pseudopotential
        Au            11.00    28.08600     Au( 1.00)

     No symmetry found



   Cartesian axes

     site n.     atom                  positions (alat units)
         1           Au  tau(   1) = (  -0.1008180   0.0730162  -0.0269643  )
         2           Au  tau(   2) = (  -0.0383288   0.1658842   0.2020439  )
         3           Au  tau(   3) = (   0.1460467   0.0587913   0.0254889  )
         4           Au  tau(   4) = (   0.2037686   0.1696017   0.2813934  )
         5           Au  tau(   5) = (   0.3796966   0.0854523   0.1180511  )

     number of k points=     1  Marzari-Vanderbilt smearing, width (Ry)=  0.0250
                       cart. coord. in units 2pi/alat
        k(    1) = (   0.0000000   0.0000000   0.0000000), wk =   2.0000000

     Dense  grid:   177509 G-vectors     FFT dimensions: (  72,  72,  72)

     Estimated max dynamical RAM per process >      15.04Mb

     Estimated total allocated dynamical RAM >     150.39Mb

     Initial potential from superposition of free atoms
     Check: negative starting charge=   -0.006420

     starting charge   54.99940, renormalised to   55.00000

     negative rho (up, down):  6.420E-03 0.000E+00
     Starting wfc are   45 randomized atomic wfcs

     total cpu time spent up to now is        0.3 secs

     per-process dynamical memory:    41.0 Mb

     Self-consistent Calculation

     iteration #  1     ecut=    30.00 Ry     beta=0.70
     Davidson diagonalization with overlap
     ethr =  1.00E-02,  avg # of iterations =  3.0

     Threshold (ethr) on eigenvalues was too large:
     Diagonalizing with lowered threshold

     Davidson diagonalization with overlap
     ethr =  4.05E-04,  avg # of iterations =  5.0

     negative rho (up, down):  8.708E-04 0.000E+00

     total cpu time spent up to now is        0.8 secs

     total energy              =    -329.37769082 Ry
     Harris-Foulkes estimate   =    -329.54595247 Ry
     estimated scf accuracy    <       0.27939183 Ry

     iteration #  2     ecut=    30.00 Ry     beta=0.70
     Davidson diagonalization with overlap
     ethr =  5.08E-04,  avg # of iterations =  5.0

     negative rho (up, down):  3.813E-04 0.000E+00

     total cpu time spent up to now is        1.1 secs

     total energy              =    -329.41599539 Ry
     Harris-Foulkes estimate   =    -329.55839659 Ry
     estimated scf accuracy    <       0.29010937 Ry

     iteration #  3     ecut=    30.00 Ry     beta=0.70
     Davidson diagonalization with overlap
     ethr =  5.08E-04,  avg # of iterations =  2.0

     negative rho (up, down):  1.482E-04 0.000E+00

     total cpu time spent up to now is        1.4 secs

     total energy              =    -329.47504825 Ry
     Harris-Foulkes estimate   =    -329.50166904 Ry
     estimated scf accuracy    <       0.07042833 Ry

     iteration #  4     ecut=    30.00 Ry     beta=0.70
     Davidson diagonalization with overlap
     ethr =  1.28E-04,  avg # of iterations =  2.0

     negative rho (up, down):  4.720E-06 0.000E+00

     total cpu time spent up to now is        1.7 secs

     total energy              =    -329.48735248 Ry
     Harris-Foulkes estimate   =    -329.48844893 Ry
     estimated scf accuracy    <       0.00272836 Ry

     iteration #  5     ecut=    30.00 Ry     beta=0.70
     Davidson diagonalization with overlap
     ethr =  4.96E-06,  avg # of iterations =  6.0

     total cpu time spent up to now is        2.1 secs

     total energy              =    -329.48796760 Ry
     Harris-Foulkes estimate   =    -329.48898879 Ry
     estimated scf accuracy    <       0.00278172 Ry

     iteration #  6     ecut=    30.00 Ry     beta=0.70
     Davidson diagonalization with overlap
     ethr =  4.96E-06,  avg # of iterations =  2.0

     total cpu time spent up to now is        2.3 secs

     total energy              =    -329.48839024 Ry
     Harris-Foulkes estimate   =    -329.48854766 Ry
     estimated scf accuracy    <       0.00038961 Ry

     iteration #  7     ecut=    30.00 Ry     beta=0.70
     Davidson diagonalization with overlap
     ethr =  7.08E-07,  avg # of iterations =  2.0

     total cpu time spent up to now is        2.5 secs

     total energy              =    -329.48846521 Ry
     Harris-Foulkes estimate   =    -329.48848433 Ry
     estimated scf accuracy    <       0.00004723 Ry

     iteration #  8     ecut=    30.00 Ry     beta=0.70
     Davidson diagonalization with overlap
     ethr =  8.59E-08,  avg # of iterations =  2.0

     total cpu time spent up to now is        2.8 secs

     total energy              =    -329.48847418 Ry
     Harris-Foulkes estimate   =    -329.48848117 Ry
     estimated scf accuracy    <       0.00001632 Ry

     iteration #  9     ecut=    30.00 Ry     beta=0.70
     Davidson diagonalization with overlap
     ethr =  2.97E-08,  avg # of iterations =  2.0

     total cpu time spent up to now is        3.1 secs

     total energy              =    -329.48847735 Ry
     Harris-Foulkes estimate   =    -329.48847805 Ry
     estimated scf accuracy    <       0.00000135 Ry

     iteration # 10     ecut=    30.00 Ry     beta=0.70
     Davidson diagonalization with overlap
     ethr =  2.46E-09,  avg # of iterations =  2.0

     total cpu time spent up to now is        3.3 secs

     total energy              =    -329.48847755 Ry
     Harris-Foulkes estimate   =    -329.48847784 Ry
     estimated scf accuracy    <       0.00000042 Ry

     iteration # 11     ecut=    30.00 Ry     beta=0.70
     Davidson diagonalization with overlap
     ethr =  7.63E-10,  avg # of iterations =  2.0

     total cpu time spent up to now is        3.6 secs

     total energy              =    -329.48847763 Ry
     Harris-Foulkes estimate   =    -329.48847765 Ry
     estimated scf accuracy    <       0.00000004 Ry

     iteration # 12     ecut=    30.00 Ry     beta=0.70
     Davidson diagonalization with overlap
     ethr =  7.15E-11,  avg # of iterations =  3.0

     total cpu time spent up to now is        3.8 secs

     End of self-consistent calculation

          k = 0.0000 0.0000 0.0000 ( 22119 PWs)   bands (ev):

    -8.3978  -7.7201  -7.6401  -7.1901  -6.9597  -6.7628  -6.6959  -6.4532
    -6.3012  -6.0375  -5.9824  -5.7619  -5.7231  -5.6567  -5.3990  -5.3607
    -5.3315  -5.2108  -5.1859  -5.1741  -5.1603  -5.1389  -4.9978  -4.8609
    -4.8478  -4.7225  -4.3906  -3.8104  -2.5434  -2.1284  -0.5577  -0.2353
     0.5248   0.8946

     the Fermi energy is    -3.7967 ev

!    total energy              =    -329.48847755 Ry
     Harris-Foulkes estimate   =    -329.48847765 Ry
     estimated scf accuracy    <          9.8E-09 Ry

     The total energy is the sum of the following terms:

     one-electron contribution =    -608.85033736 Ry
     hartree contribution      =     325.89418920 Ry
     xc contribution           =     -51.41329486 Ry
     ewald contribution        =       4.88143368 Ry
     smearing contrib. (-TS)   =      -0.00046821 Ry

     convergence has been achieved in  12 iterations

     Forces acting on atoms (Ry/au):

     atom    1 type  1   force =     0.00004215   -0.00340394   -0.00665709
     atom    2 type  1   force =    -0.00393423    0.00026080   -0.00245925
     atom    3 type  1   force =    -0.00275677    0.00734989    0.01266480
     atom    4 type  1   force =     0.00575633   -0.00081017   -0.00121156
     atom    5 type  1   force =     0.00089252   -0.00339657   -0.00233690

     Total force =     0.018777     Total SCF correction =     0.000299

     BFGS Geometry Optimization

     number of scf cycles    =   1
     number of bfgs steps    =   0

     energy   new            =    -329.4884775491 Ry

     new trust radius        =       0.0149002601 bohr
     new conv_thr            =       0.0000000100 Ry


ATOMIC_POSITIONS (bohr)
Au      -2.016317846   1.456919059  -0.545943092
Au      -0.770510231   3.317944796   4.038418755
Au       2.918177227   1.183176889   0.522443797
Au       4.081128327   3.391223827   5.626657444
Au       7.594824523   1.705650429   2.358684097



     Writing output data file pwscf.save
     Check: negative starting charge=   -0.006420
     NEW-OLD atomic charge density approx. for the potential
     Check: negative starting charge=   -0.006416

     negative rho (up, down):  1.134E-05 0.000E+00

     total cpu time spent up to now is        4.1 secs

     per-process dynamical memory:    42.9 Mb

     Self-consistent Calculation

     iteration #  1     ecut=    30.00 Ry     beta=0.70
     Davidson diagonalization with overlap
     ethr =  1.00E-06,  avg # of iterations =  4.0

     Threshold (ethr) on eigenvalues was too large:
     Diagonalizing with lowered threshold

     Davidson diagonalization with overlap
     ethr =  3.96E-08,  avg # of iterations =  1.0

     total cpu time spent up to now is        4.6 secs

     total energy              =    -329.48880513 Ry
     Harris-Foulkes estimate   =    -329.48880722 Ry
     estimated scf accuracy    <       0.00002222 Ry

     iteration #  2     ecut=    30.00 Ry     beta=0.70
     Davidson diagonalization with overlap
     ethr =  4.04E-08,  avg # of iterations =  3.0

     total cpu time spent up to now is        4.9 secs

     total energy              =    -329.48880798 Ry
     Harris-Foulkes estimate   =    -329.48881600 Ry
     estimated scf accuracy    <       0.00001732 Ry

     iteration #  3     ecut=    30.00 Ry     beta=0.70
     Davidson diagonalization with overlap
     ethr =  3.15E-08,  avg # of iterations =  2.0

     total cpu time spent up to now is        5.2 secs

     total energy              =    -329.48881150 Ry
     Harris-Foulkes estimate   =    -329.48881412 Ry
     estimated scf accuracy    <       0.00000707 Ry

     iteration #  4     ecut=    30.00 Ry     beta=0.70
     Davidson diagonalization with overlap
     ethr =  1.29E-08,  avg # of iterations =  2.0

     total cpu time spent up to now is        5.4 secs

     total energy              =    -329.48881322 Ry
     Harris-Foulkes estimate   =    -329.48881328 Ry
     estimated scf accuracy    <       0.00000098 Ry

     iteration #  5     ecut=    30.00 Ry     beta=0.70
     Davidson diagonalization with overlap
     ethr =  1.79E-09,  avg # of iterations =  2.0

     total cpu time spent up to now is        5.6 secs

     total energy              =    -329.48881328 Ry
     Harris-Foulkes estimate   =    -329.48881348 Ry
     estimated scf accuracy    <       0.00000020 Ry

     iteration #  6     ecut=    30.00 Ry     beta=0.70
     Davidson diagonalization with overlap
     ethr =  3.63E-10,  avg # of iterations =  2.0

     total cpu time spent up to now is        6.1 secs

     total energy              =    -329.48881323 Ry
     Harris-Foulkes estimate   =    -329.48881333 Ry
     estimated scf accuracy    <       0.00000002 Ry

     iteration #  7     ecut=    30.00 Ry     beta=0.70
     Davidson diagonalization with overlap
     ethr =  3.15E-11,  avg # of iterations =  2.0

     total cpu time spent up to now is        6.3 secs

     End of self-consistent calculation

          k = 0.0000 0.0000 0.0000 ( 22119 PWs)   bands (ev):

    -8.4079  -7.7282  -7.6380  -7.1960  -6.9546  -6.7683  -6.6951  -6.4554
    -6.3020  -6.0377  -5.9872  -5.7632  -5.7253  -5.6590  -5.3972  -5.3685
    -5.3304  -5.2111  -5.1873  -5.1787  -5.1613  -5.1397  -4.9983  -4.8632
    -4.8542  -4.7222  -4.3981  -3.8066  -2.5415  -2.1335  -0.5588  -0.2320
     0.5230   0.8937

     the Fermi energy is    -3.7908 ev

!    total energy              =    -329.48881325 Ry
     Harris-Foulkes estimate   =    -329.48881324 Ry
     estimated scf accuracy    <          5.1E-09 Ry

     The total energy is the sum of the following terms:

     one-electron contribution =    -608.97648969 Ry
     hartree contribution      =     325.95273143 Ry
     xc contribution           =     -51.41248349 Ry
     ewald contribution        =       4.94828287 Ry
     smearing contrib. (-TS)   =      -0.00085437 Ry

     convergence has been achieved in   7 iterations

     Forces acting on atoms (Ry/au):

     atom    1 type  1   force =     0.00017684   -0.00319287   -0.00603215
     atom    2 type  1   force =    -0.00314399    0.00033395   -0.00208898
     atom    3 type  1   force =    -0.00303395    0.00680093    0.01145705
     atom    4 type  1   force =     0.00453268   -0.00055348   -0.00096163
     atom    5 type  1   force =     0.00146842   -0.00338854   -0.00237429

     Total force =     0.016993     Total SCF correction =     0.000256

     number of scf cycles    =   2
     number of bfgs steps    =   1

     energy   old            =    -329.4884775491 Ry
     energy   new            =    -329.4888132493 Ry

     CASE: energy  _new < energy  _old


     WARNING: bfgs curvature condition failed, Theta= 0.887
     new trust radius        =       0.0163902861 bohr
     new conv_thr            =       0.0000000003 Ry


ATOMIC_POSITIONS (bohr)
Au      -2.016141596   1.453107311  -0.553198344
Au      -0.774402370   3.318320792   4.035869554
Au       2.914669016   1.191319728   0.536228865
Au       4.086759702   3.390510635   5.625465027
Au       7.596417246   1.701656535   2.355895897



     Writing output data file pwscf.save
     Check: negative starting charge=   -0.006416
     NEW-OLD atomic charge density approx. for the potential
     Check: negative starting charge=   -0.006412

     negative rho (up, down):  1.583E-05 0.000E+00

     total cpu time spent up to now is        6.5 secs

     per-process dynamical memory:    50.7 Mb

     Self-consistent Calculation

     iteration #  1     ecut=    30.00 Ry     beta=0.70
     Davidson diagonalization with overlap
     ethr =  1.00E-06,  avg # of iterations =  4.0

     Threshold (ethr) on eigenvalues was too large:
     Diagonalizing with lowered threshold

     Davidson diagonalization with overlap
     ethr =  4.89E-08,  avg # of iterations =  1.0

     negative rho (up, down):  1.823E-08 0.000E+00

     total cpu time spent up to now is        7.0 secs

     total energy              =    -329.48913258 Ry
     Harris-Foulkes estimate   =    -329.48913588 Ry
     estimated scf accuracy    <       0.00002719 Ry

     iteration #  2     ecut=    30.00 Ry     beta=0.70
     Davidson diagonalization with overlap
     ethr =  4.94E-08,  avg # of iterations =  3.0

     total cpu time spent up to now is        7.3 secs

     total energy              =    -329.48913573 Ry
     Harris-Foulkes estimate   =    -329.48914606 Ry
     estimated scf accuracy    <       0.00002179 Ry

     iteration #  3     ecut=    30.00 Ry     beta=0.70
     Davidson diagonalization with overlap
     ethr =  3.96E-08,  avg # of iterations =  2.0

     total cpu time spent up to now is        7.8 secs

     total energy              =    -329.48914021 Ry
     Harris-Foulkes estimate   =    -329.48914349 Ry
     estimated scf accuracy    <       0.00000886 Ry

     iteration #  4     ecut=    30.00 Ry     beta=0.70
     Davidson diagonalization with overlap
     ethr =  1.61E-08,  avg # of iterations =  2.0

     total cpu time spent up to now is        8.1 secs

     total energy              =    -329.48914246 Ry
     Harris-Foulkes estimate   =    -329.48914233 Ry
     estimated scf accuracy    <       0.00000096 Ry

     iteration #  5     ecut=    30.00 Ry     beta=0.70
     Davidson diagonalization with overlap
     ethr =  1.74E-09,  avg # of iterations =  2.0

     total cpu time spent up to now is        8.3 secs

     total energy              =    -329.48914266 Ry
     Harris-Foulkes estimate   =    -329.48914270 Ry
     estimated scf accuracy    <       0.00000013 Ry

     iteration #  6     ecut=    30.00 Ry     beta=0.70
     Davidson diagonalization with overlap
     ethr =  2.44E-10,  avg # of iterations =  2.0

     total cpu time spent up to now is        8.6 secs

     total energy              =    -329.48914264 Ry
     Harris-Foulkes estimate   =    -329.48914269 Ry
     estimated scf accuracy    <          8.2E-09 Ry

     iteration #  7     ecut=    30.00 Ry     beta=0.70
     Davidson diagonalization with overlap
     ethr =  1.49E-11,  avg # of iterations =  2.0

     total cpu time spent up to now is        8.8 secs

     total energy              =    -329.48914263 Ry
     Harris-Foulkes estimate   =    -329.48914264 Ry
     estimated scf accuracy    <          1.5E-09 Ry

     iteration #  8     ecut=    30.00 Ry     beta=0.70
     Davidson diagonalization with overlap
     ethr =  2.70E-12,  avg # of iterations =  3.0

     total cpu time spent up to now is        9.1 secs

     total energy              =    -329.48914262 Ry
     Harris-Foulkes estimate   =    -329.48914263 Ry
     estimated scf accuracy    <          4.1E-10 Ry

     iteration #  9     ecut=    30.00 Ry     beta=0.70
     Davidson diagonalization with overlap
     ethr =  7.37E-13,  avg # of iterations =  3.0

     total cpu time spent up to now is        9.4 secs

     End of self-consistent calculation

          k = 0.0000 0.0000 0.0000 ( 22119 PWs)   bands (ev):

    -8.4185  -7.7362  -7.6361  -7.2027  -6.9489  -6.7738  -6.6930  -6.4576
    -6.3034  -6.0373  -5.9918  -5.7645  -5.7274  -5.6614  -5.3950  -5.3771
    -5.3290  -5.2112  -5.1898  -5.1827  -5.1623  -5.1402  -4.9987  -4.8659
    -4.8603  -4.7218  -4.4060  -3.8027  -2.5393  -2.1389  -0.5600  -0.2286
     0.5211   0.8929

     the Fermi energy is    -3.7849 ev

!    total energy              =    -329.48914262 Ry
     Harris-Foulkes estimate   =    -329.48914262 Ry
     estimated scf accuracy    <          1.2E-10 Ry

     The total energy is the sum of the following terms:

     one-electron contribution =    -609.10408165 Ry
     hartree contribution      =     326.01139363 Ry
     xc contribution           =     -51.41152515 Ry
     ewald contribution        =       5.01632814 Ry
     smearing contrib. (-TS)   =      -0.00125759 Ry

     convergence has been achieved in   9 iterations

     Forces acting on atoms (Ry/au):

     atom    1 type  1   force =     0.00026519   -0.00296893   -0.00535690
     atom    2 type  1   force =    -0.00244337    0.00039033   -0.00172120
     atom    3 type  1   force =    -0.00315997    0.00626607    0.01016935
     atom    4 type  1   force =     0.00341574   -0.00032565   -0.00071178
     atom    5 type  1   force =     0.00192240   -0.00336182   -0.00237948

     Total force =     0.015240     Total SCF correction =     0.000037

     number of scf cycles    =   3
     number of bfgs steps    =   2

     energy   old            =    -329.4888132493 Ry
     energy   new            =    -329.4891426202 Ry

     CASE: energy  _new < energy  _old

     new trust radius        =       0.0245854292 bohr
     new conv_thr            =       0.0000000003 Ry


ATOMIC_POSITIONS (bohr)
Au      -2.015715477   1.447259831  -0.563933400
Au      -0.779626765   3.319021719   4.032304241
Au       2.908762913   1.203722500   0.556618385
Au       4.094154738   3.389710718   5.623920631
Au       7.599726590   1.695200232   2.351351143



     Writing output data file pwscf.save
     Check: negative starting charge=   -0.006412
     NEW-OLD atomic charge density approx. for the potential
     Check: negative starting charge=   -0.006410

     negative rho (up, down):  6.121E-05 0.000E+00

     total cpu time spent up to now is        9.6 secs

     per-process dynamical memory:    50.7 Mb

     Self-consistent Calculation

     iteration #  1     ecut=    30.00 Ry     beta=0.70
     Davidson diagonalization with overlap
     ethr =  1.00E-06,  avg # of iterations =  4.0

     negative rho (up, down):  2.647E-07 0.000E+00

     total cpu time spent up to now is       10.2 secs

     total energy              =    -329.48954627 Ry
     Harris-Foulkes estimate   =    -329.48955174 Ry
     estimated scf accuracy    <       0.00006155 Ry

     iteration #  2     ecut=    30.00 Ry     beta=0.70
     Davidson diagonalization with overlap
     ethr =  1.12E-07,  avg # of iterations =  3.0

     negative rho (up, down):  1.211E-08 0.000E+00

     total cpu time spent up to now is       10.5 secs

     total energy              =    -329.48955307 Ry
     Harris-Foulkes estimate   =    -329.48957754 Ry
     estimated scf accuracy    <       0.00004902 Ry

     iteration #  3     ecut=    30.00 Ry     beta=0.70
     Davidson diagonalization with overlap
     ethr =  8.91E-08,  avg # of iterations =  2.0

     total cpu time spent up to now is       10.7 secs

     total energy              =    -329.48956364 Ry
     Harris-Foulkes estimate   =    -329.48957023 Ry
     estimated scf accuracy    <       0.00001911 Ry

     iteration #  4     ecut=    30.00 Ry     beta=0.70
     Davidson diagonalization with overlap
     ethr =  3.47E-08,  avg # of iterations =  2.0

     total cpu time spent up to now is       10.9 secs

     total energy              =    -329.48956784 Ry
     Harris-Foulkes estimate   =    -329.48956832 Ry
     estimated scf accuracy    <       0.00000227 Ry

     iteration #  5     ecut=    30.00 Ry     beta=0.70
     Davidson diagonalization with overlap
     ethr =  4.13E-09,  avg # of iterations =  2.0

     total cpu time spent up to now is       11.1 secs

     total energy              =    -329.48956831 Ry
     Harris-Foulkes estimate   =    -329.48956839 Ry
     estimated scf accuracy    <       0.00000034 Ry

     iteration #  6     ecut=    30.00 Ry     beta=0.70
     Davidson diagonalization with overlap
     ethr =  6.12E-10,  avg # of iterations =  2.0

     total cpu time spent up to now is       11.5 secs

     total energy              =    -329.48956849 Ry
     Harris-Foulkes estimate   =    -329.48956839 Ry
     estimated scf accuracy    <       0.00000002 Ry

     iteration #  7     ecut=    30.00 Ry     beta=0.70
     Davidson diagonalization with overlap
     ethr =  3.36E-11,  avg # of iterations =  2.0

     total cpu time spent up to now is       11.8 secs

     total energy              =    -329.48956842 Ry
     Harris-Foulkes estimate   =    -329.48956850 Ry
     estimated scf accuracy    <          4.1E-09 Ry

     iteration #  8     ecut=    30.00 Ry     beta=0.70
     Davidson diagonalization with overlap
     ethr =  7.53E-12,  avg # of iterations =  2.0

     total cpu time spent up to now is       12.1 secs

     total energy              =    -329.48956843 Ry
     Harris-Foulkes estimate   =    -329.48956842 Ry
     estimated scf accuracy    <          1.6E-09 Ry

     iteration #  9     ecut=    30.00 Ry     beta=0.70
     Davidson diagonalization with overlap
     ethr =  2.94E-12,  avg # of iterations =  2.0

     total cpu time spent up to now is       12.3 secs

     total energy              =    -329.48956842 Ry
     Harris-Foulkes estimate   =    -329.48956843 Ry
     estimated scf accuracy    <          4.2E-10 Ry

     iteration # 10     ecut=    30.00 Ry     beta=0.70
     Davidson diagonalization with overlap
     ethr =  7.70E-13,  avg # of iterations =  2.0

     total cpu time spent up to now is       12.5 secs

     End of self-consistent calculation

          k = 0.0000 0.0000 0.0000 ( 22119 PWs)   bands (ev):

    -8.4337  -7.7471  -7.6340  -7.2125  -6.9401  -6.7817  -6.6880  -6.4607
    -6.3058  -6.0367  -5.9973  -5.7665  -5.7301  -5.6648  -5.3926  -5.3894
    -5.3270  -5.2112  -5.1956  -5.1860  -5.1638  -5.1403  -4.9992  -4.8727
    -4.8653  -4.7213  -4.4173  -3.7978  -2.5362  -2.1466  -0.5616  -0.2235
     0.5187   0.8921

     the Fermi energy is    -3.7771 ev

!    total energy              =    -329.48956843 Ry
     Harris-Foulkes estimate   =    -329.48956842 Ry
     estimated scf accuracy    <          4.2E-11 Ry

     The total energy is the sum of the following terms:

     one-electron contribution =    -609.27539205 Ry
     hartree contribution      =     326.09012962 Ry
     xc contribution           =     -51.41014873 Ry
     ewald contribution        =       5.10766065 Ry
     smearing contrib. (-TS)   =      -0.00181792 Ry

     convergence has been achieved in  10 iterations

     Forces acting on atoms (Ry/au):

     atom    1 type  1   force =     0.00033559   -0.00265054   -0.00437516
     atom    2 type  1   force =    -0.00160974    0.00043540   -0.00123262
     atom    3 type  1   force =    -0.00308114    0.00556783    0.00830820
     atom    4 type  1   force =     0.00208002   -0.00008696   -0.00039048
     atom    5 type  1   force =     0.00227528   -0.00326572   -0.00230995

     Total force =     0.012875     Total SCF correction =     0.000026

     number of scf cycles    =   4
     number of bfgs steps    =   3

     energy   old            =    -329.4891426202 Ry
     energy   new            =    -329.4895684304 Ry

     CASE: energy  _new < energy  _old

     new trust radius        =       0.0368781438 bohr
     new conv_thr            =       0.0000000004 Ry


ATOMIC_POSITIONS (bohr)
Au      -2.014899059   1.438255434  -0.579780216
Au      -0.786729096   3.320243764   4.027320276
Au       2.899254291   1.222782711   0.586723069
Au       4.103940274   3.388813499   5.621950148
Au       7.605735590   1.684819593   2.344047724



     Writing output data file pwscf.save
     Check: negative starting charge=   -0.006410
     NEW-OLD atomic charge density approx. for the potential
     Check: negative starting charge=   -0.006414

     negative rho (up, down):  1.809E-04 0.000E+00

     total cpu time spent up to now is       12.9 secs

     per-process dynamical memory:    50.7 Mb

     Self-consistent Calculation

     iteration #  1     ecut=    30.00 Ry     beta=0.70
     Davidson diagonalization with overlap
     ethr =  1.00E-06,  avg # of iterations =  4.0

     negative rho (up, down):  2.687E-06 0.000E+00

     total cpu time spent up to now is       13.3 secs

     total energy              =    -329.49002443 Ry
     Harris-Foulkes estimate   =    -329.49002595 Ry
     estimated scf accuracy    <       0.00014115 Ry

     iteration #  2     ecut=    30.00 Ry     beta=0.70
     Davidson diagonalization with overlap
     ethr =  2.57E-07,  avg # of iterations =  3.0

     negative rho (up, down):  2.054E-07 0.000E+00

     total cpu time spent up to now is       13.5 secs

     total energy              =    -329.49003707 Ry
     Harris-Foulkes estimate   =    -329.49009999 Ry
     estimated scf accuracy    <       0.00012589 Ry

     iteration #  3     ecut=    30.00 Ry     beta=0.70
     Davidson diagonalization with overlap
     ethr =  2.29E-07,  avg # of iterations =  2.0

     total cpu time spent up to now is       13.8 secs

     total energy              =    -329.49006399 Ry
     Harris-Foulkes estimate   =    -329.49008078 Ry
     estimated scf accuracy    <       0.00004786 Ry

     iteration #  4     ecut=    30.00 Ry     beta=0.70
     Davidson diagonalization with overlap
     ethr =  8.70E-08,  avg # of iterations =  2.0

     total cpu time spent up to now is       14.0 secs

     total energy              =    -329.49007438 Ry
     Harris-Foulkes estimate   =    -329.49007499 Ry
     estimated scf accuracy    <       0.00000448 Ry

     iteration #  5     ecut=    30.00 Ry     beta=0.70
     Davidson diagonalization with overlap
     ethr =  8.15E-09,  avg # of iterations =  2.0

     total cpu time spent up to now is       14.2 secs

     total energy              =    -329.49007524 Ry
     Harris-Foulkes estimate   =    -329.49007557 Ry
     estimated scf accuracy    <       0.00000091 Ry

     iteration #  6     ecut=    30.00 Ry     beta=0.70
     Davidson diagonalization with overlap
     ethr =  1.66E-09,  avg # of iterations =  2.0

     total cpu time spent up to now is       14.5 secs

     total energy              =    -329.49007533 Ry
     Harris-Foulkes estimate   =    -329.49007544 Ry
     estimated scf accuracy    <       0.00000007 Ry

     iteration #  7     ecut=    30.00 Ry     beta=0.70
     Davidson diagonalization with overlap
     ethr =  1.21E-10,  avg # of iterations =  2.0

     total cpu time spent up to now is       14.7 secs

     total energy              =    -329.49007541 Ry
     Harris-Foulkes estimate   =    -329.49007536 Ry
     estimated scf accuracy    <       0.00000003 Ry

     iteration #  8     ecut=    30.00 Ry     beta=0.70
     Davidson diagonalization with overlap
     ethr =  4.90E-11,  avg # of iterations =  2.0

     total cpu time spent up to now is       14.9 secs

     total energy              =    -329.49007540 Ry
     Harris-Foulkes estimate   =    -329.49007541 Ry
     estimated scf accuracy    <          4.6E-09 Ry

     iteration #  9     ecut=    30.00 Ry     beta=0.70
     Davidson diagonalization with overlap
     ethr =  8.33E-12,  avg # of iterations =  2.0

     total cpu time spent up to now is       15.2 secs

     total energy              =    -329.49007540 Ry
     Harris-Foulkes estimate   =    -329.49007540 Ry
     estimated scf accuracy    <          5.3E-10 Ry

     iteration # 10     ecut=    30.00 Ry     beta=0.70
     Davidson diagonalization with overlap
     ethr =  9.58E-13,  avg # of iterations =  2.0

     total cpu time spent up to now is       15.5 secs

     End of self-consistent calculation

          k = 0.0000 0.0000 0.0000 ( 22119 PWs)   bands (ev):

    -8.4552  -7.7619  -7.6326  -7.2260  -6.9259  -6.7928  -6.6781  -6.4655
    -6.3094  -6.0388  -6.0008  -5.7691  -5.7332  -5.6697  -5.4094  -5.3871
    -5.3239  -5.2145  -5.2019  -5.1889  -5.1657  -5.1391  -5.0000  -4.8852
    -4.8675  -4.7208  -4.4332  -3.7913  -2.5316  -2.1575  -0.5640  -0.2160
     0.5156   0.8915

     the Fermi energy is    -3.7670 ev

!    total energy              =    -329.49007540 Ry
     Harris-Foulkes estimate   =    -329.49007540 Ry
     estimated scf accuracy    <          6.6E-11 Ry

     The total energy is the sum of the following terms:

     one-electron contribution =    -609.50386199 Ry
     hartree contribution      =     326.19525568 Ry
     xc contribution           =     -51.40828639 Ry
     ewald contribution        =       5.22938936 Ry
     smearing contrib. (-TS)   =      -0.00257205 Ry

     convergence has been achieved in  10 iterations

     Forces acting on atoms (Ry/au):

     atom    1 type  1   force =     0.00044367   -0.00226547   -0.00302731
     atom    2 type  1   force =    -0.00071431    0.00043811   -0.00060696
     atom    3 type  1   force =    -0.00267001    0.00474341    0.00574646
     atom    4 type  1   force =     0.00052099    0.00014333    0.00002572
     atom    5 type  1   force =     0.00241966   -0.00305937   -0.00213792

     Total force =     0.009914     Total SCF correction =     0.000042

     number of scf cycles    =   5
     number of bfgs steps    =   4

     energy   old            =    -329.4895684304 Ry
     energy   new            =    -329.4900754015 Ry

     CASE: energy  _new < energy  _old

     new trust radius        =       0.0553172156 bohr
     new conv_thr            =       0.0000000005 Ry


ATOMIC_POSITIONS (bohr)
Au      -2.013324640   1.424224202  -0.603075946
Au      -0.796515959   3.322274009   4.020425917
Au       2.884389391   1.252458600   0.630976551
Au       4.116748898   3.387834586   5.619581264
Au       7.616004310   1.668123603   2.332353213



     Writing output data file pwscf.save
     Check: negative starting charge=   -0.006414
     NEW-OLD atomic charge density approx. for the potential
     Check: negative starting charge=   -0.006436

     negative rho (up, down):  4.421E-04 0.000E+00

     total cpu time spent up to now is       15.8 secs

     per-process dynamical memory:    50.7 Mb

     Self-consistent Calculation

     iteration #  1     ecut=    30.00 Ry     beta=0.70
     Davidson diagonalization with overlap
     ethr =  1.00E-06,  avg # of iterations =  5.0

     negative rho (up, down):  1.532E-05 0.000E+00

     total cpu time spent up to now is       16.2 secs

     total energy              =    -329.49046754 Ry
     Harris-Foulkes estimate   =    -329.49038059 Ry
     estimated scf accuracy    <       0.00032488 Ry

     iteration #  2     ecut=    30.00 Ry     beta=0.70
     Davidson diagonalization with overlap
     ethr =  5.91E-07,  avg # of iterations =  3.0

     negative rho (up, down):  2.390E-06 0.000E+00

     total cpu time spent up to now is       16.5 secs

     total energy              =    -329.49049336 Ry
     Harris-Foulkes estimate   =    -329.49065148 Ry
     estimated scf accuracy    <       0.00032683 Ry

     iteration #  3     ecut=    30.00 Ry     beta=0.70
     Davidson diagonalization with overlap
     ethr =  5.91E-07,  avg # of iterations =  2.0

     negative rho (up, down):  7.682E-08 0.000E+00

     total cpu time spent up to now is       16.7 secs

     total energy              =    -329.49056281 Ry
     Harris-Foulkes estimate   =    -329.49060369 Ry
     estimated scf accuracy    <       0.00011437 Ry

     iteration #  4     ecut=    30.00 Ry     beta=0.70
     Davidson diagonalization with overlap
     ethr =  2.08E-07,  avg # of iterations =  2.0

     total cpu time spent up to now is       16.9 secs

     total energy              =    -329.49058661 Ry
     Harris-Foulkes estimate   =    -329.49058804 Ry
     estimated scf accuracy    <       0.00000880 Ry

     iteration #  5     ecut=    30.00 Ry     beta=0.70
     Davidson diagonalization with overlap
     ethr =  1.60E-08,  avg # of iterations =  2.0

     total cpu time spent up to now is       17.3 secs

     total energy              =    -329.49058855 Ry
     Harris-Foulkes estimate   =    -329.49058916 Ry
     estimated scf accuracy    <       0.00000220 Ry

     iteration #  6     ecut=    30.00 Ry     beta=0.70
     Davidson diagonalization with overlap
     ethr =  4.00E-09,  avg # of iterations =  2.0

     total cpu time spent up to now is       17.7 secs

     total energy              =    -329.49058909 Ry
     Harris-Foulkes estimate   =    -329.49058904 Ry
     estimated scf accuracy    <       0.00000017 Ry

     iteration #  7     ecut=    30.00 Ry     beta=0.70
     Davidson diagonalization with overlap
     ethr =  3.08E-10,  avg # of iterations =  2.0

     total cpu time spent up to now is       17.9 secs

     total energy              =    -329.49058911 Ry
     Harris-Foulkes estimate   =    -329.49058915 Ry
     estimated scf accuracy    <       0.00000005 Ry

     iteration #  8     ecut=    30.00 Ry     beta=0.70
     Davidson diagonalization with overlap
     ethr =  9.59E-11,  avg # of iterations =  2.0

     total cpu time spent up to now is       18.1 secs

     total energy              =    -329.49058913 Ry
     Harris-Foulkes estimate   =    -329.49058912 Ry
     estimated scf accuracy    <       0.00000001 Ry

     iteration #  9     ecut=    30.00 Ry     beta=0.70
     Davidson diagonalization with overlap
     ethr =  2.01E-11,  avg # of iterations =  2.0

     total cpu time spent up to now is       18.4 secs

     total energy              =    -329.49058914 Ry
     Harris-Foulkes estimate   =    -329.49058914 Ry
     estimated scf accuracy    <          1.3E-09 Ry

     iteration # 10     ecut=    30.00 Ry     beta=0.70
     Davidson diagonalization with overlap
     ethr =  2.40E-12,  avg # of iterations =  2.0

     total cpu time spent up to now is       18.6 secs

     End of self-consistent calculation

          k = 0.0000 0.0000 0.0000 ( 22119 PWs)   bands (ev):

    -8.4851  -7.7817  -7.6355  -7.2418  -6.9027  -6.8081  -6.6604  -6.4747
    -6.3127  -6.0521  -5.9942  -5.7719  -5.7360  -5.6762  -5.4362  -5.3796
    -5.3188  -5.2290  -5.2014  -5.1917  -5.1678  -5.1350  -5.0009  -4.9025
    -4.8655  -4.7202  -4.4549  -3.7832  -2.5242  -2.1730  -0.5671  -0.2049
     0.5121   0.8916

     the Fermi energy is    -3.7544 ev

!    total energy              =    -329.49058914 Ry
     Harris-Foulkes estimate   =    -329.49058914 Ry
     estimated scf accuracy    <          2.0E-10 Ry

     The total energy is the sum of the following terms:

     one-electron contribution =    -609.80186194 Ry
     hartree contribution      =     326.33323289 Ry
     xc contribution           =     -51.40605038 Ry
     ewald contribution        =       5.38760696 Ry
     smearing contrib. (-TS)   =      -0.00351666 Ry

     convergence has been achieved in  10 iterations

     Forces acting on atoms (Ry/au):

     atom    1 type  1   force =     0.00074641   -0.00183242   -0.00129515
     atom    2 type  1   force =    -0.00000260    0.00040017    0.00011207
     atom    3 type  1   force =    -0.00164968    0.00370039    0.00256355
     atom    4 type  1   force =    -0.00116951    0.00034269    0.00048229
     atom    5 type  1   force =     0.00207538   -0.00261083   -0.00186276

     Total force =     0.006713     Total SCF correction =     0.000075

     number of scf cycles    =   6
     number of bfgs steps    =   5

     energy   old            =    -329.4900754015 Ry
     energy   new            =    -329.4905891368 Ry

     CASE: energy  _new < energy  _old

     new trust radius        =       0.0754302729 bohr
     new conv_thr            =       0.0000000004 Ry


ATOMIC_POSITIONS (bohr)
Au      -2.010079293   1.403886796  -0.633871931
Au      -0.809085827   3.325353466   4.012018207
Au       2.864001925   1.295149155   0.689726817
Au       4.131094321   3.387035227   5.617367904
Au       7.631370875   1.643490356   2.315020003



     Writing output data file pwscf.save
     Check: negative starting charge=   -0.006436
     NEW-OLD atomic charge density approx. for the potential
     Check: negative starting charge=   -0.006491

     negative rho (up, down):  7.957E-04 0.000E+00

     total cpu time spent up to now is       18.9 secs

     per-process dynamical memory:    50.7 Mb

     Self-consistent Calculation

     iteration #  1     ecut=    30.00 Ry     beta=0.70
     Davidson diagonalization with overlap
     ethr =  1.00E-06,  avg # of iterations =  6.0

     negative rho (up, down):  4.321E-05 0.000E+00

     total cpu time spent up to now is       19.7 secs

     total energy              =    -329.49066167 Ry
     Harris-Foulkes estimate   =    -329.49036064 Ry
     estimated scf accuracy    <       0.00061657 Ry

     iteration #  2     ecut=    30.00 Ry     beta=0.70
     Davidson diagonalization with overlap
     ethr =  1.12E-06,  avg # of iterations =  4.0

     negative rho (up, down):  9.966E-06 0.000E+00

     total cpu time spent up to now is       20.0 secs

     total energy              =    -329.49070253 Ry
     Harris-Foulkes estimate   =    -329.49102503 Ry
     estimated scf accuracy    <       0.00068045 Ry

     iteration #  3     ecut=    30.00 Ry     beta=0.70
     Davidson diagonalization with overlap
     ethr =  1.12E-06,  avg # of iterations =  2.0

     negative rho (up, down):  5.949E-07 0.000E+00

     total cpu time spent up to now is       20.3 secs

     total energy              =    -329.49084974 Ry
     Harris-Foulkes estimate   =    -329.49092699 Ry
     estimated scf accuracy    <       0.00022031 Ry

     iteration #  4     ecut=    30.00 Ry     beta=0.70
     Davidson diagonalization with overlap
     ethr =  4.01E-07,  avg # of iterations =  2.0

     total cpu time spent up to now is       20.5 secs

     total energy              =    -329.49089441 Ry
     Harris-Foulkes estimate   =    -329.49089701 Ry
     estimated scf accuracy    <       0.00001545 Ry

     iteration #  5     ecut=    30.00 Ry     beta=0.70
     Davidson diagonalization with overlap
     ethr =  2.81E-08,  avg # of iterations =  3.0

     total cpu time spent up to now is       20.8 secs

     total energy              =    -329.49089786 Ry
     Harris-Foulkes estimate   =    -329.49089948 Ry
     estimated scf accuracy    <       0.00000506 Ry

     iteration #  6     ecut=    30.00 Ry     beta=0.70
     Davidson diagonalization with overlap
     ethr =  9.20E-09,  avg # of iterations =  2.0

     total cpu time spent up to now is       21.1 secs

     total energy              =    -329.49089874 Ry
     Harris-Foulkes estimate   =    -329.49089892 Ry
     estimated scf accuracy    <       0.00000032 Ry

     iteration #  7     ecut=    30.00 Ry     beta=0.70
     Davidson diagonalization with overlap
     ethr =  5.83E-10,  avg # of iterations =  3.0

     total cpu time spent up to now is       21.5 secs

     total energy              =    -329.49089894 Ry
     Harris-Foulkes estimate   =    -329.49089884 Ry
     estimated scf accuracy    <       0.00000008 Ry

     iteration #  8     ecut=    30.00 Ry     beta=0.70
     Davidson diagonalization with overlap
     ethr =  1.47E-10,  avg # of iterations =  2.0

     total cpu time spent up to now is       21.7 secs

     total energy              =    -329.49089894 Ry
     Harris-Foulkes estimate   =    -329.49089897 Ry
     estimated scf accuracy    <       0.00000002 Ry

     iteration #  9     ecut=    30.00 Ry     beta=0.70
     Davidson diagonalization with overlap
     ethr =  4.30E-11,  avg # of iterations =  2.0

     total cpu time spent up to now is       21.9 secs

     total energy              =    -329.49089901 Ry
     Harris-Foulkes estimate   =    -329.49089895 Ry
     estimated scf accuracy    <          3.1E-09 Ry

     iteration # 10     ecut=    30.00 Ry     beta=0.70
     Davidson diagonalization with overlap
     ethr =  5.71E-12,  avg # of iterations =  2.0

     total cpu time spent up to now is       22.2 secs

     End of self-consistent calculation

          k = 0.0000 0.0000 0.0000 ( 22119 PWs)   bands (ev):

    -8.5219  -7.8053  -7.6521  -7.2507  -6.8678  -6.8264  -6.6328  -6.4928
    -6.3118  -6.0799  -5.9732  -5.7744  -5.7369  -5.6829  -5.4675  -5.3676
    -5.3118  -5.2501  -5.1984  -5.1930  -5.1691  -5.1277  -5.0013  -4.9224
    -4.8541  -4.7199  -4.4808  -3.7751  -2.5130  -2.1927  -0.5709  -0.1899
     0.5094   0.8935

     the Fermi energy is    -3.7420 ev

!    total energy              =    -329.49089903 Ry
     Harris-Foulkes estimate   =    -329.49089901 Ry
     estimated scf accuracy    <          3.5E-10 Ry

     The total energy is the sum of the following terms:

     one-electron contribution =    -610.14387902 Ry
     hartree contribution      =     326.49380369 Ry
     xc contribution           =     -51.40416459 Ry
     ewald contribution        =       5.56780869 Ry
     smearing contrib. (-TS)   =      -0.00446779 Ry

     convergence has been achieved in  10 iterations

     Forces acting on atoms (Ry/au):

     atom    1 type  1   force =     0.00131034   -0.00111860    0.00053270
     atom    2 type  1   force =    -0.00002123    0.00044760    0.00078035
     atom    3 type  1   force =     0.00014785    0.00190064   -0.00056995
     atom    4 type  1   force =    -0.00238530    0.00048383    0.00073623
     atom    5 type  1   force =     0.00094835   -0.00171347   -0.00147933

     Total force =     0.004529     Total SCF correction =     0.000098

     number of scf cycles    =   7
     number of bfgs steps    =   6

     energy   old            =    -329.4905891368 Ry
     energy   new            =    -329.4908990267 Ry

     CASE: energy  _new < energy  _old

     new trust radius        =       0.0174843250 bohr
     new conv_thr            =       0.0000000002 Ry


ATOMIC_POSITIONS (bohr)
Au      -2.007912824   1.398189553  -0.640171606
Au      -0.812150052   3.326511428   4.010935019
Au       2.859868542   1.306606748   0.702270355
Au       4.131967326   3.387322379   5.617601636
Au       7.635529009   1.636284892   2.309625596



     Writing output data file pwscf.save
     Check: negative starting charge=   -0.006491
     NEW-OLD atomic charge density approx. for the potential
     Check: negative starting charge=   -0.006507

     negative rho (up, down):  2.442E-05 0.000E+00

     total cpu time spent up to now is       22.4 secs

     per-process dynamical memory:    50.7 Mb

     Self-consistent Calculation

     iteration #  1     ecut=    30.00 Ry     beta=0.70
     Davidson diagonalization with overlap
     ethr =  1.00E-06,  avg # of iterations =  4.0

     Threshold (ethr) on eigenvalues was too large:
     Diagonalizing with lowered threshold

     Davidson diagonalization with overlap
     ethr =  6.78E-08,  avg # of iterations =  1.0

     negative rho (up, down):  4.378E-08 0.000E+00

     total cpu time spent up to now is       23.0 secs

     total energy              =    -329.49091501 Ry
     Harris-Foulkes estimate   =    -329.49092392 Ry
     estimated scf accuracy    <       0.00003759 Ry

     iteration #  2     ecut=    30.00 Ry     beta=0.70
     Davidson diagonalization with overlap
     ethr =  6.83E-08,  avg # of iterations =  2.0

     total cpu time spent up to now is       23.2 secs

     total energy              =    -329.49091609 Ry
     Harris-Foulkes estimate   =    -329.49093763 Ry
     estimated scf accuracy    <       0.00004456 Ry

     iteration #  3     ecut=    30.00 Ry     beta=0.70
     Davidson diagonalization with overlap
     ethr =  6.83E-08,  avg # of iterations =  2.0

     total cpu time spent up to now is       23.5 secs

     total energy              =    -329.49092598 Ry
     Harris-Foulkes estimate   =    -329.49093045 Ry
     estimated scf accuracy    <       0.00001354 Ry

     iteration #  4     ecut=    30.00 Ry     beta=0.70
     Davidson diagonalization with overlap
     ethr =  2.46E-08,  avg # of iterations =  2.0

     total cpu time spent up to now is       23.7 secs

     total energy              =    -329.49092934 Ry
     Harris-Foulkes estimate   =    -329.49092884 Ry
     estimated scf accuracy    <       0.00000089 Ry

     iteration #  5     ecut=    30.00 Ry     beta=0.70
     Davidson diagonalization with overlap
     ethr =  1.61E-09,  avg # of iterations =  3.0

     total cpu time spent up to now is       23.9 secs

     total energy              =    -329.49092956 Ry
     Harris-Foulkes estimate   =    -329.49092966 Ry
     estimated scf accuracy    <       0.00000034 Ry

     iteration #  6     ecut=    30.00 Ry     beta=0.70
     Davidson diagonalization with overlap
     ethr =  6.10E-10,  avg # of iterations =  2.0

     total cpu time spent up to now is       24.1 secs

     total energy              =    -329.49092970 Ry
     Harris-Foulkes estimate   =    -329.49092964 Ry
     estimated scf accuracy    <       0.00000002 Ry

     iteration #  7     ecut=    30.00 Ry     beta=0.70
     Davidson diagonalization with overlap
     ethr =  4.08E-11,  avg # of iterations =  3.0

     total cpu time spent up to now is       24.4 secs

     total energy              =    -329.49092967 Ry
     Harris-Foulkes estimate   =    -329.49092971 Ry
     estimated scf accuracy    <          5.4E-09 Ry

     iteration #  8     ecut=    30.00 Ry     beta=0.70
     Davidson diagonalization with overlap
     ethr =  9.83E-12,  avg # of iterations =  2.0

     total cpu time spent up to now is       24.7 secs

     total energy              =    -329.49092972 Ry
     Harris-Foulkes estimate   =    -329.49092967 Ry
     estimated scf accuracy    <          1.4E-09 Ry

     iteration #  9     ecut=    30.00 Ry     beta=0.70
     Davidson diagonalization with overlap
     ethr =  2.53E-12,  avg # of iterations =  2.0

     total cpu time spent up to now is       24.9 secs

     End of self-consistent calculation

          k = 0.0000 0.0000 0.0000 ( 22119 PWs)   bands (ev):

    -8.5298  -7.8089  -7.6588  -7.2489  -6.8596  -6.8302  -6.6240  -6.4973
    -6.3104  -6.0868  -5.9663  -5.7750  -5.7367  -5.6843  -5.4727  -5.3648
    -5.3107  -5.2545  -5.1979  -5.1927  -5.1693  -5.1261  -5.0006  -4.9263
    -4.8499  -4.7203  -4.4858  -3.7748  -2.5095  -2.1972  -0.5715  -0.1870
     0.5100   0.8949

     the Fermi energy is    -3.7411 ev

!    total energy              =    -329.49092971 Ry
     Harris-Foulkes estimate   =    -329.49092972 Ry
     estimated scf accuracy    <          2.2E-10 Ry

     The total energy is the sum of the following terms:

     one-electron contribution =    -610.19075069 Ry
     hartree contribution      =     326.51609774 Ry
     xc contribution           =     -51.40389662 Ry
     ewald contribution        =       5.59221720 Ry
     smearing contrib. (-TS)   =      -0.00459734 Ry

     convergence has been achieved in   9 iterations

     Forces acting on atoms (Ry/au):

     atom    1 type  1   force =     0.00125842   -0.00085376    0.00082015
     atom    2 type  1   force =    -0.00025257    0.00044176    0.00086201
     atom    3 type  1   force =     0.00068380    0.00141644   -0.00104727
     atom    4 type  1   force =    -0.00212789    0.00032462    0.00052087
     atom    5 type  1   force =     0.00043823   -0.00132905   -0.00115575

     Total force =     0.003969     Total SCF correction =     0.000058

     number of scf cycles    =   8
     number of bfgs steps    =   7

     energy   old            =    -329.4908990267 Ry
     energy   new            =    -329.4909297081 Ry

     CASE: energy  _new < energy  _old

     new trust radius        =       0.0131663537 bohr
     new conv_thr            =            1.0E-10 Ry


ATOMIC_POSITIONS (bohr)
Au      -2.004327880   1.392674979  -0.643490677
Au      -0.814976754   3.328055150   4.011489434
Au       2.858116703   1.317237505   0.709838110
Au       4.129429106   3.387978554   5.618523438
Au       7.639060825   1.628968812   2.303900694



     Writing output data file pwscf.save
     Check: negative starting charge=   -0.006507
     NEW-OLD atomic charge density approx. for the potential
     Check: negative starting charge=   -0.006520

     negative rho (up, down):  1.348E-05 0.000E+00

     total cpu time spent up to now is       25.1 secs

     per-process dynamical memory:    50.7 Mb

     Self-consistent Calculation

     iteration #  1     ecut=    30.00 Ry     beta=0.70
     Davidson diagonalization with overlap
     ethr =  1.00E-06,  avg # of iterations =  4.0

     Threshold (ethr) on eigenvalues was too large:
     Diagonalizing with lowered threshold

     Davidson diagonalization with overlap
     ethr =  5.06E-08,  avg # of iterations =  1.0

     negative rho (up, down):  1.110E-08 0.000E+00

     total cpu time spent up to now is       25.7 secs

     total energy              =    -329.49094731 Ry
     Harris-Foulkes estimate   =    -329.49095792 Ry
     estimated scf accuracy    <       0.00002857 Ry

     iteration #  2     ecut=    30.00 Ry     beta=0.70
     Davidson diagonalization with overlap
     ethr =  5.19E-08,  avg # of iterations =  2.0

     total cpu time spent up to now is       25.9 secs

     total energy              =    -329.49094803 Ry
     Harris-Foulkes estimate   =    -329.49096543 Ry
     estimated scf accuracy    <       0.00003708 Ry

     iteration #  3     ecut=    30.00 Ry     beta=0.70
     Davidson diagonalization with overlap
     ethr =  5.19E-08,  avg # of iterations =  2.0

     total cpu time spent up to now is       26.2 secs

     total energy              =    -329.49095562 Ry
     Harris-Foulkes estimate   =    -329.49095951 Ry
     estimated scf accuracy    <       0.00001019 Ry

     iteration #  4     ecut=    30.00 Ry     beta=0.70
     Davidson diagonalization with overlap
     ethr =  1.85E-08,  avg # of iterations =  2.0

     total cpu time spent up to now is       26.4 secs

     total energy              =    -329.49095806 Ry
     Harris-Foulkes estimate   =    -329.49095777 Ry
     estimated scf accuracy    <       0.00000064 Ry

     iteration #  5     ecut=    30.00 Ry     beta=0.70
     Davidson diagonalization with overlap
     ethr =  1.16E-09,  avg # of iterations =  3.0

     total cpu time spent up to now is       26.7 secs

     total energy              =    -329.49095825 Ry
     Harris-Foulkes estimate   =    -329.49095826 Ry
     estimated scf accuracy    <       0.00000018 Ry

     iteration #  6     ecut=    30.00 Ry     beta=0.70
     Davidson diagonalization with overlap
     ethr =  3.19E-10,  avg # of iterations =  2.0

     total cpu time spent up to now is       27.0 secs

     total energy              =    -329.49095831 Ry
     Harris-Foulkes estimate   =    -329.49095830 Ry
     estimated scf accuracy    <       0.00000002 Ry

     iteration #  7     ecut=    30.00 Ry     beta=0.70
     Davidson diagonalization with overlap
     ethr =  3.33E-11,  avg # of iterations =  3.0

     total cpu time spent up to now is       27.3 secs

     total energy              =    -329.49095828 Ry
     Harris-Foulkes estimate   =    -329.49095831 Ry
     estimated scf accuracy    <          2.9E-09 Ry

     iteration #  8     ecut=    30.00 Ry     beta=0.70
     Davidson diagonalization with overlap
     ethr =  5.23E-12,  avg # of iterations =  2.0

     total cpu time spent up to now is       27.5 secs

     total energy              =    -329.49095828 Ry
     Harris-Foulkes estimate   =    -329.49095828 Ry
     estimated scf accuracy    <          1.3E-09 Ry

     iteration #  9     ecut=    30.00 Ry     beta=0.70
     Davidson diagonalization with overlap
     ethr =  2.41E-12,  avg # of iterations =  2.0

     total cpu time spent up to now is       27.7 secs

     total energy              =    -329.49095829 Ry
     Harris-Foulkes estimate   =    -329.49095828 Ry
     estimated scf accuracy    <          1.6E-10 Ry

     iteration # 10     ecut=    30.00 Ry     beta=0.70
     Davidson diagonalization with overlap
     ethr =  2.90E-13,  avg # of iterations =  2.0

     total cpu time spent up to now is       28.0 secs

     End of self-consistent calculation

          k = 0.0000 0.0000 0.0000 ( 22119 PWs)   bands (ev):

    -8.5354  -7.8093  -7.6647  -7.2446  -6.8540  -6.8327  -6.6147  -6.4995
    -6.3086  -6.0918  -5.9595  -5.7756  -5.7365  -5.6855  -5.4747  -5.3629
    -5.3103  -5.2572  -5.1982  -5.1914  -5.1696  -5.1249  -4.9991  -4.9287
    -4.8462  -4.7214  -4.4886  -3.7764  -2.5059  -2.2006  -0.5718  -0.1859
     0.5121   0.8972

     the Fermi energy is    -3.7426 ev

!    total energy              =    -329.49095828 Ry
     Harris-Foulkes estimate   =    -329.49095829 Ry
     estimated scf accuracy    <          1.7E-11 Ry

     The total energy is the sum of the following terms:

     one-electron contribution =    -610.19085321 Ry
     hartree contribution      =     326.51614478 Ry
     xc contribution           =     -51.40371058 Ry
     ewald contribution        =       5.59207882 Ry
     smearing contrib. (-TS)   =      -0.00461808 Ry

     convergence has been achieved in  10 iterations

     Forces acting on atoms (Ry/au):

     atom    1 type  1   force =     0.00098080   -0.00057011    0.00097765
     atom    2 type  1   force =    -0.00056358    0.00036869    0.00081319
     atom    3 type  1   force =     0.00111613    0.00105272   -0.00124189
     atom    4 type  1   force =    -0.00138893   -0.00002215    0.00004132
     atom    5 type  1   force =    -0.00014442   -0.00082915   -0.00059027

     Total force =     0.003200     Total SCF correction =     0.000020

     number of scf cycles    =   9
     number of bfgs steps    =   8

     energy   old            =    -329.4909297081 Ry
     energy   new            =    -329.4909582757 Ry

     CASE: energy  _new < energy  _old

     new trust radius        =       0.0094533316 bohr
     new conv_thr            =            1.0E-10 Ry


ATOMIC_POSITIONS (bohr)
Au      -1.999193820   1.387673265  -0.642542233
Au      -0.817670582   3.330012707   4.014213260
Au       2.859890237   1.326507093   0.710381068
Au       4.123005079   3.388724137   5.619810443
Au       7.641271086   1.621997799   2.298398462



     Writing output data file pwscf.save
     Check: negative starting charge=   -0.006520
     NEW-OLD atomic charge density approx. for the potential
     Check: negative starting charge=   -0.006526

     negative rho (up, down):  9.326E-06 0.000E+00

     total cpu time spent up to now is       28.2 secs

     per-process dynamical memory:    50.7 Mb

     Self-consistent Calculation

     iteration #  1     ecut=    30.00 Ry     beta=0.70
     Davidson diagonalization with overlap
     ethr =  1.00E-06,  avg # of iterations =  4.0

     Threshold (ethr) on eigenvalues was too large:
     Diagonalizing with lowered threshold

     Davidson diagonalization with overlap
     ethr =  4.24E-08,  avg # of iterations =  1.0

     total cpu time spent up to now is       29.1 secs

     total energy              =    -329.49098067 Ry
     Harris-Foulkes estimate   =    -329.49099142 Ry
     estimated scf accuracy    <       0.00002416 Ry

     iteration #  2     ecut=    30.00 Ry     beta=0.70
     Davidson diagonalization with overlap
     ethr =  4.39E-08,  avg # of iterations =  2.0

     total cpu time spent up to now is       29.3 secs

     total energy              =    -329.49098060 Ry
     Harris-Foulkes estimate   =    -329.49099631 Ry
     estimated scf accuracy    <       0.00003253 Ry

     iteration #  3     ecut=    30.00 Ry     beta=0.70
     Davidson diagonalization with overlap
     ethr =  4.39E-08,  avg # of iterations =  2.0

     total cpu time spent up to now is       29.5 secs

     total energy              =    -329.49098688 Ry
     Harris-Foulkes estimate   =    -329.49099037 Ry
     estimated scf accuracy    <       0.00000835 Ry

     iteration #  4     ecut=    30.00 Ry     beta=0.70
     Davidson diagonalization with overlap
     ethr =  1.52E-08,  avg # of iterations =  2.0

     total cpu time spent up to now is       29.8 secs

     total energy              =    -329.49098824 Ry
     Harris-Foulkes estimate   =    -329.49098873 Ry
     estimated scf accuracy    <       0.00000060 Ry

     iteration #  5     ecut=    30.00 Ry     beta=0.70
     Davidson diagonalization with overlap
     ethr =  1.09E-09,  avg # of iterations =  2.0

     total cpu time spent up to now is       30.0 secs

     total energy              =    -329.49098841 Ry
     Harris-Foulkes estimate   =    -329.49098840 Ry
     estimated scf accuracy    <       0.00000006 Ry

     iteration #  6     ecut=    30.00 Ry     beta=0.70
     Davidson diagonalization with overlap
     ethr =  1.01E-10,  avg # of iterations =  2.0

     total cpu time spent up to now is       30.2 secs

     total energy              =    -329.49098849 Ry
     Harris-Foulkes estimate   =    -329.49098843 Ry
     estimated scf accuracy    <       0.00000001 Ry

     iteration #  7     ecut=    30.00 Ry     beta=0.70
     Davidson diagonalization with overlap
     ethr =  2.44E-11,  avg # of iterations =  2.0

     total cpu time spent up to now is       30.7 secs

     total energy              =    -329.49098848 Ry
     Harris-Foulkes estimate   =    -329.49098849 Ry
     estimated scf accuracy    <          1.5E-09 Ry

     iteration #  8     ecut=    30.00 Ry     beta=0.70
     Davidson diagonalization with overlap
     ethr =  2.81E-12,  avg # of iterations =  2.0

     total cpu time spent up to now is       30.9 secs

     total energy              =    -329.49098848 Ry
     Harris-Foulkes estimate   =    -329.49098848 Ry
     estimated scf accuracy    <          3.3E-10 Ry

     iteration #  9     ecut=    30.00 Ry     beta=0.70
     Davidson diagonalization with overlap
     ethr =  5.95E-13,  avg # of iterations =  3.0

     total cpu time spent up to now is       31.2 secs

     End of self-consistent calculation

          k = 0.0000 0.0000 0.0000 ( 22119 PWs)   bands (ev):

    -8.5382  -7.8063  -7.6683  -7.2388  -6.8518  -6.8341  -6.6060  -6.4986
    -6.3069  -6.0941  -5.9539  -5.7762  -5.7365  -5.6867  -5.4728  -5.3625
    -5.3110  -5.2577  -5.1994  -5.1894  -5.1700  -5.1244  -4.9966  -4.9291
    -4.8436  -4.7234  -4.4884  -3.7799  -2.5023  -2.2024  -0.5717  -0.1871
     0.5157   0.9004

     the Fermi energy is    -3.7466 ev

!    total energy              =    -329.49098852 Ry
     Harris-Foulkes estimate   =    -329.49098848 Ry
     estimated scf accuracy    <          9.6E-11 Ry

     The total energy is the sum of the following terms:

     one-electron contribution =    -610.15053178 Ry
     hartree contribution      =     326.49736457 Ry
     xc contribution           =     -51.40368557 Ry
     ewald contribution        =       5.57037650 Ry
     smearing contrib. (-TS)   =      -0.00451223 Ry

     convergence has been achieved in   9 iterations

     Forces acting on atoms (Ry/au):

     atom    1 type  1   force =     0.00044923   -0.00029528    0.00097717
     atom    2 type  1   force =    -0.00087794    0.00019622    0.00059949
     atom    3 type  1   force =     0.00127987    0.00087951   -0.00111158
     atom    4 type  1   force =    -0.00022116   -0.00052518   -0.00065618
     atom    5 type  1   force =    -0.00063000   -0.00025526    0.00019110

     Total force =     0.002704     Total SCF correction =     0.000039

     number of scf cycles    =  10
     number of bfgs steps    =   9

     energy   old            =    -329.4909582757 Ry
     energy   new            =    -329.4909885184 Ry

     CASE: energy  _new < energy  _old

     new trust radius        =       0.0102480147 bohr
     new conv_thr            =            1.0E-10 Ry


ATOMIC_POSITIONS (bohr)
Au      -1.994445615   1.384915402  -0.637134363
Au      -0.819731784   3.331657292   4.018316796
Au       2.865078651   1.331609378   0.703165193
Au       4.115379639   3.388768111   5.620314869
Au       7.641021109   1.617964817   2.295598506



     Writing output data file pwscf.save
     Check: negative starting charge=   -0.006526
     NEW-OLD atomic charge density approx. for the potential
     Check: negative starting charge=   -0.006525

     negative rho (up, down):  7.078E-06 0.000E+00

     total cpu time spent up to now is       31.4 secs

     per-process dynamical memory:    50.7 Mb

     Self-consistent Calculation

     iteration #  1     ecut=    30.00 Ry     beta=0.70
     Davidson diagonalization with overlap
     ethr =  1.00E-06,  avg # of iterations =  4.0

     Threshold (ethr) on eigenvalues was too large:
     Diagonalizing with lowered threshold

     Davidson diagonalization with overlap
     ethr =  3.45E-08,  avg # of iterations =  1.0

     total cpu time spent up to now is       32.0 secs

     total energy              =    -329.49100586 Ry
     Harris-Foulkes estimate   =    -329.49101442 Ry
     estimated scf accuracy    <       0.00001979 Ry

     iteration #  2     ecut=    30.00 Ry     beta=0.70
     Davidson diagonalization with overlap
     ethr =  3.60E-08,  avg # of iterations =  2.0

     total cpu time spent up to now is       32.2 secs

     total energy              =    -329.49100651 Ry
     Harris-Foulkes estimate   =    -329.49101747 Ry
     estimated scf accuracy    <       0.00002212 Ry

     iteration #  3     ecut=    30.00 Ry     beta=0.70
     Davidson diagonalization with overlap
     ethr =  3.60E-08,  avg # of iterations =  2.0

     total cpu time spent up to now is       32.5 secs

     total energy              =    -329.49101076 Ry
     Harris-Foulkes estimate   =    -329.49101341 Ry
     estimated scf accuracy    <       0.00000627 Ry

     iteration #  4     ecut=    30.00 Ry     beta=0.70
     Davidson diagonalization with overlap
     ethr =  1.14E-08,  avg # of iterations =  2.0

     total cpu time spent up to now is       32.7 secs

     total energy              =    -329.49101163 Ry
     Harris-Foulkes estimate   =    -329.49101233 Ry
     estimated scf accuracy    <       0.00000076 Ry

     iteration #  5     ecut=    30.00 Ry     beta=0.70
     Davidson diagonalization with overlap
     ethr =  1.38E-09,  avg # of iterations =  2.0

     total cpu time spent up to now is       32.9 secs

     total energy              =    -329.49101170 Ry
     Harris-Foulkes estimate   =    -329.49101181 Ry
     estimated scf accuracy    <       0.00000008 Ry

     iteration #  6     ecut=    30.00 Ry     beta=0.70
     Davidson diagonalization with overlap
     ethr =  1.48E-10,  avg # of iterations =  2.0

     total cpu time spent up to now is       33.2 secs

     total energy              =    -329.49101171 Ry
     Harris-Foulkes estimate   =    -329.49101172 Ry
     estimated scf accuracy    <          7.8E-09 Ry

     iteration #  7     ecut=    30.00 Ry     beta=0.70
     Davidson diagonalization with overlap
     ethr =  1.42E-11,  avg # of iterations =  2.0

     total cpu time spent up to now is       33.4 secs

     total energy              =    -329.49101174 Ry
     Harris-Foulkes estimate   =    -329.49101171 Ry
     estimated scf accuracy    <          2.6E-09 Ry

     iteration #  8     ecut=    30.00 Ry     beta=0.70
     Davidson diagonalization with overlap
     ethr =  4.66E-12,  avg # of iterations =  2.0

     total cpu time spent up to now is       33.7 secs

     total energy              =    -329.49101171 Ry
     Harris-Foulkes estimate   =    -329.49101174 Ry
     estimated scf accuracy    <          5.4E-10 Ry

     iteration #  9     ecut=    30.00 Ry     beta=0.70
     Davidson diagonalization with overlap
     ethr =  9.90E-13,  avg # of iterations =  2.0

     total cpu time spent up to now is       33.9 secs

     total energy              =    -329.49101171 Ry
     Harris-Foulkes estimate   =    -329.49101171 Ry
     estimated scf accuracy    <          1.6E-10 Ry

     iteration # 10     ecut=    30.00 Ry     beta=0.70
     Davidson diagonalization with overlap
     ethr =  2.96E-13,  avg # of iterations =  2.0

     total cpu time spent up to now is       34.2 secs

     End of self-consistent calculation

          k = 0.0000 0.0000 0.0000 ( 22119 PWs)   bands (ev):

    -8.5376  -7.8016  -7.6675  -7.2342  -6.8538  -6.8346  -6.6020  -6.4946
    -6.3062  -6.0927  -5.9523  -5.7768  -5.7367  -5.6876  -5.4679  -5.3636
    -5.3124  -5.2556  -5.2007  -5.1877  -5.1703  -5.1247  -4.9940  -4.9273
    -4.8430  -4.7255  -4.4852  -3.7837  -2.5001  -2.2015  -0.5712  -0.1901
     0.5197   0.9034

     the Fermi energy is    -3.7512 ev

!    total energy              =    -329.49101173 Ry
     Harris-Foulkes estimate   =    -329.49101171 Ry
     estimated scf accuracy    <          9.8E-12 Ry

     The total energy is the sum of the following terms:

     one-electron contribution =    -610.10866559 Ry
     hartree contribution      =     326.47845877 Ry
     xc contribution           =     -51.40392650 Ry
     ewald contribution        =       5.54744170 Ry
     smearing contrib. (-TS)   =      -0.00432011 Ry

     convergence has been achieved in  10 iterations

     Forces acting on atoms (Ry/au):

     atom    1 type  1   force =    -0.00013850   -0.00016105    0.00075524
     atom    2 type  1   force =    -0.00101774   -0.00002635    0.00033563
     atom    3 type  1   force =     0.00100147    0.00098413   -0.00074520
     atom    4 type  1   force =     0.00082787   -0.00093834   -0.00120005
     atom    5 type  1   force =    -0.00067309    0.00014161    0.00085439

     Total force =     0.002916     Total SCF correction =     0.000017

     number of scf cycles    =  11
     number of bfgs steps    =  10

     energy   old            =    -329.4909885184 Ry
     energy   new            =    -329.4910117258 Ry

     CASE: energy  _new < energy  _old

     new trust radius        =       0.0107174734 bohr
     new conv_thr            =            1.0E-10 Ry


ATOMIC_POSITIONS (bohr)
Au      -1.991633423   1.383806850  -0.631005737
Au      -0.821626815   3.332554596   4.021943969
Au       2.870617644   1.334327557   0.694401901
Au       4.110438682   3.387665212   5.619273310
Au       7.639505912   1.616560785   2.295647557



     Writing output data file pwscf.save
     Check: negative starting charge=   -0.006525
     NEW-OLD atomic charge density approx. for the potential
     Check: negative starting charge=   -0.006520

     negative rho (up, down):  3.973E-06 0.000E+00

     total cpu time spent up to now is       34.5 secs

     per-process dynamical memory:    50.7 Mb

     Self-consistent Calculation

     iteration #  1     ecut=    30.00 Ry     beta=0.70
     Davidson diagonalization with overlap
     ethr =  1.00E-06,  avg # of iterations =  3.0

     Threshold (ethr) on eigenvalues was too large:
     Diagonalizing with lowered threshold

     Davidson diagonalization with overlap
     ethr =  2.71E-08,  avg # of iterations =  2.0

     total cpu time spent up to now is       35.0 secs

     total energy              =    -329.49102228 Ry
     Harris-Foulkes estimate   =    -329.49102872 Ry
     estimated scf accuracy    <       0.00001608 Ry

     iteration #  2     ecut=    30.00 Ry     beta=0.70
     Davidson diagonalization with overlap
     ethr =  2.92E-08,  avg # of iterations =  3.0

     total cpu time spent up to now is       35.3 secs

     total energy              =    -329.49102314 Ry
     Harris-Foulkes estimate   =    -329.49103169 Ry
     estimated scf accuracy    <       0.00001720 Ry

     iteration #  3     ecut=    30.00 Ry     beta=0.70
     Davidson diagonalization with overlap
     ethr =  2.92E-08,  avg # of iterations =  2.0

     total cpu time spent up to now is       35.5 secs

     total energy              =    -329.49102667 Ry
     Harris-Foulkes estimate   =    -329.49102850 Ry
     estimated scf accuracy    <       0.00000471 Ry

     iteration #  4     ecut=    30.00 Ry     beta=0.70
     Davidson diagonalization with overlap
     ethr =  8.56E-09,  avg # of iterations =  2.0

     total cpu time spent up to now is       35.7 secs

     total energy              =    -329.49102708 Ry
     Harris-Foulkes estimate   =    -329.49102784 Ry
     estimated scf accuracy    <       0.00000056 Ry

     iteration #  5     ecut=    30.00 Ry     beta=0.70
     Davidson diagonalization with overlap
     ethr =  1.02E-09,  avg # of iterations =  2.0

     total cpu time spent up to now is       36.0 secs

     total energy              =    -329.49102706 Ry
     Harris-Foulkes estimate   =    -329.49102722 Ry
     estimated scf accuracy    <       0.00000009 Ry

     iteration #  6     ecut=    30.00 Ry     beta=0.70
     Davidson diagonalization with overlap
     ethr =  1.55E-10,  avg # of iterations =  2.0

     total cpu time spent up to now is       36.2 secs

     total energy              =    -329.49102703 Ry
     Harris-Foulkes estimate   =    -329.49102708 Ry
     estimated scf accuracy    <          6.7E-09 Ry

     iteration #  7     ecut=    30.00 Ry     beta=0.70
     Davidson diagonalization with overlap
     ethr =  1.21E-11,  avg # of iterations =  2.0

     total cpu time spent up to now is       36.4 secs

     total energy              =    -329.49102698 Ry
     Harris-Foulkes estimate   =    -329.49102704 Ry
     estimated scf accuracy    <          2.2E-09 Ry

     iteration #  8     ecut=    30.00 Ry     beta=0.70
     Davidson diagonalization with overlap
     ethr =  4.02E-12,  avg # of iterations =  2.0

     total cpu time spent up to now is       36.7 secs

     total energy              =    -329.49102700 Ry
     Harris-Foulkes estimate   =    -329.49102698 Ry
     estimated scf accuracy    <          7.3E-10 Ry

     iteration #  9     ecut=    30.00 Ry     beta=0.70
     Davidson diagonalization with overlap
     ethr =  1.33E-12,  avg # of iterations =  2.0

     total cpu time spent up to now is       36.9 secs

     End of self-consistent calculation

          k = 0.0000 0.0000 0.0000 ( 22119 PWs)   bands (ev):

    -8.5360  -7.7985  -7.6647  -7.2322  -6.8568  -6.8346  -6.6032  -6.4907
    -6.3062  -6.0902  -5.9540  -5.7772  -5.7370  -5.6881  -5.4635  -5.3649
    -5.3133  -5.2531  -5.2012  -5.1871  -5.1704  -5.1253  -4.9924  -4.9251
    -4.8434  -4.7270  -4.4816  -3.7858  -2.4994  -2.1996  -0.5707  -0.1926
     0.5225   0.9054

     the Fermi energy is    -3.7540 ev

!    total energy              =    -329.49102702 Ry
     Harris-Foulkes estimate   =    -329.49102700 Ry
     estimated scf accuracy    <          7.5E-11 Ry

     The total energy is the sum of the following terms:

     one-electron contribution =    -610.10766893 Ry
     hartree contribution      =     326.47940100 Ry
     xc contribution           =     -51.40431530 Ry
     ewald contribution        =       5.54572296 Ry
     smearing contrib. (-TS)   =      -0.00416676 Ry

     convergence has been achieved in   9 iterations

     Forces acting on atoms (Ry/au):

     atom    1 type  1   force =    -0.00051720   -0.00014583    0.00045735
     atom    2 type  1   force =    -0.00094054   -0.00019879    0.00019381
     atom    3 type  1   force =     0.00049252    0.00114875   -0.00047362
     atom    4 type  1   force =     0.00127669   -0.00107834   -0.00134404
     atom    5 type  1   force =    -0.00031148    0.00027421    0.00116649

     Total force =     0.003062     Total SCF correction =     0.000034

     number of scf cycles    =  12
     number of bfgs steps    =  11

     energy   old            =    -329.4910117258 Ry
     energy   new            =    -329.4910270198 Ry

     CASE: energy  _new < energy  _old

     new trust radius        =       0.0128606852 bohr
     new conv_thr            =            1.0E-10 Ry


ATOMIC_POSITIONS (bohr)
Au      -1.989330312   1.382233655  -0.623865359
Au      -0.825056705   3.333247333   4.026174862
Au       2.877078952   1.339306831   0.684459287
Au       4.106892975   3.384898850   5.616189482
Au       7.637717089   1.615228332   2.297302728



     Writing output data file pwscf.save
     Check: negative starting charge=   -0.006520
     NEW-OLD atomic charge density approx. for the potential
     Check: negative starting charge=   -0.006514

     negative rho (up, down):  8.215E-06 0.000E+00

     total cpu time spent up to now is       37.2 secs

     per-process dynamical memory:    50.7 Mb

     Self-consistent Calculation

     iteration #  1     ecut=    30.00 Ry     beta=0.70
     Davidson diagonalization with overlap
     ethr =  1.00E-06,  avg # of iterations =  4.0

     Threshold (ethr) on eigenvalues was too large:
     Diagonalizing with lowered threshold

     Davidson diagonalization with overlap
     ethr =  4.49E-08,  avg # of iterations =  1.0

     total cpu time spent up to now is       37.7 secs

     total energy              =    -329.49103734 Ry
     Harris-Foulkes estimate   =    -329.49104702 Ry
     estimated scf accuracy    <       0.00002539 Ry

     iteration #  2     ecut=    30.00 Ry     beta=0.70
     Davidson diagonalization with overlap
     ethr =  4.62E-08,  avg # of iterations =  2.0

     total cpu time spent up to now is       38.0 secs

     total energy              =    -329.49103923 Ry
     Harris-Foulkes estimate   =    -329.49105232 Ry
     estimated scf accuracy    <       0.00002633 Ry

     iteration #  3     ecut=    30.00 Ry     beta=0.70
     Davidson diagonalization with overlap
     ethr =  4.62E-08,  avg # of iterations =  2.0

     total cpu time spent up to now is       38.2 secs

     total energy              =    -329.49104405 Ry
     Harris-Foulkes estimate   =    -329.49104718 Ry
     estimated scf accuracy    <       0.00000660 Ry

     iteration #  4     ecut=    30.00 Ry     beta=0.70
     Davidson diagonalization with overlap
     ethr =  1.20E-08,  avg # of iterations =  2.0

     total cpu time spent up to now is       38.5 secs

     total energy              =    -329.49104501 Ry
     Harris-Foulkes estimate   =    -329.49104577 Ry
     estimated scf accuracy    <       0.00000090 Ry

     iteration #  5     ecut=    30.00 Ry     beta=0.70
     Davidson diagonalization with overlap
     ethr =  1.63E-09,  avg # of iterations =  2.0

     total cpu time spent up to now is       38.7 secs

     total energy              =    -329.49104509 Ry
     Harris-Foulkes estimate   =    -329.49104522 Ry
     estimated scf accuracy    <       0.00000013 Ry

     iteration #  6     ecut=    30.00 Ry     beta=0.70
     Davidson diagonalization with overlap
     ethr =  2.34E-10,  avg # of iterations =  2.0

     total cpu time spent up to now is       38.9 secs

     total energy              =    -329.49104510 Ry
     Harris-Foulkes estimate   =    -329.49104512 Ry
     estimated scf accuracy    <          6.8E-09 Ry

     iteration #  7     ecut=    30.00 Ry     beta=0.70
     Davidson diagonalization with overlap
     ethr =  1.24E-11,  avg # of iterations =  3.0

     total cpu time spent up to now is       39.2 secs

     total energy              =    -329.49104512 Ry
     Harris-Foulkes estimate   =    -329.49104511 Ry
     estimated scf accuracy    <          2.2E-09 Ry

[...]

     CASE: energy  _new < energy  _old

     new trust radius        =       0.0103299520 bohr
     new conv_thr            =            1.0E-10 Ry


ATOMIC_POSITIONS (bohr)
Au      -1.987610504   1.371714801  -0.607691692
Au      -0.842431294   3.332996760   4.039640049
Au       2.890124483   1.373411792   0.662087960
Au       4.105760159   3.369471311   5.598562532
Au       7.641459157   1.607320337   2.307662151



     Writing output data file pwscf.save
     Check: negative starting charge=   -0.006506
     NEW-OLD atomic charge density approx. for the potential
     Check: negative starting charge=   -0.006505

     negative rho (up, down):  4.302E-06 0.000E+00

     total cpu time spent up to now is       46.7 secs

     per-process dynamical memory:    50.7 Mb

     Self-consistent Calculation

     iteration #  1     ecut=    30.00 Ry     beta=0.70
     Davidson diagonalization with overlap
     ethr =  1.00E-06,  avg # of iterations =  4.0

     Threshold (ethr) on eigenvalues was too large:
     Diagonalizing with lowered threshold

     Davidson diagonalization with overlap
     ethr =  3.56E-08,  avg # of iterations =  1.0

     total cpu time spent up to now is       47.2 secs

     total energy              =    -329.49109439 Ry
     Harris-Foulkes estimate   =    -329.49110379 Ry
     estimated scf accuracy    <       0.00002007 Ry

     iteration #  2     ecut=    30.00 Ry     beta=0.70
     Davidson diagonalization with overlap
     ethr =  3.65E-08,  avg # of iterations =  3.0

     total cpu time spent up to now is       47.5 secs

     total energy              =    -329.49109835 Ry
     Harris-Foulkes estimate   =    -329.49110513 Ry
     estimated scf accuracy    <       0.00001409 Ry

     iteration #  3     ecut=    30.00 Ry     beta=0.70
     Davidson diagonalization with overlap
     ethr =  2.56E-08,  avg # of iterations =  2.0

     total cpu time spent up to now is       47.7 secs

     total energy              =    -329.49110091 Ry
     Harris-Foulkes estimate   =    -329.49110175 Ry
     estimated scf accuracy    <       0.00000122 Ry

     iteration #  4     ecut=    30.00 Ry     beta=0.70
     Davidson diagonalization with overlap
     ethr =  2.22E-09,  avg # of iterations =  2.0

     total cpu time spent up to now is       48.0 secs

     total energy              =    -329.49110142 Ry
     Harris-Foulkes estimate   =    -329.49110175 Ry
     estimated scf accuracy    <       0.00000185 Ry

     iteration #  5     ecut=    30.00 Ry     beta=0.70
     Davidson diagonalization with overlap
     ethr =  2.22E-09,  avg # of iterations =  2.0

     total cpu time spent up to now is       48.2 secs

     total energy              =    -329.49110171 Ry
     Harris-Foulkes estimate   =    -329.49110173 Ry
     estimated scf accuracy    <       0.00000003 Ry

     iteration #  6     ecut=    30.00 Ry     beta=0.70
     Davidson diagonalization with overlap
     ethr =  6.27E-11,  avg # of iterations =  3.0

     total cpu time spent up to now is       48.5 secs

     total energy              =    -329.49110175 Ry
     Harris-Foulkes estimate   =    -329.49110172 Ry
     estimated scf accuracy    <          6.9E-09 Ry

     iteration #  7     ecut=    30.00 Ry     beta=0.70
     Davidson diagonalization with overlap
     ethr =  1.26E-11,  avg # of iterations =  2.0

     total cpu time spent up to now is       48.7 secs

     total energy              =    -329.49110182 Ry
     Harris-Foulkes estimate   =    -329.49110176 Ry
     estimated scf accuracy    <          1.4E-09 Ry

     iteration #  8     ecut=    30.00 Ry     beta=0.70
     Davidson diagonalization with overlap
     ethr =  2.56E-12,  avg # of iterations =  2.0

     total cpu time spent up to now is       49.0 secs

     total energy              =    -329.49110182 Ry
     Harris-Foulkes estimate   =    -329.49110182 Ry
     estimated scf accuracy    <          2.0E-10 Ry

     iteration #  9     ecut=    30.00 Ry     beta=0.70
     Davidson diagonalization with overlap
     ethr =  3.68E-13,  avg # of iterations =  3.0

     total cpu time spent up to now is       49.2 secs

     End of self-consistent calculation

          k = 0.0000 0.0000 0.0000 ( 22119 PWs)   bands (ev):

    -8.5320  -7.7995  -7.6523  -7.2343  -6.8558  -6.8333  -6.6238  -6.4840
    -6.3049  -6.0844  -5.9664  -5.7772  -5.7379  -5.6892  -5.4599  -5.3652
    -5.3128  -5.2496  -5.1991  -5.1876  -5.1720  -5.1272  -4.9932  -4.9215
    -4.8413  -4.7340  -4.4750  -3.7837  -2.5044  -2.1937  -0.5706  -0.1945
     0.5267   0.9131

     the Fermi energy is    -3.7523 ev

!    total energy              =    -329.49110183 Ry
     Harris-Foulkes estimate   =    -329.49110182 Ry
     estimated scf accuracy    <          7.4E-11 Ry

     The total energy is the sum of the following terms:

     one-electron contribution =    -610.22675745 Ry
     hartree contribution      =     326.53987394 Ry
     xc contribution           =     -51.40518600 Ry
     ewald contribution        =       5.60506167 Ry
     smearing contrib. (-TS)   =      -0.00409400 Ry

     convergence has been achieved in   9 iterations

     Forces acting on atoms (Ry/au):

     atom    1 type  1   force =    -0.00086057    0.00003421   -0.00034483
     atom    2 type  1   force =     0.00068757   -0.00057462    0.00028604
     atom    3 type  1   force =    -0.00101318    0.00038633   -0.00058475
     atom    4 type  1   force =    -0.00070215    0.00012317    0.00028468
     atom    5 type  1   force =     0.00188832    0.00003091    0.00035886

     Total force =     0.002747     Total SCF correction =     0.000035

     number of scf cycles    =  16
     number of bfgs steps    =  15

     energy   old            =    -329.4910894368 Ry
     energy   new            =    -329.4911018328 Ry

     CASE: energy  _new < energy  _old

     new trust radius        =       0.0097457389 bohr
     new conv_thr            =            1.0E-10 Ry


ATOMIC_POSITIONS (bohr)
Au      -1.990248169   1.369601381  -0.606171405
Au      -0.844905858   3.331229506   4.042581470
Au       2.889570102   1.382013968   0.657541020
Au       4.105872990   3.365928590   5.594766250
Au       7.647012936   1.606141556   2.311543664



     Writing output data file pwscf.save
     Check: negative starting charge=   -0.006505
     NEW-OLD atomic charge density approx. for the potential
     Check: negative starting charge=   -0.006505

     negative rho (up, down):  3.833E-06 0.000E+00

     total cpu time spent up to now is       49.5 secs

     per-process dynamical memory:    50.7 Mb

     Self-consistent Calculation

     iteration #  1     ecut=    30.00 Ry     beta=0.70
     Davidson diagonalization with overlap
     ethr =  1.00E-06,  avg # of iterations =  4.0

     Threshold (ethr) on eigenvalues was too large:
     Diagonalizing with lowered threshold

     Davidson diagonalization with overlap
     ethr =  3.14E-08,  avg # of iterations =  1.0

     total cpu time spent up to now is       50.0 secs

     total energy              =    -329.49110804 Ry
     Harris-Foulkes estimate   =    -329.49111492 Ry
     estimated scf accuracy    <       0.00001807 Ry

     iteration #  2     ecut=    30.00 Ry     beta=0.70
     Davidson diagonalization with overlap
     ethr =  3.28E-08,  avg # of iterations =  3.0

     total cpu time spent up to now is       50.2 secs

     total energy              =    -329.49111074 Ry
     Harris-Foulkes estimate   =    -329.49111806 Ry
     estimated scf accuracy    <       0.00001471 Ry

     iteration #  3     ecut=    30.00 Ry     beta=0.70
     Davidson diagonalization with overlap
     ethr =  2.68E-08,  avg # of iterations =  2.0

     total cpu time spent up to now is       50.6 secs

     total energy              =    -329.49111343 Ry
     Harris-Foulkes estimate   =    -329.49111474 Ry
     estimated scf accuracy    <       0.00000272 Ry

     iteration #  4     ecut=    30.00 Ry     beta=0.70
     Davidson diagonalization with overlap
     ethr =  4.94E-09,  avg # of iterations =  2.0

     total cpu time spent up to now is       50.8 secs

     total energy              =    -329.49111450 Ry
     Harris-Foulkes estimate   =    -329.49111453 Ry
     estimated scf accuracy    <       0.00000131 Ry

     iteration #  5     ecut=    30.00 Ry     beta=0.70
     Davidson diagonalization with overlap
     ethr =  2.38E-09,  avg # of iterations =  2.0

     total cpu time spent up to now is       51.0 secs

     total energy              =    -329.49111463 Ry
     Harris-Foulkes estimate   =    -329.49111472 Ry
     estimated scf accuracy    <       0.00000004 Ry

     iteration #  6     ecut=    30.00 Ry     beta=0.70
     Davidson diagonalization with overlap
     ethr =  6.37E-11,  avg # of iterations =  3.0

     total cpu time spent up to now is       51.3 secs

     total energy              =    -329.49111472 Ry
     Harris-Foulkes estimate   =    -329.49111464 Ry
     estimated scf accuracy    <          5.5E-09 Ry

     iteration #  7     ecut=    30.00 Ry     beta=0.70
     Davidson diagonalization with overlap
     ethr =  9.95E-12,  avg # of iterations =  3.0

     total cpu time spent up to now is       51.6 secs

     total energy              =    -329.49111476 Ry
     Harris-Foulkes estimate   =    -329.49111472 Ry
     estimated scf accuracy    <          2.3E-09 Ry

     iteration #  8     ecut=    30.00 Ry     beta=0.70
     Davidson diagonalization with overlap
     ethr =  4.27E-12,  avg # of iterations =  2.0

     total cpu time spent up to now is       51.8 secs

     total energy              =    -329.49111475 Ry
     Harris-Foulkes estimate   =    -329.49111477 Ry
     estimated scf accuracy    <          2.3E-10 Ry

     iteration #  9     ecut=    30.00 Ry     beta=0.70
     Davidson diagonalization with overlap
     ethr =  4.14E-13,  avg # of iterations =  3.0

     total cpu time spent up to now is       52.1 secs

     End of self-consistent calculation

          k = 0.0000 0.0000 0.0000 ( 22119 PWs)   bands (ev):

    -8.5267  -7.7970  -7.6512  -7.2353  -6.8530  -6.8295  -6.6240  -6.4834
    -6.3056  -6.0822  -5.9655  -5.7760  -5.7367  -5.6884  -5.4617  -5.3651
    -5.3127  -5.2502  -5.1988  -5.1872  -5.1727  -5.1273  -4.9958  -4.9215
    -4.8403  -4.7360  -4.4757  -3.7833  -2.5087  -2.1930  -0.5705  -0.1936
     0.5250   0.9142

     the Fermi energy is    -3.7517 ev

!    total energy              =    -329.49111476 Ry
     Harris-Foulkes estimate   =    -329.49111475 Ry
     estimated scf accuracy    <          8.7E-11 Ry

     The total energy is the sum of the following terms:

     one-electron contribution =    -610.08307176 Ry
     hartree contribution      =     326.46862541 Ry
     xc contribution           =     -51.40442027 Ry
     ewald contribution        =       5.53188627 Ry
     smearing contrib. (-TS)   =      -0.00413442 Ry

     convergence has been achieved in   9 iterations

     Forces acting on atoms (Ry/au):

     atom    1 type  1   force =    -0.00067114    0.00014900   -0.00021233
     atom    2 type  1   force =     0.00075983   -0.00054756    0.00024209
     atom    3 type  1   force =    -0.00026985    0.00009926   -0.00042079
     atom    4 type  1   force =    -0.00099830    0.00029207    0.00044984
     atom    5 type  1   force =     0.00117946    0.00000724   -0.00005882

     Total force =     0.002096     Total SCF correction =     0.000037

     number of scf cycles    =  17
     number of bfgs steps    =  16

     energy   old            =    -329.4911018328 Ry
     energy   new            =    -329.4911147646 Ry

     CASE: energy  _new < energy  _old

     new trust radius        =       0.0054795020 bohr
     new conv_thr            =            1.0E-10 Ry


ATOMIC_POSITIONS (bohr)
Au      -1.993325550   1.369530248  -0.605243271
Au      -0.844446773   3.329102382   4.044490888
Au       2.888854884   1.385173850   0.653121908
Au       4.104561606   3.364480679   5.593485121
Au       7.651657833   1.606627840   2.314406354



     Writing output data file pwscf.save
     Check: negative starting charge=   -0.006505
     NEW-OLD atomic charge density approx. for the potential
     Check: negative starting charge=   -0.006503

     negative rho (up, down):  3.210E-07 0.000E+00

     total cpu time spent up to now is       52.3 secs

     per-process dynamical memory:    50.7 Mb

     Self-consistent Calculation

     iteration #  1     ecut=    30.00 Ry     beta=0.70
     Davidson diagonalization with overlap
     ethr =  1.00E-06,  avg # of iterations =  3.0

     Threshold (ethr) on eigenvalues was too large:
     Diagonalizing with lowered threshold

     Davidson diagonalization with overlap
     ethr =  1.06E-08,  avg # of iterations =  2.0

     total cpu time spent up to now is       53.2 secs

     total energy              =    -329.49112006 Ry
     Harris-Foulkes estimate   =    -329.49112118 Ry
     estimated scf accuracy    <       0.00000623 Ry

     iteration #  2     ecut=    30.00 Ry     beta=0.70
     Davidson diagonalization with overlap
     ethr =  1.13E-08,  avg # of iterations =  3.0

     total cpu time spent up to now is       53.5 secs

     total energy              =    -329.49112057 Ry
     Harris-Foulkes estimate   =    -329.49112388 Ry
     estimated scf accuracy    <       0.00000713 Ry

     iteration #  3     ecut=    30.00 Ry     beta=0.70
     Davidson diagonalization with overlap
     ethr =  1.13E-08,  avg # of iterations =  2.0

     total cpu time spent up to now is       53.7 secs

     total energy              =    -329.49112228 Ry
     Harris-Foulkes estimate   =    -329.49112264 Ry
     estimated scf accuracy    <       0.00000171 Ry

     iteration #  4     ecut=    30.00 Ry     beta=0.70
     Davidson diagonalization with overlap
     ethr =  3.11E-09,  avg # of iterations =  2.0

     total cpu time spent up to now is       53.9 secs

     total energy              =    -329.49112257 Ry
     Harris-Foulkes estimate   =    -329.49112276 Ry
     estimated scf accuracy    <       0.00000029 Ry

     iteration #  5     ecut=    30.00 Ry     beta=0.70
     Davidson diagonalization with overlap
     ethr =  5.26E-10,  avg # of iterations =  2.0

     total cpu time spent up to now is       54.2 secs

     total energy              =    -329.49112252 Ry
     Harris-Foulkes estimate   =    -329.49112264 Ry
     estimated scf accuracy    <       0.00000002 Ry

     iteration #  6     ecut=    30.00 Ry     beta=0.70
     Davidson diagonalization with overlap
     ethr =  4.53E-11,  avg # of iterations =  2.0

     total cpu time spent up to now is       54.6 secs

     total energy              =    -329.49112251 Ry
     Harris-Foulkes estimate   =    -329.49112253 Ry
     estimated scf accuracy    <          2.5E-09 Ry

     iteration #  7     ecut=    30.00 Ry     beta=0.70
     Davidson diagonalization with overlap
     ethr =  4.57E-12,  avg # of iterations =  2.0

     total cpu time spent up to now is       54.9 secs

     total energy              =    -329.49112254 Ry
     Harris-Foulkes estimate   =    -329.49112251 Ry
     estimated scf accuracy    <          9.1E-10 Ry

     iteration #  8     ecut=    30.00 Ry     beta=0.70
     Davidson diagonalization with overlap
     ethr =  1.65E-12,  avg # of iterations =  2.0

     total cpu time spent up to now is       55.1 secs

     total energy              =    -329.49112257 Ry
     Harris-Foulkes estimate   =    -329.49112254 Ry
     estimated scf accuracy    <          2.2E-10 Ry

     iteration #  9     ecut=    30.00 Ry     beta=0.70
     Davidson diagonalization with overlap
     ethr =  4.04E-13,  avg # of iterations =  2.0

     total cpu time spent up to now is       55.3 secs

     End of self-consistent calculation

          k = 0.0000 0.0000 0.0000 ( 22119 PWs)   bands (ev):

    -8.5200  -7.7926  -7.6507  -7.2356  -6.8524  -6.8250  -6.6222  -6.4820
    -6.3068  -6.0789  -5.9640  -5.7748  -5.7349  -5.6874  -5.4620  -5.3658
    -5.3133  -5.2498  -5.1988  -5.1866  -5.1731  -5.1274  -4.9980  -4.9207
    -4.8396  -4.7380  -4.4754  -3.7840  -2.5127  -2.1918  -0.5702  -0.1936
     0.5234   0.9148

     the Fermi energy is    -3.7525 ev

!    total energy              =    -329.49112260 Ry
     Harris-Foulkes estimate   =    -329.49112257 Ry
     estimated scf accuracy    <          2.3E-11 Ry

     The total energy is the sum of the following terms:

     one-electron contribution =    -609.91151092 Ry
     hartree contribution      =     326.38396155 Ry
     xc contribution           =     -51.40368475 Ry
     ewald contribution        =       5.44422174 Ry
     smearing contrib. (-TS)   =      -0.00411020 Ry

     convergence has been achieved in   9 iterations

     Forces acting on atoms (Ry/au):

     atom    1 type  1   force =    -0.00047243    0.00020936   -0.00006975
     atom    2 type  1   force =     0.00056336   -0.00052429    0.00012152
     atom    3 type  1   force =     0.00037478    0.00006220   -0.00011870
     atom    4 type  1   force =    -0.00078403    0.00021800    0.00033449
     atom    5 type  1   force =     0.00031832    0.00003474   -0.00026756

     Total force =     0.001409     Total SCF correction =     0.000016

     bfgs converged in  18 scf cycles and  17 bfgs steps
     (criteria: energy <  1.0E-04, force <  1.0E-03)

     End of BFGS Geometry Optimization

     Final energy   =    -329.4911225957 Ry
Begin final coordinates

ATOMIC_POSITIONS (bohr)
Au      -1.993325550   1.369530248  -0.605243271
Au      -0.844446773   3.329102382   4.044490888
Au       2.888854884   1.385173850   0.653121908
Au       4.104561606   3.364480679   5.593485121
Au       7.651657833   1.606627840   2.314406354
End final coordinates



     Writing output data file pwscf.save
 
     init_run     :      0.17s CPU      0.21s WALL (       1 calls)
     electrons    :     46.48s CPU     51.22s WALL (      18 calls)
     update_pot   :      1.35s CPU      1.78s WALL (      17 calls)
     forces       :      0.88s CPU      0.94s WALL (      18 calls)

     Called by init_run:
     wfcinit      :      0.08s CPU      0.10s WALL (       1 calls)
     potinit      :      0.03s CPU      0.04s WALL (       1 calls)

     Called by electrons:
     c_bands      :     35.57s CPU     37.43s WALL (     185 calls)
     sum_band     :      5.28s CPU      5.57s WALL (     185 calls)
     v_of_rho     :      3.86s CPU      4.05s WALL (     190 calls)
     mix_rho      :      1.47s CPU      3.10s WALL (     185 calls)

     Called by c_bands:
     init_us_2    :      0.62s CPU      0.67s WALL (     371 calls)
     cegterg      :     31.87s CPU     33.40s WALL (     185 calls)

     Called by sum_band:

     Called by *egterg:
     h_psi        :     25.19s CPU     26.34s WALL (     623 calls)
     g_psi        :      0.22s CPU      0.23s WALL (     437 calls)
     cdiaghg      :      1.51s CPU      1.57s WALL (     592 calls)

     Called by h_psi:
     h_psi:pot    :     24.88s CPU     26.01s WALL (     623 calls)
     h_psi:calbec :      1.40s CPU      1.45s WALL (     623 calls)
     vloc_psi     :     22.08s CPU     23.10s WALL (     623 calls)
     add_vuspsi   :      1.40s CPU      1.46s WALL (     623 calls)

     General routines
     calbec       :      1.62s CPU      1.69s WALL (     695 calls)
     fft          :      2.25s CPU      2.38s WALL (    2151 calls)
     fftw         :     23.93s CPU     24.91s WALL (   40186 calls)
     davcio       :      0.22s CPU      1.51s WALL (    1773 calls)
 
     Parallel routines
     fft_scatter  :      8.21s CPU      8.54s WALL (   42337 calls)
 
     PWSCF        :    49.44s CPU        55.51s WALL

 
   This run was terminated on:  13:51: 5   3Aug2017            

=------------------------------------------------------------------------------=
   JOB DONE.
=------------------------------------------------------------------------------=
