
     Program PWSCF v.6.0 (svn rev. 13079) starts on  3Aug2017 at 23:31:48 

     This program is part of the open-source Quantum ESPRESSO suite
     for quantum simulation of materials; please cite
         "P. Giannozzi et al., J. Phys.:Condens. Matter 21 395502 (2009);
          URL http://www.quantum-espresso.org", 
     in publications or presentations arising from this work. More details at
     http://www.quantum-espresso.org/quote

     Parallel version (MPI), running on    10 processors
     R & G space division:  proc/nbgrp/npool/nimage =      10
     Reading input from input/multi/minchecks-Gold5-564.in

     Current dimensions of program PWSCF are:
     Max number of different atomic species (ntypx) = 10
     Max number of k-points (npk) =  40000
     Max angular momentum in pseudopotentials (lmaxx) =  3
     Message from routine iosys:
     pot_extrapolation='second-order' not available, using 'atomic'
     Message from routine iosys:
     wfc_extrapolation='second-order' not available, using 'atomic'

     Subspace diagonalization in iterative solution of the eigenvalue problem:
     a serial algorithm will be used

 
     Parallelization info
     --------------------
     sticks:   dense  smooth     PW     G-vecs:    dense   smooth      PW
     Min         380     380     94                17748    17748    2208
     Max         381     381     95                17753    17753    2213
     Sum        3809    3809    949               177509   177509   22119
 


     bravais-lattice index     =            1
     lattice parameter (alat)  =      20.0000  a.u.
     unit-cell volume          =    8000.0000 (a.u.)^3
     number of atoms/cell      =            5
     number of atomic types    =            1
     number of electrons       =        55.00
     number of Kohn-Sham states=           34
     kinetic-energy cutoff     =      30.0000  Ry
     charge density cutoff     =     120.0000  Ry
     convergence threshold     =      1.0E-08
     mixing beta               =       0.7000
     number of iterations used =            8  plain     mixing
     Exchange-correlation      = BLYP ( 1  3  1  3 0 0)
     nstep                     =           50


     celldm(1)=  20.000000  celldm(2)=   0.000000  celldm(3)=   0.000000
     celldm(4)=   0.000000  celldm(5)=   0.000000  celldm(6)=   0.000000

     crystal axes: (cart. coord. in units of alat)
               a(1) = (   1.000000   0.000000   0.000000 )  
               a(2) = (   0.000000   1.000000   0.000000 )  
               a(3) = (   0.000000   0.000000   1.000000 )  

     reciprocal axes: (cart. coord. in units 2 pi/alat)
               b(1) = (  1.000000  0.000000  0.000000 )  
               b(2) = (  0.000000  1.000000  0.000000 )  
               b(3) = (  0.000000  0.000000  1.000000 )  


     PseudoPot. # 1 for Au read from file:
     ./Au.blyp-d-hgh.UPF
     MD5 check sum: c10d8bae01f806c36a1643a1c69a8479
     Pseudo is Norm-conserving, Zval = 11.0
     Generated in analytical, separable form
     Using radial grid of 1279 points,  6 beta functions with: 
                l(1) =   0
                l(2) =   0
                l(3) =   1
                l(4) =   1
                l(5) =   2
                l(6) =   2

     atomic species   valence    mass     pseudopotential
        Au            11.00    28.08600     Au( 1.00)

     No symmetry found



   Cartesian axes

     site n.     atom                  positions (alat units)
         1           Au  tau(   1) = (  -0.1141854   0.0309898  -0.0024406  )
         2           Au  tau(   2) = (  -0.0218916   0.1044759   0.2192921  )
         3           Au  tau(   3) = (   0.1427788   0.0263731   0.0038696  )
         4           Au  tau(   4) = (   0.2145430   0.1939476   0.2687313  )
         5           Au  tau(   5) = (   0.3860137   0.0694702   0.1224150  )

     number of k points=     1  Marzari-Vanderbilt smearing, width (Ry)=  0.0250
                       cart. coord. in units 2pi/alat
        k(    1) = (   0.0000000   0.0000000   0.0000000), wk =   2.0000000

     Dense  grid:   177509 G-vectors     FFT dimensions: (  72,  72,  72)

     Estimated max dynamical RAM per process >      15.04Mb

     Estimated total allocated dynamical RAM >     150.39Mb

     Initial potential from superposition of free atoms
     Check: negative starting charge=   -0.006357

     starting charge   54.99940, renormalised to   55.00000

     negative rho (up, down):  6.357E-03 0.000E+00
     Starting wfc are   45 randomized atomic wfcs

     total cpu time spent up to now is        0.3 secs

     per-process dynamical memory:    41.0 Mb

     Self-consistent Calculation

     iteration #  1     ecut=    30.00 Ry     beta=0.70
     Davidson diagonalization with overlap
     ethr =  1.00E-02,  avg # of iterations =  3.0

     Threshold (ethr) on eigenvalues was too large:
     Diagonalizing with lowered threshold

     Davidson diagonalization with overlap
     ethr =  4.15E-04,  avg # of iterations =  6.0

     negative rho (up, down):  8.453E-04 0.000E+00

     total cpu time spent up to now is        0.7 secs

     total energy              =    -329.34900526 Ry
     Harris-Foulkes estimate   =    -329.52106538 Ry
     estimated scf accuracy    <       0.28312366 Ry

     iteration #  2     ecut=    30.00 Ry     beta=0.70
     Davidson diagonalization with overlap
     ethr =  5.15E-04,  avg # of iterations =  4.0

     negative rho (up, down):  4.373E-04 0.000E+00

     total cpu time spent up to now is        1.0 secs

     total energy              =    -329.35563489 Ry
     Harris-Foulkes estimate   =    -329.57886475 Ry
     estimated scf accuracy    <       0.50647882 Ry

     iteration #  3     ecut=    30.00 Ry     beta=0.70
     Davidson diagonalization with overlap
     ethr =  5.15E-04,  avg # of iterations =  2.0

     negative rho (up, down):  1.502E-04 0.000E+00

     total cpu time spent up to now is        1.2 secs

     total energy              =    -329.45257687 Ry
     Harris-Foulkes estimate   =    -329.48627417 Ry
     estimated scf accuracy    <       0.08802690 Ry

     iteration #  4     ecut=    30.00 Ry     beta=0.70
     Davidson diagonalization with overlap
     ethr =  1.60E-04,  avg # of iterations =  2.0

     negative rho (up, down):  2.176E-05 0.000E+00

     total cpu time spent up to now is        1.4 secs

     total energy              =    -329.46731668 Ry
     Harris-Foulkes estimate   =    -329.46935248 Ry
     estimated scf accuracy    <       0.00470410 Ry

     iteration #  5     ecut=    30.00 Ry     beta=0.70
     Davidson diagonalization with overlap
     ethr =  8.55E-06,  avg # of iterations =  4.0

     negative rho (up, down):  5.877E-08 0.000E+00

     total cpu time spent up to now is        1.7 secs

     total energy              =    -329.46846382 Ry
     Harris-Foulkes estimate   =    -329.46970352 Ry
     estimated scf accuracy    <       0.00363490 Ry

     iteration #  6     ecut=    30.00 Ry     beta=0.70
     Davidson diagonalization with overlap
     ethr =  6.61E-06,  avg # of iterations =  2.0

     total cpu time spent up to now is        1.9 secs

     total energy              =    -329.46903610 Ry
     Harris-Foulkes estimate   =    -329.46919945 Ry
     estimated scf accuracy    <       0.00037578 Ry

     iteration #  7     ecut=    30.00 Ry     beta=0.70
     Davidson diagonalization with overlap
     ethr =  6.83E-07,  avg # of iterations =  2.0

     total cpu time spent up to now is        2.1 secs

     total energy              =    -329.46912322 Ry
     Harris-Foulkes estimate   =    -329.46913572 Ry
     estimated scf accuracy    <       0.00003262 Ry

     iteration #  8     ecut=    30.00 Ry     beta=0.70
     Davidson diagonalization with overlap
     ethr =  5.93E-08,  avg # of iterations =  2.0

     total cpu time spent up to now is        2.3 secs

     total energy              =    -329.46912908 Ry
     Harris-Foulkes estimate   =    -329.46913241 Ry
     estimated scf accuracy    <       0.00000665 Ry

     iteration #  9     ecut=    30.00 Ry     beta=0.70
     Davidson diagonalization with overlap
     ethr =  1.21E-08,  avg # of iterations =  2.0

     total cpu time spent up to now is        2.6 secs

     total energy              =    -329.46913060 Ry
     Harris-Foulkes estimate   =    -329.46913098 Ry
     estimated scf accuracy    <       0.00000090 Ry

     iteration # 10     ecut=    30.00 Ry     beta=0.70
     Davidson diagonalization with overlap
     ethr =  1.63E-09,  avg # of iterations =  2.0

     total cpu time spent up to now is        2.8 secs

     total energy              =    -329.46913070 Ry
     Harris-Foulkes estimate   =    -329.46913085 Ry
     estimated scf accuracy    <       0.00000014 Ry

     iteration # 11     ecut=    30.00 Ry     beta=0.70
     Davidson diagonalization with overlap
     ethr =  2.60E-10,  avg # of iterations =  2.0

     total cpu time spent up to now is        3.0 secs

     total energy              =    -329.46913072 Ry
     Harris-Foulkes estimate   =    -329.46913074 Ry
     estimated scf accuracy    <       0.00000002 Ry

     iteration # 12     ecut=    30.00 Ry     beta=0.70
     Davidson diagonalization with overlap
     ethr =  3.78E-11,  avg # of iterations =  2.0

     total cpu time spent up to now is        3.3 secs

     End of self-consistent calculation

          k = 0.0000 0.0000 0.0000 ( 22119 PWs)   bands (ev):

    -7.9817  -7.4404  -7.3455  -7.0287  -6.8308  -6.6683  -6.5093  -6.2511
    -6.1268  -6.0441  -5.8224  -5.6937  -5.6189  -5.5606  -5.4441  -5.3731
    -5.2936  -5.2099  -5.1880  -5.1494  -5.1287  -5.0973  -5.0574  -4.9710
    -4.8629  -4.6304  -4.4193  -3.8224  -2.7628  -2.2110  -0.4533  -0.2498
     0.4446   0.7260

     the Fermi energy is    -3.8110 ev

!    total energy              =    -329.46913071 Ry
     Harris-Foulkes estimate   =    -329.46913072 Ry
     estimated scf accuracy    <          6.5E-09 Ry

     The total energy is the sum of the following terms:

     one-electron contribution =    -589.90559917 Ry
     hartree contribution      =     316.55144075 Ry
     xc contribution           =     -51.35885342 Ry
     ewald contribution        =      -4.75637369 Ry
     smearing contrib. (-TS)   =       0.00025483 Ry

     convergence has been achieved in  12 iterations

     Forces acting on atoms (Ry/au):

     atom    1 type  1   force =     0.00643383   -0.00733843   -0.01070006
     atom    2 type  1   force =     0.01460581    0.00188023   -0.00247800
     atom    3 type  1   force =     0.00776810    0.01306414    0.02907679
     atom    4 type  1   force =     0.00498671   -0.00818958   -0.00768978
     atom    5 type  1   force =    -0.03379445    0.00058365   -0.00820894

     Total force =     0.053573     Total SCF correction =     0.000352

     BFGS Geometry Optimization

     number of scf cycles    =   1
     number of bfgs steps    =   0

     energy   new            =    -329.4691307063 Ry

     new trust radius        =       0.0347820676 bohr
     new conv_thr            =       0.0000000100 Ry


ATOMIC_POSITIONS (bohr)
Au      -2.277275172   0.612457571  -0.059512062
Au      -0.423226195   2.091398228   4.383363997
Au       2.863345105   0.540526140   0.106468790
Au       4.295846712   3.870762417   5.366936218
Au       7.686480550   1.389988645   2.440091057



     Writing output data file pwscf.save
     Check: negative starting charge=   -0.006357
     NEW-OLD atomic charge density approx. for the potential
     Check: negative starting charge=   -0.006348

     negative rho (up, down):  2.266E-04 0.000E+00

     total cpu time spent up to now is        3.5 secs

     per-process dynamical memory:    42.9 Mb

     Self-consistent Calculation

     iteration #  1     ecut=    30.00 Ry     beta=0.70
     Davidson diagonalization with overlap
     ethr =  1.00E-06,  avg # of iterations =  4.0

     negative rho (up, down):  4.782E-06 0.000E+00

     total cpu time spent up to now is        3.9 secs

     total energy              =    -329.47174603 Ry
     Harris-Foulkes estimate   =    -329.47175186 Ry
     estimated scf accuracy    <       0.00020216 Ry

     iteration #  2     ecut=    30.00 Ry     beta=0.70
     Davidson diagonalization with overlap
     ethr =  3.68E-07,  avg # of iterations =  3.0

     negative rho (up, down):  1.459E-06 0.000E+00

     total cpu time spent up to now is        4.1 secs

     total energy              =    -329.47170110 Ry
     Harris-Foulkes estimate   =    -329.47195925 Ry
     estimated scf accuracy    <       0.00071325 Ry

     iteration #  3     ecut=    30.00 Ry     beta=0.70
     Davidson diagonalization with overlap
     ethr =  3.68E-07,  avg # of iterations =  2.0

     negative rho (up, down):  1.231E-08 0.000E+00

     total cpu time spent up to now is        4.3 secs

     total energy              =    -329.47182815 Ry
     Harris-Foulkes estimate   =    -329.47184172 Ry
     estimated scf accuracy    <       0.00004437 Ry

     iteration #  4     ecut=    30.00 Ry     beta=0.70
     Davidson diagonalization with overlap
     ethr =  8.07E-08,  avg # of iterations =  2.0

     total cpu time spent up to now is        4.5 secs

     total energy              =    -329.47183575 Ry
     Harris-Foulkes estimate   =    -329.47184299 Ry
     estimated scf accuracy    <       0.00002156 Ry

     iteration #  5     ecut=    30.00 Ry     beta=0.70
     Davidson diagonalization with overlap
     ethr =  3.92E-08,  avg # of iterations =  2.0

     total cpu time spent up to now is        4.7 secs

     total energy              =    -329.47183977 Ry
     Harris-Foulkes estimate   =    -329.47184098 Ry
     estimated scf accuracy    <       0.00000350 Ry

     iteration #  6     ecut=    30.00 Ry     beta=0.70
     Davidson diagonalization with overlap
     ethr =  6.37E-09,  avg # of iterations =  2.0

     total cpu time spent up to now is        4.9 secs

     total energy              =    -329.47184051 Ry
     Harris-Foulkes estimate   =    -329.47184054 Ry
     estimated scf accuracy    <       0.00000022 Ry

     iteration #  7     ecut=    30.00 Ry     beta=0.70
     Davidson diagonalization with overlap
     ethr =  3.91E-10,  avg # of iterations =  2.0

     total cpu time spent up to now is        5.2 secs

     total energy              =    -329.47184062 Ry
     Harris-Foulkes estimate   =    -329.47184059 Ry
     estimated scf accuracy    <       0.00000004 Ry

     iteration #  8     ecut=    30.00 Ry     beta=0.70
     Davidson diagonalization with overlap
     ethr =  7.34E-11,  avg # of iterations =  2.0

     total cpu time spent up to now is        5.4 secs

     End of self-consistent calculation

          k = 0.0000 0.0000 0.0000 ( 22119 PWs)   bands (ev):

    -8.0016  -7.4556  -7.3911  -7.0659  -6.8653  -6.6857  -6.5163  -6.2846
    -6.1387  -6.0603  -5.8384  -5.6969  -5.6305  -5.5714  -5.4499  -5.3770
    -5.2908  -5.2114  -5.1884  -5.1489  -5.1328  -5.1050  -5.0510  -4.9681
    -4.8634  -4.6175  -4.4214  -3.8155  -2.7404  -2.2033  -0.4592  -0.2483
     0.4439   0.7349

     the Fermi energy is    -3.8029 ev

!    total energy              =    -329.47184058 Ry
     Harris-Foulkes estimate   =    -329.47184063 Ry
     estimated scf accuracy    <          4.3E-09 Ry

     The total energy is the sum of the following terms:

     one-electron contribution =    -592.17583223 Ry
     hartree contribution      =     317.67036142 Ry
     xc contribution           =     -51.36438216 Ry
     ewald contribution        =      -3.60204936 Ry
     smearing contrib. (-TS)   =       0.00006175 Ry

     convergence has been achieved in   8 iterations

     Forces acting on atoms (Ry/au):

     atom    1 type  1   force =     0.00667210   -0.00681551   -0.00952039
     atom    2 type  1   force =     0.01230777    0.00140789   -0.00352696
     atom    3 type  1   force =     0.00617697    0.01225138    0.02766087
     atom    4 type  1   force =     0.00379815   -0.00609146   -0.00597169
     atom    5 type  1   force =    -0.02895498   -0.00075229   -0.00864184

     Total force =     0.047976     Total SCF correction =     0.000303

     number of scf cycles    =   2
     number of bfgs steps    =   1

     energy   old            =    -329.4691307063 Ry
     energy   new            =    -329.4718405769 Ry

     CASE: energy  _new < energy  _old


     WARNING: bfgs curvature condition failed, Theta= 0.896
     new trust radius        =       0.0382602743 bohr
     new conv_thr            =       0.0000000027 Ry


ATOMIC_POSITIONS (bohr)
Au      -2.269147598   0.603990688  -0.071435701
Au      -0.407645506   2.093225502   4.379265926
Au       2.871258717   0.555718654   0.140680058
Au       4.300757861   3.862844713   5.359246966
Au       7.649947527   1.389353443   2.429590751



     Writing output data file pwscf.save
     Check: negative starting charge=   -0.006348
     NEW-OLD atomic charge density approx. for the potential
     Check: negative starting charge=   -0.006341

     negative rho (up, down):  2.940E-04 0.000E+00

     total cpu time spent up to now is        5.6 secs

     per-process dynamical memory:    50.7 Mb

     Self-consistent Calculation

     iteration #  1     ecut=    30.00 Ry     beta=0.70
     Davidson diagonalization with overlap
     ethr =  1.00E-06,  avg # of iterations =  4.0

     negative rho (up, down):  7.795E-06 0.000E+00

     total cpu time spent up to now is        5.9 secs

     total energy              =    -329.47444822 Ry
     Harris-Foulkes estimate   =    -329.47442483 Ry
     estimated scf accuracy    <       0.00024261 Ry

     iteration #  2     ecut=    30.00 Ry     beta=0.70
     Davidson diagonalization with overlap
     ethr =  4.41E-07,  avg # of iterations =  3.0

     negative rho (up, down):  2.412E-06 0.000E+00

     total cpu time spent up to now is        6.2 secs

     total energy              =    -329.47440261 Ry
     Harris-Foulkes estimate   =    -329.47468603 Ry
     estimated scf accuracy    <       0.00075875 Ry

     iteration #  3     ecut=    30.00 Ry     beta=0.70
     Davidson diagonalization with overlap
     ethr =  4.41E-07,  avg # of iterations =  2.0

     negative rho (up, down):  2.387E-08 0.000E+00

     total cpu time spent up to now is        6.4 secs

     total energy              =    -329.47454303 Ry
     Harris-Foulkes estimate   =    -329.47456079 Ry
     estimated scf accuracy    <       0.00005948 Ry

     iteration #  4     ecut=    30.00 Ry     beta=0.70
     Davidson diagonalization with overlap
     ethr =  1.08E-07,  avg # of iterations =  2.0

     total cpu time spent up to now is        6.6 secs

     total energy              =    -329.47455279 Ry
     Harris-Foulkes estimate   =    -329.47456218 Ry
     estimated scf accuracy    <       0.00002721 Ry

     iteration #  5     ecut=    30.00 Ry     beta=0.70
     Davidson diagonalization with overlap
     ethr =  4.95E-08,  avg # of iterations =  2.0

     total cpu time spent up to now is        6.8 secs

     total energy              =    -329.47455815 Ry
     Harris-Foulkes estimate   =    -329.47455948 Ry
     estimated scf accuracy    <       0.00000470 Ry

     iteration #  6     ecut=    30.00 Ry     beta=0.70
     Davidson diagonalization with overlap
     ethr =  8.55E-09,  avg # of iterations =  2.0

     total cpu time spent up to now is        7.0 secs

     total energy              =    -329.47455886 Ry
     Harris-Foulkes estimate   =    -329.47455914 Ry
     estimated scf accuracy    <       0.00000025 Ry

     iteration #  7     ecut=    30.00 Ry     beta=0.70
     Davidson diagonalization with overlap
     ethr =  4.50E-10,  avg # of iterations =  2.0

     total cpu time spent up to now is        7.2 secs

     total energy              =    -329.47455908 Ry
     Harris-Foulkes estimate   =    -329.47455896 Ry
     estimated scf accuracy    <       0.00000005 Ry

     iteration #  8     ecut=    30.00 Ry     beta=0.70
     Davidson diagonalization with overlap
     ethr =  9.61E-11,  avg # of iterations =  2.0

     total cpu time spent up to now is        7.5 secs

     total energy              =    -329.47455909 Ry
     Harris-Foulkes estimate   =    -329.47455909 Ry
     estimated scf accuracy    <          5.7E-09 Ry

     iteration #  9     ecut=    30.00 Ry     beta=0.70
     Davidson diagonalization with overlap
     ethr =  1.04E-11,  avg # of iterations =  3.0

     total cpu time spent up to now is        7.7 secs

     End of self-consistent calculation

          k = 0.0000 0.0000 0.0000 ( 22119 PWs)   bands (ev):

    -8.0311  -7.4773  -7.4417  -7.1056  -6.9066  -6.7036  -6.5285  -6.3218
    -6.1543  -6.0762  -5.8559  -5.6986  -5.6411  -5.5850  -5.4568  -5.3815
    -5.2875  -5.2132  -5.1891  -5.1491  -5.1373  -5.1125  -5.0428  -4.9652
    -4.8643  -4.6021  -4.4242  -3.8076  -2.7151  -2.1943  -0.4661  -0.2463
     0.4438   0.7450

     the Fermi energy is    -3.7937 ev

!    total energy              =    -329.47455907 Ry
     Harris-Foulkes estimate   =    -329.47455909 Ry
     estimated scf accuracy    <          1.5E-09 Ry

     The total energy is the sum of the following terms:

     one-electron contribution =    -594.76223438 Ry
     hartree contribution      =     318.94509005 Ry
     xc contribution           =     -51.37100247 Ry
     ewald contribution        =      -2.28625361 Ry
     smearing contrib. (-TS)   =      -0.00015866 Ry

     convergence has been achieved in   9 iterations

     Forces acting on atoms (Ry/au):

     atom    1 type  1   force =     0.00692998   -0.00633579   -0.00858379
     atom    2 type  1   force =     0.01000996    0.00104101   -0.00426996
     atom    3 type  1   force =     0.00474074    0.01115553    0.02655201
     atom    4 type  1   force =     0.00271589   -0.00380031   -0.00401405
     atom    5 type  1   force =    -0.02439656   -0.00206044   -0.00968421

     Total force =     0.043179     Total SCF correction =     0.000178

     number of scf cycles    =   3
     number of bfgs steps    =   2

     energy   old            =    -329.4718405769 Ry
     energy   new            =    -329.4745590743 Ry

     CASE: energy  _new < energy  _old

     new trust radius        =       0.0573904115 bohr
     new conv_thr            =       0.0000000027 Ry


ATOMIC_POSITIONS (bohr)
Au      -2.256042646   0.591441694  -0.088728798
Au      -0.386642492   2.095548364   4.371764027
Au       2.881534304   0.577877843   0.192613111
Au       4.306853517   3.853834618   5.350104077
Au       7.599468317   1.386430481   2.411595583



     Writing output data file pwscf.save
     Check: negative starting charge=   -0.006341
     NEW-OLD atomic charge density approx. for the potential
     Check: negative starting charge=   -0.006334

     negative rho (up, down):  6.198E-04 0.000E+00

     total cpu time spent up to now is        7.9 secs

     per-process dynamical memory:    50.7 Mb

     Self-consistent Calculation

     iteration #  1     ecut=    30.00 Ry     beta=0.70
     Davidson diagonalization with overlap
     ethr =  1.00E-06,  avg # of iterations =  6.0

     negative rho (up, down):  2.967E-05 0.000E+00

     total cpu time spent up to now is        8.3 secs

     total energy              =    -329.47777802 Ry
     Harris-Foulkes estimate   =    -329.47753159 Ry
     estimated scf accuracy    <       0.00047548 Ry

     iteration #  2     ecut=    30.00 Ry     beta=0.70
     Davidson diagonalization with overlap
     ethr =  8.65E-07,  avg # of iterations =  5.0

     negative rho (up, down):  1.065E-05 0.000E+00

     total cpu time spent up to now is        8.5 secs

     total energy              =    -329.47770936 Ry
     Harris-Foulkes estimate   =    -329.47819917 Ry
     estimated scf accuracy    <       0.00125682 Ry

     iteration #  3     ecut=    30.00 Ry     beta=0.70
     Davidson diagonalization with overlap
     ethr =  8.65E-07,  avg # of iterations =  2.0

     negative rho (up, down):  2.951E-07 0.000E+00

     total cpu time spent up to now is        8.8 secs

     total energy              =    -329.47795238 Ry
     Harris-Foulkes estimate   =    -329.47799248 Ry
     estimated scf accuracy    <       0.00013052 Ry

     iteration #  4     ecut=    30.00 Ry     beta=0.70
     Davidson diagonalization with overlap
     ethr =  2.37E-07,  avg # of iterations =  2.0

     total cpu time spent up to now is        9.0 secs

     total energy              =    -329.47797341 Ry
     Harris-Foulkes estimate   =    -329.47799227 Ry
     estimated scf accuracy    <       0.00005410 Ry

     iteration #  5     ecut=    30.00 Ry     beta=0.70
     Davidson diagonalization with overlap
     ethr =  9.84E-08,  avg # of iterations =  2.0

     total cpu time spent up to now is        9.2 secs

     total energy              =    -329.47798355 Ry
     Harris-Foulkes estimate   =    -329.47798735 Ry
     estimated scf accuracy    <       0.00001121 Ry

     iteration #  6     ecut=    30.00 Ry     beta=0.70
     Davidson diagonalization with overlap
     ethr =  2.04E-08,  avg # of iterations =  2.0

     total cpu time spent up to now is        9.4 secs

     total energy              =    -329.47798561 Ry
     Harris-Foulkes estimate   =    -329.47798575 Ry
     estimated scf accuracy    <       0.00000049 Ry

     iteration #  7     ecut=    30.00 Ry     beta=0.70
     Davidson diagonalization with overlap
     ethr =  8.90E-10,  avg # of iterations =  3.0

     total cpu time spent up to now is        9.7 secs

     total energy              =    -329.47798558 Ry
     Harris-Foulkes estimate   =    -329.47798582 Ry
     estimated scf accuracy    <       0.00000010 Ry

     iteration #  8     ecut=    30.00 Ry     beta=0.70
     Davidson diagonalization with overlap
     ethr =  1.87E-10,  avg # of iterations =  2.0

     total cpu time spent up to now is        9.9 secs

     total energy              =    -329.47798556 Ry
     Harris-Foulkes estimate   =    -329.47798560 Ry
     estimated scf accuracy    <       0.00000001 Ry

     iteration #  9     ecut=    30.00 Ry     beta=0.70
     Davidson diagonalization with overlap
     ethr =  1.86E-11,  avg # of iterations =  3.0

     total cpu time spent up to now is       10.1 secs

     total energy              =    -329.47798555 Ry
     Harris-Foulkes estimate   =    -329.47798556 Ry
     estimated scf accuracy    <          3.5E-09 Ry

     iteration # 10     ecut=    30.00 Ry     beta=0.70
     Davidson diagonalization with overlap
     ethr =  6.29E-12,  avg # of iterations =  2.0

     total cpu time spent up to now is       10.3 secs

     End of self-consistent calculation

          k = 0.0000 0.0000 0.0000 ( 22119 PWs)   bands (ev):

    -8.0847  -7.5151  -7.5116  -7.1581  -6.9688  -6.7254  -6.5549  -6.3718
    -6.1802  -6.0958  -5.8807  -5.6975  -5.6523  -5.6064  -5.4673  -5.3882
    -5.2826  -5.2164  -5.1902  -5.1536  -5.1408  -5.1208  -5.0293  -4.9611
    -4.8658  -4.5788  -4.4289  -3.7963  -2.6785  -2.1810  -0.4761  -0.2433
     0.4449   0.7603

     the Fermi energy is    -3.7808 ev

!    total energy              =    -329.47798554 Ry
     Harris-Foulkes estimate   =    -329.47798555 Ry
     estimated scf accuracy    <          1.5E-10 Ry

     The total energy is the sum of the following terms:

     one-electron contribution =    -598.50523504 Ry
     hartree contribution      =     320.78979211 Ry
     xc contribution           =     -51.38143103 Ry
     ewald contribution        =      -0.38065385 Ry
     smearing contrib. (-TS)   =      -0.00045773 Ry

     convergence has been achieved in  10 iterations

     Forces acting on atoms (Ry/au):

     atom    1 type  1   force =     0.00712652   -0.00577201   -0.00750413
     atom    2 type  1   force =     0.00673081    0.00072877   -0.00462238
     atom    3 type  1   force =     0.00235328    0.00934413    0.02412414
     atom    4 type  1   force =     0.00143642   -0.00074738   -0.00112263
     atom    5 type  1   force =    -0.01764703   -0.00355351   -0.01087500

     Total force =     0.036450     Total SCF correction =     0.000047

     number of scf cycles    =   4
     number of bfgs steps    =   3

     energy   old            =    -329.4745590743 Ry
     energy   new            =    -329.4779855374 Ry

     CASE: energy  _new < energy  _old

     new trust radius        =       0.0860856172 bohr
     new conv_thr            =       0.0000000024 Ry


ATOMIC_POSITIONS (bohr)
Au      -2.234885120   0.572350079  -0.114571264
Au      -0.358398688   2.098769848   4.359325671
Au       2.894095172   0.610256553   0.271382250
Au       4.314554254   3.844312124   5.340138334
Au       7.529805381   1.379444396   2.381073010



     Writing output data file pwscf.save
     Check: negative starting charge=   -0.006334
     NEW-OLD atomic charge density approx. for the potential
     Check: negative starting charge=   -0.006337

     negative rho (up, down):  1.214E-03 0.000E+00

     total cpu time spent up to now is       10.5 secs

     per-process dynamical memory:    50.7 Mb

     Self-consistent Calculation

     iteration #  1     ecut=    30.00 Ry     beta=0.70
     Davidson diagonalization with overlap
     ethr =  1.00E-06,  avg # of iterations = 10.0

     negative rho (up, down):  8.833E-05 0.000E+00

     total cpu time spent up to now is       11.0 secs

     total energy              =    -329.48119787 Ry
     Harris-Foulkes estimate   =    -329.48038750 Ry
     estimated scf accuracy    <       0.00094238 Ry

     iteration #  2     ecut=    30.00 Ry     beta=0.70
     Davidson diagonalization with overlap
     ethr =  1.71E-06,  avg # of iterations =  7.0

     negative rho (up, down):  3.525E-05 0.000E+00

     total cpu time spent up to now is       11.3 secs

     total energy              =    -329.48111458 Ry
     Harris-Foulkes estimate   =    -329.48192647 Ry
     estimated scf accuracy    <       0.00198136 Ry

     iteration #  3     ecut=    30.00 Ry     beta=0.70
     Davidson diagonalization with overlap
     ethr =  1.71E-06,  avg # of iterations =  3.0

     negative rho (up, down):  1.700E-06 0.000E+00

     total cpu time spent up to now is       11.5 secs

     total energy              =    -329.48152306 Ry
     Harris-Foulkes estimate   =    -329.48160644 Ry
     estimated scf accuracy    <       0.00026646 Ry

     iteration #  4     ecut=    30.00 Ry     beta=0.70
     Davidson diagonalization with overlap
     ethr =  4.84E-07,  avg # of iterations =  2.0

     total cpu time spent up to now is       11.7 secs

     total energy              =    -329.48156596 Ry
     Harris-Foulkes estimate   =    -329.48160191 Ry
     estimated scf accuracy    <       0.00010435 Ry

     iteration #  5     ecut=    30.00 Ry     beta=0.70
     Davidson diagonalization with overlap
     ethr =  1.90E-07,  avg # of iterations =  2.0

     total cpu time spent up to now is       11.9 secs

     total energy              =    -329.48158530 Ry
     Harris-Foulkes estimate   =    -329.48159453 Ry
     estimated scf accuracy    <       0.00002746 Ry

     iteration #  6     ecut=    30.00 Ry     beta=0.70
     Davidson diagonalization with overlap
     ethr =  4.99E-08,  avg # of iterations =  2.0

     total cpu time spent up to now is       12.1 secs

     total energy              =    -329.48158992 Ry
     Harris-Foulkes estimate   =    -329.48159019 Ry
     estimated scf accuracy    <       0.00000084 Ry

     iteration #  7     ecut=    30.00 Ry     beta=0.70
     Davidson diagonalization with overlap
     ethr =  1.53E-09,  avg # of iterations =  3.0

     total cpu time spent up to now is       12.4 secs

     total energy              =    -329.48159006 Ry
     Harris-Foulkes estimate   =    -329.48159033 Ry
     estimated scf accuracy    <       0.00000022 Ry

     iteration #  8     ecut=    30.00 Ry     beta=0.70
     Davidson diagonalization with overlap
     ethr =  3.94E-10,  avg # of iterations =  2.0

     total cpu time spent up to now is       12.6 secs

     total energy              =    -329.48159007 Ry
     Harris-Foulkes estimate   =    -329.48159012 Ry
     estimated scf accuracy    <       0.00000002 Ry

     iteration #  9     ecut=    30.00 Ry     beta=0.70
     Davidson diagonalization with overlap
     ethr =  3.91E-11,  avg # of iterations =  3.0

     total cpu time spent up to now is       12.8 secs

     total energy              =    -329.48159010 Ry
     Harris-Foulkes estimate   =    -329.48159008 Ry
     estimated scf accuracy    <          6.5E-09 Ry

     iteration # 10     ecut=    30.00 Ry     beta=0.70
     Davidson diagonalization with overlap
     ethr =  1.18E-11,  avg # of iterations =  2.0

     total cpu time spent up to now is       13.0 secs

     End of self-consistent calculation

          k = 0.0000 0.0000 0.0000 ( 22119 PWs)   bands (ev):

    -8.1831  -7.6135  -7.5734  -7.2269  -7.0614  -6.7507  -6.6134  -6.4359
    -6.2215  -6.1207  -5.9160  -5.6903  -5.6611  -5.6394  -5.4822  -5.3986
    -5.2751  -5.2223  -5.1916  -5.1661  -5.1399  -5.1281  -5.0064  -4.9553
    -4.8686  -4.5452  -4.4360  -3.7807  -2.6259  -2.1604  -0.4907  -0.2387
     0.4485   0.7835

     the Fermi energy is    -3.7630 ev

!    total energy              =    -329.48159011 Ry
     Harris-Foulkes estimate   =    -329.48159010 Ry
     estimated scf accuracy    <          3.1E-10 Ry

     The total energy is the sum of the following terms:

     one-electron contribution =    -603.91777021 Ry
     hartree contribution      =     323.45793474 Ry
     xc contribution           =     -51.39817854 Ry
     ewald contribution        =       2.37726483 Ry
     smearing contrib. (-TS)   =      -0.00084093 Ry

     convergence has been achieved in  10 iterations

     Forces acting on atoms (Ry/au):

     atom    1 type  1   force =     0.00643795   -0.00496899   -0.00567154
     atom    2 type  1   force =     0.00122027    0.00052694   -0.00365072
     atom    3 type  1   force =    -0.00327759    0.00613856    0.01667908
     atom    4 type  1   force =    -0.00029768    0.00323544    0.00366126
     atom    5 type  1   force =    -0.00408294   -0.00493195   -0.01101808

     Total force =     0.025027     Total SCF correction =     0.000075

     number of scf cycles    =   5
     number of bfgs steps    =   4

     energy   old            =    -329.4779855374 Ry
     energy   new            =    -329.4815901120 Ry

     CASE: energy  _new < energy  _old

     new trust radius        =       0.1221398114 bohr
     new conv_thr            =       0.0000000017 Ry


ATOMIC_POSITIONS (bohr)
Au      -2.201419743   0.542720832  -0.152939729
Au      -0.324809728   2.103577947   4.340887827
Au       2.901691176   0.656166599   0.384310111
Au       4.323114934   3.838184827   5.335044521
Au       7.446594361   1.364482796   2.330045269



     Writing output data file pwscf.save
     Check: negative starting charge=   -0.006337
     NEW-OLD atomic charge density approx. for the potential
     Check: negative starting charge=   -0.006423

     negative rho (up, down):  2.032E-03 0.000E+00

     total cpu time spent up to now is       13.2 secs

     per-process dynamical memory:    50.7 Mb

     Self-consistent Calculation

     iteration #  1     ecut=    30.00 Ry     beta=0.70
     Davidson diagonalization with overlap
     ethr =  1.00E-06,  avg # of iterations = 11.0

     negative rho (up, down):  1.915E-04 0.000E+00

     total cpu time spent up to now is       13.7 secs

     total energy              =    -329.48256209 Ry
     Harris-Foulkes estimate   =    -329.48153505 Ry
     estimated scf accuracy    <       0.00168704 Ry

     iteration #  2     ecut=    30.00 Ry     beta=0.70
     Davidson diagonalization with overlap
     ethr =  3.07E-06,  avg # of iterations =  7.0

     negative rho (up, down):  7.611E-05 0.000E+00

     total cpu time spent up to now is       14.0 secs

     total energy              =    -329.48255299 Ry
     Harris-Foulkes estimate   =    -329.48365147 Ry
     estimated scf accuracy    <       0.00249957 Ry

     iteration #  3     ecut=    30.00 Ry     beta=0.70
     Davidson diagonalization with overlap
     ethr =  3.07E-06,  avg # of iterations =  3.0

     negative rho (up, down):  3.959E-06 0.000E+00

     total cpu time spent up to now is       14.3 secs

     total energy              =    -329.48313056 Ry
     Harris-Foulkes estimate   =    -329.48326215 Ry
     estimated scf accuracy    <       0.00042323 Ry

     iteration #  4     ecut=    30.00 Ry     beta=0.70
     Davidson diagonalization with overlap
     ethr =  7.70E-07,  avg # of iterations =  2.0

     total cpu time spent up to now is       14.5 secs

     total energy              =    -329.48321310 Ry
     Harris-Foulkes estimate   =    -329.48323508 Ry
     estimated scf accuracy    <       0.00006197 Ry

     iteration #  5     ecut=    30.00 Ry     beta=0.70
     Davidson diagonalization with overlap
     ethr =  1.13E-07,  avg # of iterations =  2.0

     total cpu time spent up to now is       14.7 secs

     total energy              =    -329.48322228 Ry
     Harris-Foulkes estimate   =    -329.48323549 Ry
     estimated scf accuracy    <       0.00003878 Ry

     iteration #  6     ecut=    30.00 Ry     beta=0.70
     Davidson diagonalization with overlap
     ethr =  7.05E-08,  avg # of iterations =  2.0

     total cpu time spent up to now is       14.9 secs

     total energy              =    -329.48322827 Ry
     Harris-Foulkes estimate   =    -329.48322924 Ry
     estimated scf accuracy    <       0.00000174 Ry

     iteration #  7     ecut=    30.00 Ry     beta=0.70
     Davidson diagonalization with overlap
     ethr =  3.17E-09,  avg # of iterations =  3.0

     total cpu time spent up to now is       15.1 secs

     total energy              =    -329.48322855 Ry
     Harris-Foulkes estimate   =    -329.48322891 Ry
     estimated scf accuracy    <       0.00000035 Ry

     iteration #  8     ecut=    30.00 Ry     beta=0.70
     Davidson diagonalization with overlap
     ethr =  6.38E-10,  avg # of iterations =  2.0

     total cpu time spent up to now is       15.3 secs

     total energy              =    -329.48322856 Ry
     Harris-Foulkes estimate   =    -329.48322864 Ry
     estimated scf accuracy    <       0.00000006 Ry

     iteration #  9     ecut=    30.00 Ry     beta=0.70
     Davidson diagonalization with overlap
     ethr =  1.05E-10,  avg # of iterations =  3.0

     total cpu time spent up to now is       15.6 secs

     total energy              =    -329.48322851 Ry
     Harris-Foulkes estimate   =    -329.48322857 Ry
     estimated scf accuracy    <          8.8E-09 Ry

     iteration # 10     ecut=    30.00 Ry     beta=0.70
     Davidson diagonalization with overlap
     ethr =  1.60E-11,  avg # of iterations =  2.0

     total cpu time spent up to now is       15.8 secs

     End of self-consistent calculation

          k = 0.0000 0.0000 0.0000 ( 22119 PWs)   bands (ev):

    -8.3503  -7.7441  -7.6565  -7.3011  -7.1789  -6.7778  -6.7193  -6.5082
    -6.2736  -6.1488  -5.9574  -5.6937  -5.6763  -5.6580  -5.4984  -5.4077
    -5.2709  -5.2293  -5.1937  -5.1791  -5.1368  -5.1339  -4.9701  -4.9461
    -4.8739  -4.5047  -4.4456  -3.7621  -2.5565  -2.1321  -0.5098  -0.2318
     0.4564   0.8168

     the Fermi energy is    -3.7424 ev

!    total energy              =    -329.48322847 Ry
     Harris-Foulkes estimate   =    -329.48322851 Ry
     estimated scf accuracy    <          8.8E-10 Ry

     The total energy is the sum of the following terms:

     one-electron contribution =    -610.91765219 Ry
     hartree contribution      =     326.90936304 Ry
     xc contribution           =     -51.42238882 Ry
     ewald contribution        =       5.94868573 Ry
     smearing contrib. (-TS)   =      -0.00123623 Ry

     convergence has been achieved in  10 iterations

     Forces acting on atoms (Ry/au):

     atom    1 type  1   force =     0.00390536   -0.00390036   -0.00398836
     atom    2 type  1   force =    -0.00711955    0.00057478   -0.00090178
     atom    3 type  1   force =    -0.01456864    0.00161228    0.00385122
     atom    4 type  1   force =    -0.00092972    0.00670059    0.00888354
     atom    5 type  1   force =     0.01871255   -0.00498729   -0.00784462

     Total force =     0.029818     Total SCF correction =     0.000128

     number of scf cycles    =   6
     number of bfgs steps    =   5

     energy   old            =    -329.4815901120 Ry
     energy   new            =    -329.4832284708 Ry

     CASE: energy  _new < energy  _old

     new trust radius        =       0.0179984457 bohr
     new conv_thr            =       0.0000000016 Ry


ATOMIC_POSITIONS (bohr)
Au      -2.199131162   0.540011048  -0.155658919
Au      -0.331098981   2.104097188   4.341009604
Au       2.889350802   0.656595968   0.384711030
Au       4.322484612   3.843310987   5.342200209
Au       7.463565729   1.361117810   2.325086076



     Writing output data file pwscf.save
     Check: negative starting charge=   -0.006423
     NEW-OLD atomic charge density approx. for the potential
     Check: negative starting charge=   -0.006420

     negative rho (up, down):  2.853E-05 0.000E+00

     total cpu time spent up to now is       16.0 secs

     per-process dynamical memory:    50.7 Mb

     Self-consistent Calculation

     iteration #  1     ecut=    30.00 Ry     beta=0.70
     Davidson diagonalization with overlap
     ethr =  1.00E-06,  avg # of iterations =  4.0

     negative rho (up, down):  7.822E-08 0.000E+00

     total cpu time spent up to now is       16.4 secs

     total energy              =    -329.48382370 Ry
     Harris-Foulkes estimate   =    -329.48385017 Ry
     estimated scf accuracy    <       0.00006609 Ry

     iteration #  2     ecut=    30.00 Ry     beta=0.70
     Davidson diagonalization with overlap
     ethr =  1.20E-07,  avg # of iterations =  3.0

     negative rho (up, down):  1.502E-08 0.000E+00

     total cpu time spent up to now is       16.6 secs

     total energy              =    -329.48379943 Ry
     Harris-Foulkes estimate   =    -329.48391688 Ry
     estimated scf accuracy    <       0.00035988 Ry

     iteration #  3     ecut=    30.00 Ry     beta=0.70
     Davidson diagonalization with overlap
     ethr =  1.20E-07,  avg # of iterations =  3.0

     total cpu time spent up to now is       16.8 secs

     total energy              =    -329.48385626 Ry
     Harris-Foulkes estimate   =    -329.48385946 Ry
     estimated scf accuracy    <       0.00001014 Ry

     iteration #  4     ecut=    30.00 Ry     beta=0.70
     Davidson diagonalization with overlap
     ethr =  1.84E-08,  avg # of iterations =  2.0

     total cpu time spent up to now is       17.0 secs

     total energy              =    -329.48385785 Ry
     Harris-Foulkes estimate   =    -329.48385963 Ry
     estimated scf accuracy    <       0.00000440 Ry

     iteration #  5     ecut=    30.00 Ry     beta=0.70
     Davidson diagonalization with overlap
     ethr =  8.00E-09,  avg # of iterations =  2.0

     total cpu time spent up to now is       17.2 secs

     total energy              =    -329.48385870 Ry
     Harris-Foulkes estimate   =    -329.48385889 Ry
     estimated scf accuracy    <       0.00000055 Ry

     iteration #  6     ecut=    30.00 Ry     beta=0.70
     Davidson diagonalization with overlap
     ethr =  1.00E-09,  avg # of iterations =  2.0

     total cpu time spent up to now is       17.4 secs

     total energy              =    -329.48385865 Ry
     Harris-Foulkes estimate   =    -329.48385884 Ry
     estimated scf accuracy    <       0.00000006 Ry

     iteration #  7     ecut=    30.00 Ry     beta=0.70
     Davidson diagonalization with overlap
     ethr =  1.15E-10,  avg # of iterations =  2.0

     total cpu time spent up to now is       17.7 secs

     total energy              =    -329.48385874 Ry
     Harris-Foulkes estimate   =    -329.48385867 Ry
     estimated scf accuracy    <          5.4E-09 Ry

     iteration #  8     ecut=    30.00 Ry     beta=0.70
     Davidson diagonalization with overlap
     ethr =  9.88E-12,  avg # of iterations =  3.0

     total cpu time spent up to now is       17.9 secs

     End of self-consistent calculation

          k = 0.0000 0.0000 0.0000 ( 22119 PWs)   bands (ev):

    -8.3425  -7.7232  -7.6411  -7.2760  -7.1710  -6.7591  -6.7107  -6.4941
    -6.2631  -6.1356  -5.9549  -5.6885  -5.6854  -5.6630  -5.4965  -5.4029
    -5.2683  -5.2340  -5.1950  -5.1791  -5.1400  -5.1341  -4.9725  -4.9511
    -4.8783  -4.5086  -4.4511  -3.7646  -2.5588  -2.1428  -0.5076  -0.2311
     0.4566   0.8143

     the Fermi energy is    -3.7443 ev

!    total energy              =    -329.48385880 Ry
     Harris-Foulkes estimate   =    -329.48385875 Ry
     estimated scf accuracy    <          1.4E-09 Ry

     The total energy is the sum of the following terms:

     one-electron contribution =    -609.97319159 Ry
     hartree contribution      =     326.44263174 Ry
     xc contribution           =     -51.41803251 Ry
     ewald contribution        =       5.46609614 Ry
     smearing contrib. (-TS)   =      -0.00136258 Ry

     convergence has been achieved in   8 iterations

     Forces acting on atoms (Ry/au):

     atom    1 type  1   force =     0.00264134   -0.00388298   -0.00422405
     atom    2 type  1   force =    -0.00575173    0.00106305   -0.00048727
     atom    3 type  1   force =    -0.01003082    0.00214815    0.00538207
     atom    4 type  1   force =     0.00009827    0.00445537    0.00644860
     atom    5 type  1   force =     0.01304294   -0.00378359   -0.00711935

     Total force =     0.022475     Total SCF correction =     0.000164

     number of scf cycles    =   7
     number of bfgs steps    =   6

     energy   old            =    -329.4832284708 Ry
     energy   new            =    -329.4838588000 Ry

     CASE: energy  _new < energy  _old

     new trust radius        =       0.0197982903 bohr
     new conv_thr            =       0.0000000006 Ry


ATOMIC_POSITIONS (bohr)
Au      -2.193435115   0.533049230  -0.163851995
Au      -0.334688817   2.105764249   4.339459878
Au       2.877415606   0.662799296   0.399238318
Au       4.323531986   3.847549582   5.349124505
Au       7.472347341   1.355970643   2.313377293



     Writing output data file pwscf.save
     Check: negative starting charge=   -0.006420
     NEW-OLD atomic charge density approx. for the potential
     Check: negative starting charge=   -0.006431

     negative rho (up, down):  5.478E-05 0.000E+00

     total cpu time spent up to now is       18.1 secs

     per-process dynamical memory:    50.7 Mb

     Self-consistent Calculation

     iteration #  1     ecut=    30.00 Ry     beta=0.70
     Davidson diagonalization with overlap
     ethr =  1.00E-06,  avg # of iterations =  4.0

     negative rho (up, down):  2.548E-07 0.000E+00

     total cpu time spent up to now is       18.4 secs

     total energy              =    -329.48435798 Ry
     Harris-Foulkes estimate   =    -329.48438701 Ry
     estimated scf accuracy    <       0.00008451 Ry

     iteration #  2     ecut=    30.00 Ry     beta=0.70
     Davidson diagonalization with overlap
     ethr =  1.54E-07,  avg # of iterations =  3.0

     negative rho (up, down):  4.748E-08 0.000E+00

     total cpu time spent up to now is       18.7 secs

     total energy              =    -329.48433310 Ry
     Harris-Foulkes estimate   =    -329.48444894 Ry
     estimated scf accuracy    <       0.00032786 Ry

     iteration #  3     ecut=    30.00 Ry     beta=0.70
     Davidson diagonalization with overlap
     ethr =  1.54E-07,  avg # of iterations =  3.0

     total cpu time spent up to now is       18.9 secs

     total energy              =    -329.48439099 Ry
     Harris-Foulkes estimate   =    -329.48439982 Ry
     estimated scf accuracy    <       0.00002766 Ry

     iteration #  4     ecut=    30.00 Ry     beta=0.70
     Davidson diagonalization with overlap
     ethr =  5.03E-08,  avg # of iterations =  2.0

     total cpu time spent up to now is       19.1 secs

     total energy              =    -329.48439517 Ry
     Harris-Foulkes estimate   =    -329.48439588 Ry
     estimated scf accuracy    <       0.00000150 Ry

     iteration #  5     ecut=    30.00 Ry     beta=0.70
     Davidson diagonalization with overlap
     ethr =  2.72E-09,  avg # of iterations =  3.0

     total cpu time spent up to now is       19.3 secs

     total energy              =    -329.48439554 Ry
     Harris-Foulkes estimate   =    -329.48439587 Ry
     estimated scf accuracy    <       0.00000081 Ry

     iteration #  6     ecut=    30.00 Ry     beta=0.70
     Davidson diagonalization with overlap
     ethr =  1.48E-09,  avg # of iterations =  2.0

     total cpu time spent up to now is       19.5 secs

     total energy              =    -329.48439570 Ry
     Harris-Foulkes estimate   =    -329.48439572 Ry
     estimated scf accuracy    <       0.00000006 Ry

     iteration #  7     ecut=    30.00 Ry     beta=0.70
     Davidson diagonalization with overlap
     ethr =  1.13E-10,  avg # of iterations =  2.0

     total cpu time spent up to now is       19.8 secs

     total energy              =    -329.48439564 Ry
     Harris-Foulkes estimate   =    -329.48439572 Ry
     estimated scf accuracy    <       0.00000001 Ry

     iteration #  8     ecut=    30.00 Ry     beta=0.70
     Davidson diagonalization with overlap
     ethr =  2.00E-11,  avg # of iterations =  2.0

     total cpu time spent up to now is       20.0 secs

     total energy              =    -329.48439565 Ry
     Harris-Foulkes estimate   =    -329.48439565 Ry
     estimated scf accuracy    <          1.4E-09 Ry

     iteration #  9     ecut=    30.00 Ry     beta=0.70
     Davidson diagonalization with overlap
     ethr =  2.61E-12,  avg # of iterations =  3.0

     total cpu time spent up to now is       20.2 secs

     End of self-consistent calculation

          k = 0.0000 0.0000 0.0000 ( 22119 PWs)   bands (ev):

    -8.3556  -7.7182  -7.6352  -7.2571  -7.1745  -6.7460  -6.7123  -6.4885
    -6.2571  -6.1241  -5.9568  -5.6940  -5.6881  -5.6677  -5.4951  -5.3984
    -5.2669  -5.2386  -5.1969  -5.1800  -5.1447  -5.1328  -4.9711  -4.9549
    -4.8837  -4.5096  -4.4577  -3.7652  -2.5540  -2.1509  -0.5077  -0.2294
     0.4572   0.8157

     the Fermi energy is    -3.7440 ev

!    total energy              =    -329.48439565 Ry
     Harris-Foulkes estimate   =    -329.48439565 Ry
     estimated scf accuracy    <          6.3E-10 Ry

     The total energy is the sum of the following terms:

     one-electron contribution =    -609.74211315 Ry
     hartree contribution      =     326.32681007 Ry
     xc contribution           =     -51.41623598 Ry
     ewald contribution        =       5.34870297 Ry
     smearing contrib. (-TS)   =      -0.00155955 Ry

     convergence has been achieved in   9 iterations

     Forces acting on atoms (Ry/au):

     atom    1 type  1   force =     0.00121573   -0.00369935   -0.00428624
     atom    2 type  1   force =    -0.00536685    0.00162483    0.00013369
     atom    3 type  1   force =    -0.00694892    0.00215742    0.00547144
     atom    4 type  1   force =     0.00093813    0.00257972    0.00451837
     atom    5 type  1   force =     0.01016191   -0.00266262   -0.00583725

     Total force =     0.017896     Total SCF correction =     0.000100

     number of scf cycles    =   8
     number of bfgs steps    =   7

     energy   old            =    -329.4838588000 Ry
     energy   new            =    -329.4843956487 Ry

     CASE: energy  _new < energy  _old

     new trust radius        =       0.0296974354 bohr
     new conv_thr            =       0.0000000005 Ry


ATOMIC_POSITIONS (bohr)
Au      -2.186038578   0.522236381  -0.176973300
Au      -0.339349940   2.109094848   4.337511450
Au       2.863204369   0.672931698   0.423265654
Au       4.326264239   3.851656890   5.357229196
Au       7.481090910   1.349213182   2.296315000



     Writing output data file pwscf.save
     Check: negative starting charge=   -0.006431
     NEW-OLD atomic charge density approx. for the potential
     Check: negative starting charge=   -0.006448

     negative rho (up, down):  1.457E-04 0.000E+00

     total cpu time spent up to now is       20.4 secs

     per-process dynamical memory:    50.7 Mb

     Self-consistent Calculation

     iteration #  1     ecut=    30.00 Ry     beta=0.70
     Davidson diagonalization with overlap
     ethr =  1.00E-06,  avg # of iterations =  4.0

     negative rho (up, down):  1.901E-06 0.000E+00

     total cpu time spent up to now is       20.8 secs

     total energy              =    -329.48489366 Ry
     Harris-Foulkes estimate   =    -329.48492806 Ry
     estimated scf accuracy    <       0.00015868 Ry

     iteration #  2     ecut=    30.00 Ry     beta=0.70
     Davidson diagonalization with overlap
     ethr =  2.89E-07,  avg # of iterations =  3.0

     negative rho (up, down):  4.170E-07 0.000E+00

     total cpu time spent up to now is       21.0 secs

     total energy              =    -329.48485602 Ry
     Harris-Foulkes estimate   =    -329.48504309 Ry
     estimated scf accuracy    <       0.00050009 Ry

     iteration #  3     ecut=    30.00 Ry     beta=0.70
     Davidson diagonalization with overlap
     ethr =  2.89E-07,  avg # of iterations =  3.0

     total cpu time spent up to now is       21.2 secs

     total energy              =    -329.48494977 Ry
     Harris-Foulkes estimate   =    -329.48497045 Ry
     estimated scf accuracy    <       0.00006871 Ry

     iteration #  4     ecut=    30.00 Ry     beta=0.70
     Davidson diagonalization with overlap
     ethr =  1.25E-07,  avg # of iterations =  2.0

     total cpu time spent up to now is       21.4 secs

     total energy              =    -329.48496028 Ry
     Harris-Foulkes estimate   =    -329.48496103 Ry
     estimated scf accuracy    <       0.00000225 Ry

     iteration #  5     ecut=    30.00 Ry     beta=0.70
     Davidson diagonalization with overlap
     ethr =  4.09E-09,  avg # of iterations =  3.0

     total cpu time spent up to now is       21.6 secs

     total energy              =    -329.48496105 Ry
     Harris-Foulkes estimate   =    -329.48496136 Ry
     estimated scf accuracy    <       0.00000086 Ry

     iteration #  6     ecut=    30.00 Ry     beta=0.70
     Davidson diagonalization with overlap
     ethr =  1.57E-09,  avg # of iterations =  2.0

     total cpu time spent up to now is       21.9 secs

     total energy              =    -329.48496110 Ry
     Harris-Foulkes estimate   =    -329.48496124 Ry
     estimated scf accuracy    <       0.00000011 Ry

     iteration #  7     ecut=    30.00 Ry     beta=0.70
     Davidson diagonalization with overlap
     ethr =  2.03E-10,  avg # of iterations =  2.0

     total cpu time spent up to now is       22.1 secs

     total energy              =    -329.48496104 Ry
     Harris-Foulkes estimate   =    -329.48496112 Ry
     estimated scf accuracy    <       0.00000001 Ry

     iteration #  8     ecut=    30.00 Ry     beta=0.70
     Davidson diagonalization with overlap
     ethr =  2.69E-11,  avg # of iterations =  3.0

     total cpu time spent up to now is       22.3 secs

     total energy              =    -329.48496107 Ry
     Harris-Foulkes estimate   =    -329.48496105 Ry
     estimated scf accuracy    <          5.2E-09 Ry

     iteration #  9     ecut=    30.00 Ry     beta=0.70
     Davidson diagonalization with overlap
     ethr =  9.45E-12,  avg # of iterations =  3.0

     total cpu time spent up to now is       22.6 secs

     total energy              =    -329.48496107 Ry
     Harris-Foulkes estimate   =    -329.48496107 Ry
     estimated scf accuracy    <          1.1E-09 Ry

     iteration # 10     ecut=    30.00 Ry     beta=0.70
     Davidson diagonalization with overlap
     ethr =  1.96E-12,  avg # of iterations =  2.0

     total cpu time spent up to now is       22.7 secs

     End of self-consistent calculation

          k = 0.0000 0.0000 0.0000 ( 22119 PWs)   bands (ev):

    -8.3785  -7.7183  -7.6315  -7.2367  -7.1799  -6.7438  -6.7046  -6.4861
    -6.2508  -6.1091  -5.9611  -5.7038  -5.6897  -5.6732  -5.4926  -5.3931
    -5.2682  -5.2424  -5.1995  -5.1817  -5.1509  -5.1309  -4.9689  -4.9590
    -4.8914  -4.5117  -4.4663  -3.7653  -2.5465  -2.1605  -0.5087  -0.2267
     0.4576   0.8190

     the Fermi energy is    -3.7427 ev

!    total energy              =    -329.48496107 Ry
     Harris-Foulkes estimate   =    -329.48496107 Ry
     estimated scf accuracy    <          1.8E-10 Ry

     The total energy is the sum of the following terms:

     one-electron contribution =    -609.63391262 Ry
     hartree contribution      =     326.27050576 Ry
     xc contribution           =     -51.41461496 Ry
     ewald contribution        =       5.29492528 Ry
     smearing contrib. (-TS)   =      -0.00186453 Ry

     convergence has been achieved in  10 iterations

     Forces acting on atoms (Ry/au):

     atom    1 type  1   force =    -0.00031379   -0.00337052   -0.00417984
     atom    2 type  1   force =    -0.00527042    0.00238823    0.00081682
     atom    3 type  1   force =    -0.00365859    0.00201339    0.00507722
     atom    4 type  1   force =     0.00166170    0.00052283    0.00233858
     atom    5 type  1   force =     0.00758109   -0.00155393   -0.00405277

     Total force =     0.013824     Total SCF correction =     0.000058

     number of scf cycles    =   9
     number of bfgs steps    =   8

     energy   old            =    -329.4843956487 Ry
     energy   new            =    -329.4849610702 Ry

     CASE: energy  _new < energy  _old

     new trust radius        =       0.0445461531 bohr
     new conv_thr            =       0.0000000006 Ry


ATOMIC_POSITIONS (bohr)
Au      -2.176760917   0.505369626  -0.197830920
Au      -0.347752194   2.115775979   4.335522243
Au       2.844937115   0.688681969   0.460716904
Au       4.331689923   3.855457605   5.367350735
Au       7.493057073   1.339847821   2.271589038



     Writing output data file pwscf.save
     Check: negative starting charge=   -0.006448
     NEW-OLD atomic charge density approx. for the potential
     Check: negative starting charge=   -0.006468

     negative rho (up, down):  3.597E-04 0.000E+00

     total cpu time spent up to now is       22.9 secs

     per-process dynamical memory:    50.7 Mb

     Self-consistent Calculation

     iteration #  1     ecut=    30.00 Ry     beta=0.70
     Davidson diagonalization with overlap
     ethr =  1.00E-06,  avg # of iterations =  4.0

     negative rho (up, down):  1.104E-05 0.000E+00

     total cpu time spent up to now is       23.3 secs

     total energy              =    -329.48541234 Ry
     Harris-Foulkes estimate   =    -329.48540107 Ry
     estimated scf accuracy    <       0.00033688 Ry

     iteration #  2     ecut=    30.00 Ry     beta=0.70
     Davidson diagonalization with overlap
     ethr =  6.13E-07,  avg # of iterations =  3.0

     negative rho (up, down):  3.201E-06 0.000E+00

     total cpu time spent up to now is       23.5 secs

     total energy              =    -329.48534840 Ry
     Harris-Foulkes estimate   =    -329.48570691 Ry
     estimated scf accuracy    <       0.00092362 Ry

     iteration #  3     ecut=    30.00 Ry     beta=0.70
     Davidson diagonalization with overlap
     ethr =  6.13E-07,  avg # of iterations =  2.0

     negative rho (up, down):  9.402E-08 0.000E+00

     total cpu time spent up to now is       23.8 secs

     total energy              =    -329.48552645 Ry
     Harris-Foulkes estimate   =    -329.48557628 Ry
     estimated scf accuracy    <       0.00016563 Ry

     iteration #  4     ecut=    30.00 Ry     beta=0.70
     Davidson diagonalization with overlap
     ethr =  3.01E-07,  avg # of iterations =  2.0

     total cpu time spent up to now is       24.0 secs

     total energy              =    -329.48555151 Ry
     Harris-Foulkes estimate   =    -329.48555323 Ry
     estimated scf accuracy    <       0.00000469 Ry

     iteration #  5     ecut=    30.00 Ry     beta=0.70
     Davidson diagonalization with overlap
     ethr =  8.52E-09,  avg # of iterations =  3.0

     total cpu time spent up to now is       24.2 secs

     total energy              =    -329.48555321 Ry
     Harris-Foulkes estimate   =    -329.48555392 Ry
     estimated scf accuracy    <       0.00000224 Ry

     iteration #  6     ecut=    30.00 Ry     beta=0.70
     Davidson diagonalization with overlap
     ethr =  4.08E-09,  avg # of iterations =  2.0

     total cpu time spent up to now is       24.4 secs

     total energy              =    -329.48555370 Ry
     Harris-Foulkes estimate   =    -329.48555371 Ry
     estimated scf accuracy    <       0.00000033 Ry

     iteration #  7     ecut=    30.00 Ry     beta=0.70
     Davidson diagonalization with overlap
     ethr =  5.98E-10,  avg # of iterations =  2.0

     total cpu time spent up to now is       24.6 secs

     total energy              =    -329.48555371 Ry
     Harris-Foulkes estimate   =    -329.48555376 Ry
     estimated scf accuracy    <       0.00000004 Ry

     iteration #  8     ecut=    30.00 Ry     beta=0.70
     Davidson diagonalization with overlap
     ethr =  7.86E-11,  avg # of iterations =  2.0

     total cpu time spent up to now is       24.8 secs

     total energy              =    -329.48555374 Ry
     Harris-Foulkes estimate   =    -329.48555372 Ry
     estimated scf accuracy    <          9.8E-09 Ry

     iteration #  9     ecut=    30.00 Ry     beta=0.70
     Davidson diagonalization with overlap
     ethr =  1.78E-11,  avg # of iterations =  2.0

     total cpu time spent up to now is       25.1 secs

     total energy              =    -329.48555377 Ry
     Harris-Foulkes estimate   =    -329.48555374 Ry
     estimated scf accuracy    <          3.0E-09 Ry

     iteration # 10     ecut=    30.00 Ry     beta=0.70
     Davidson diagonalization with overlap
     ethr =  5.41E-12,  avg # of iterations =  2.0

     total cpu time spent up to now is       25.3 secs

     End of self-consistent calculation

          k = 0.0000 0.0000 0.0000 ( 22119 PWs)   bands (ev):

    -8.4114  -7.7224  -7.6299  -7.2193  -7.1743  -6.7587  -6.6765  -6.4873
    -6.2414  -6.0869  -5.9690  -5.7167  -5.6923  -5.6798  -5.4869  -5.3862
    -5.2766  -5.2422  -5.2032  -5.1840  -5.1591  -5.1285  -4.9680  -4.9620
    -4.9026  -4.5179  -4.4778  -3.7653  -2.5367  -2.1742  -0.5108  -0.2226
     0.4570   0.8245

     the Fermi energy is    -3.7406 ev

!    total energy              =    -329.48555379 Ry
     Harris-Foulkes estimate   =    -329.48555377 Ry
     estimated scf accuracy    <          4.4E-10 Ry

     The total energy is the sum of the following terms:

     one-electron contribution =    -609.47549369 Ry
     hartree contribution      =     326.18732217 Ry
     xc contribution           =     -51.41235087 Ry
     ewald contribution        =       5.21730528 Ry
     smearing contrib. (-TS)   =      -0.00233669 Ry

     convergence has been achieved in  10 iterations

     Forces acting on atoms (Ry/au):

     atom    1 type  1   force =    -0.00191101   -0.00285127   -0.00361618
     atom    2 type  1   force =    -0.00541393    0.00348776    0.00167972
     atom    3 type  1   force =     0.00036097    0.00180964    0.00409903
     atom    4 type  1   force =     0.00216483   -0.00195703   -0.00032297
     atom    5 type  1   force =     0.00479913   -0.00048911   -0.00183960

     Total force =     0.011164     Total SCF correction =     0.000085

     number of scf cycles    =  10
     number of bfgs steps    =   9

     energy   old            =    -329.4849610702 Ry
     energy   new            =    -329.4855537932 Ry

     CASE: energy  _new < energy  _old

     new trust radius        =       0.0668192297 bohr
     new conv_thr            =       0.0000000005 Ry


ATOMIC_POSITIONS (bohr)
Au      -2.165930545   0.478572062  -0.230987441
Au      -0.365190193   2.129712271   4.334733718
Au       2.821728315   0.713251028   0.518358230
Au       4.341731293   3.857285122   5.379692789
Au       7.512832129   1.326312517   2.235550705



     Writing output data file pwscf.save
     Check: negative starting charge=   -0.006468
     NEW-OLD atomic charge density approx. for the potential
     Check: negative starting charge=   -0.006485

     negative rho (up, down):  8.095E-04 0.000E+00

     total cpu time spent up to now is       25.5 secs

     per-process dynamical memory:    50.7 Mb

     Self-consistent Calculation

     iteration #  1     ecut=    30.00 Ry     beta=0.70
     Davidson diagonalization with overlap
     ethr =  1.00E-06,  avg # of iterations =  6.0

     negative rho (up, down):  4.612E-05 0.000E+00

     total cpu time spent up to now is       25.9 secs

     total energy              =    -329.48575127 Ry
     Harris-Foulkes estimate   =    -329.48547711 Ry
     estimated scf accuracy    <       0.00074527 Ry

     iteration #  2     ecut=    30.00 Ry     beta=0.70
     Davidson diagonalization with overlap
     ethr =  1.36E-06,  avg # of iterations =  5.0

     negative rho (up, down):  1.654E-05 0.000E+00

     total cpu time spent up to now is       26.2 secs

     total energy              =    -329.48565002 Ry
     Harris-Foulkes estimate   =    -329.48634495 Ry
     estimated scf accuracy    <       0.00171716 Ry

     iteration #  3     ecut=    30.00 Ry     beta=0.70
     Davidson diagonalization with overlap
     ethr =  1.36E-06,  avg # of iterations =  2.0

     negative rho (up, down):  1.242E-06 0.000E+00

     total cpu time spent up to now is       26.4 secs

     total energy              =    -329.48598986 Ry
     Harris-Foulkes estimate   =    -329.48611228 Ry
     estimated scf accuracy    <       0.00040465 Ry

     iteration #  4     ecut=    30.00 Ry     beta=0.70
     Davidson diagonalization with overlap
     ethr =  7.36E-07,  avg # of iterations =  2.0

     total cpu time spent up to now is       26.6 secs

     total energy              =    -329.48605500 Ry
     Harris-Foulkes estimate   =    -329.48605601 Ry
     estimated scf accuracy    <       0.00001160 Ry

     iteration #  5     ecut=    30.00 Ry     beta=0.70
     Davidson diagonalization with overlap
     ethr =  2.11E-08,  avg # of iterations =  3.0

     total cpu time spent up to now is       26.8 secs

     total energy              =    -329.48605851 Ry
     Harris-Foulkes estimate   =    -329.48606121 Ry
     estimated scf accuracy    <       0.00000690 Ry

     iteration #  6     ecut=    30.00 Ry     beta=0.70
     Davidson diagonalization with overlap
     ethr =  1.25E-08,  avg # of iterations =  2.0

     total cpu time spent up to now is       27.0 secs

     total energy              =    -329.48605953 Ry
     Harris-Foulkes estimate   =    -329.48605996 Ry
     estimated scf accuracy    <       0.00000081 Ry

     iteration #  7     ecut=    30.00 Ry     beta=0.70
     Davidson diagonalization with overlap
     ethr =  1.47E-09,  avg # of iterations =  2.0

     total cpu time spent up to now is       27.2 secs

     total energy              =    -329.48605957 Ry
     Harris-Foulkes estimate   =    -329.48605968 Ry
     estimated scf accuracy    <       0.00000009 Ry

     iteration #  8     ecut=    30.00 Ry     beta=0.70
     Davidson diagonalization with overlap
     ethr =  1.70E-10,  avg # of iterations =  2.0

     total cpu time spent up to now is       27.4 secs

     total energy              =    -329.48605958 Ry
     Harris-Foulkes estimate   =    -329.48605960 Ry
     estimated scf accuracy    <       0.00000002 Ry

     iteration #  9     ecut=    30.00 Ry     beta=0.70
     Davidson diagonalization with overlap
     ethr =  3.89E-11,  avg # of iterations =  2.0

     total cpu time spent up to now is       27.7 secs

     total energy              =    -329.48605959 Ry
     Harris-Foulkes estimate   =    -329.48605959 Ry
     estimated scf accuracy    <          7.9E-09 Ry

     iteration # 10     ecut=    30.00 Ry     beta=0.70
     Davidson diagonalization with overlap
     ethr =  1.43E-11,  avg # of iterations =  2.0

     total cpu time spent up to now is       27.9 secs

     total energy              =    -329.48605959 Ry
     Harris-Foulkes estimate   =    -329.48605959 Ry
     estimated scf accuracy    <          1.1E-09 Ry

     iteration # 11     ecut=    30.00 Ry     beta=0.70
     Davidson diagonalization with overlap
     ethr =  1.96E-12,  avg # of iterations =  3.0

     total cpu time spent up to now is       28.1 secs

     End of self-consistent calculation

          k = 0.0000 0.0000 0.0000 ( 22119 PWs)   bands (ev):

    -8.4530  -7.7289  -7.6330  -7.2142  -7.1343  -6.7823  -6.6288  -6.4933
    -6.2260  -6.0530  -5.9831  -5.7323  -5.6952  -5.6865  -5.4744  -5.3780
    -5.2944  -5.2373  -5.2079  -5.1863  -5.1696  -5.1256  -4.9719  -4.9611
    -4.9185  -4.5325  -4.4941  -3.7662  -2.5257  -2.1953  -0.5140  -0.2158
     0.4548   0.8330

     the Fermi energy is    -3.7385 ev

!    total energy              =    -329.48605959 Ry
     Harris-Foulkes estimate   =    -329.48605959 Ry
     estimated scf accuracy    <          1.9E-10 Ry

     The total energy is the sum of the following terms:

     one-electron contribution =    -608.99223657 Ry
     hartree contribution      =     325.94066243 Ry
     xc contribution           =     -51.40830062 Ry
     ewald contribution        =       4.97685223 Ry
     smearing contrib. (-TS)   =      -0.00303706 Ry

     convergence has been achieved in  11 iterations

     Forces acting on atoms (Ry/au):

     atom    1 type  1   force =    -0.00332285   -0.00212153   -0.00163010
     atom    2 type  1   force =    -0.00590279    0.00480002    0.00306078
     atom    3 type  1   force =     0.00545274    0.00148513    0.00147063
     atom    4 type  1   force =     0.00220321   -0.00513606   -0.00332734
     atom    5 type  1   force =     0.00156969    0.00097244    0.00042603

     Total force =     0.012863     Total SCF correction =     0.000070

     number of scf cycles    =  11
     number of bfgs steps    =  10

     energy   old            =    -329.4855537932 Ry
     energy   new            =    -329.4860595927 Ry

     CASE: energy  _new < energy  _old

     new trust radius        =       0.0291900434 bohr
     new conv_thr            =       0.0000000005 Ry


ATOMIC_POSITIONS (bohr)
Au      -2.164868311   0.464012905  -0.247375881
Au      -0.381904352   2.141627825   4.338235293
Au       2.815364642   0.725379114   0.544135581
Au       4.348347479   3.853286717   5.382940789
Au       7.528231541   1.320826440   2.219412218



     Writing output data file pwscf.save
     Check: negative starting charge=   -0.006485
     NEW-OLD atomic charge density approx. for the potential
     Check: negative starting charge=   -0.006493

     negative rho (up, down):  2.121E-04 0.000E+00

     total cpu time spent up to now is       28.3 secs

     per-process dynamical memory:    50.7 Mb

     Self-consistent Calculation

     iteration #  1     ecut=    30.00 Ry     beta=0.70
     Davidson diagonalization with overlap
     ethr =  1.00E-06,  avg # of iterations =  4.0

     negative rho (up, down):  4.064E-06 0.000E+00

     total cpu time spent up to now is       28.6 secs

     total energy              =    -329.48620953 Ry
     Harris-Foulkes estimate   =    -329.48621412 Ry
     estimated scf accuracy    <       0.00017217 Ry

     iteration #  2     ecut=    30.00 Ry     beta=0.70
     Davidson diagonalization with overlap
     ethr =  3.13E-07,  avg # of iterations =  3.0

     negative rho (up, down):  5.810E-07 0.000E+00

     total cpu time spent up to now is       28.9 secs

     total energy              =    -329.48620700 Ry
     Harris-Foulkes estimate   =    -329.48631939 Ry
     estimated scf accuracy    <       0.00024969 Ry

     iteration #  3     ecut=    30.00 Ry     beta=0.70
     Davidson diagonalization with overlap
     ethr =  3.13E-07,  avg # of iterations =  2.0

     negative rho (up, down):  2.294E-08 0.000E+00

     total cpu time spent up to now is       29.1 secs

     total energy              =    -329.48625736 Ry
     Harris-Foulkes estimate   =    -329.48629004 Ry
     estimated scf accuracy    <       0.00010627 Ry

     iteration #  4     ecut=    30.00 Ry     beta=0.70
     Davidson diagonalization with overlap
     ethr =  1.93E-07,  avg # of iterations =  1.0

     total cpu time spent up to now is       29.3 secs

     total energy              =    -329.48627590 Ry
     Harris-Foulkes estimate   =    -329.48627542 Ry
     estimated scf accuracy    <       0.00000349 Ry

     iteration #  5     ecut=    30.00 Ry     beta=0.70
     Davidson diagonalization with overlap
     ethr =  6.34E-09,  avg # of iterations =  3.0

     total cpu time spent up to now is       29.5 secs

     total energy              =    -329.48627699 Ry
     Harris-Foulkes estimate   =    -329.48627768 Ry
     estimated scf accuracy    <       0.00000198 Ry

     iteration #  6     ecut=    30.00 Ry     beta=0.70
     Davidson diagonalization with overlap
     ethr =  3.60E-09,  avg # of iterations =  2.0

     total cpu time spent up to now is       29.7 secs

     total energy              =    -329.48627729 Ry
     Harris-Foulkes estimate   =    -329.48627739 Ry
     estimated scf accuracy    <       0.00000022 Ry

     iteration #  7     ecut=    30.00 Ry     beta=0.70
     Davidson diagonalization with overlap
     ethr =  4.01E-10,  avg # of iterations =  2.0

     total cpu time spent up to now is       29.9 secs

     total energy              =    -329.48627729 Ry
     Harris-Foulkes estimate   =    -329.48627733 Ry
     estimated scf accuracy    <       0.00000003 Ry

     iteration #  8     ecut=    30.00 Ry     beta=0.70
     Davidson diagonalization with overlap
     ethr =  4.61E-11,  avg # of iterations =  2.0

     total cpu time spent up to now is       30.1 secs

     total energy              =    -329.48627737 Ry
     Harris-Foulkes estimate   =    -329.48627730 Ry
     estimated scf accuracy    <          4.9E-09 Ry

     iteration #  9     ecut=    30.00 Ry     beta=0.70
     Davidson diagonalization with overlap
     ethr =  8.82E-12,  avg # of iterations =  3.0

     total cpu time spent up to now is       30.4 secs

     total energy              =    -329.48627741 Ry
     Harris-Foulkes estimate   =    -329.48627738 Ry
     estimated scf accuracy    <          2.2E-09 Ry

     iteration # 10     ecut=    30.00 Ry     beta=0.70
     Davidson diagonalization with overlap
     ethr =  3.97E-12,  avg # of iterations =  2.0

     total cpu time spent up to now is       30.6 secs

     End of self-consistent calculation

          k = 0.0000 0.0000 0.0000 ( 22119 PWs)   bands (ev):

    -8.4576  -7.7240  -7.6286  -7.2038  -7.1072  -6.7842  -6.6052  -6.4915
    -6.2176  -6.0360  -5.9882  -5.7350  -5.6943  -5.6870  -5.4660  -5.3743
    -5.3036  -5.2361  -5.2100  -5.1865  -5.1754  -5.1256  -4.9741  -4.9631
    -4.9256  -4.5413  -4.5065  -3.7688  -2.5257  -2.2090  -0.5151  -0.2129
     0.4526   0.8361

     the Fermi energy is    -3.7395 ev

!    total energy              =    -329.48627741 Ry
     Harris-Foulkes estimate   =    -329.48627741 Ry
     estimated scf accuracy    <          2.6E-10 Ry

     The total energy is the sum of the following terms:

     one-electron contribution =    -608.19773507 Ry
     hartree contribution      =     325.54393986 Ry
     xc contribution           =     -51.40394986 Ry
     ewald contribution        =       4.57486330 Ry
     smearing contrib. (-TS)   =      -0.00339565 Ry

     convergence has been achieved in  10 iterations

     Forces acting on atoms (Ry/au):

     atom    1 type  1   force =    -0.00260520   -0.00165254    0.00018000
     atom    2 type  1   force =    -0.00545507    0.00494351    0.00280038
     atom    3 type  1   force =     0.00661675    0.00129932    0.00044517
     atom    4 type  1   force =     0.00173741   -0.00653333   -0.00467916
     atom    5 type  1   force =    -0.00029388    0.00194304    0.00125361

     Total force =     0.013794     Total SCF correction =     0.000061

     number of scf cycles    =  12
     number of bfgs steps    =  11

     energy   old            =    -329.4860595927 Ry
     energy   new            =    -329.4862774117 Ry

     CASE: energy  _new < energy  _old

     new trust radius        =       0.0321090477 bohr
     new conv_thr            =       0.0000000002 Ry


ATOMIC_POSITIONS (bohr)
Au      -2.167674348   0.448430837  -0.261639425
Au      -0.407537906   2.159504770   4.345605953
Au       2.815847905   0.737263937   0.565968584
Au       4.356331950   3.842010445   5.381310337
Au       7.548203399   1.317923011   2.206102552



     Writing output data file pwscf.save
     Check: negative starting charge=   -0.006493
     NEW-OLD atomic charge density approx. for the potential
     Check: negative starting charge=   -0.006504

     negative rho (up, down):  2.597E-04 0.000E+00

     total cpu time spent up to now is       30.8 secs

     per-process dynamical memory:    50.7 Mb

     Self-consistent Calculation

     iteration #  1     ecut=    30.00 Ry     beta=0.70
     Davidson diagonalization with overlap
     ethr =  1.00E-06,  avg # of iterations =  4.0

     negative rho (up, down):  5.963E-06 0.000E+00

     total cpu time spent up to now is       31.1 secs

     total energy              =    -329.48651846 Ry
     Harris-Foulkes estimate   =    -329.48649056 Ry
     estimated scf accuracy    <       0.00018013 Ry

     iteration #  2     ecut=    30.00 Ry     beta=0.70
     Davidson diagonalization with overlap
     ethr =  3.28E-07,  avg # of iterations =  3.0

     negative rho (up, down):  4.215E-07 0.000E+00

     total cpu time spent up to now is       31.4 secs

     total energy              =    -329.48654837 Ry
     Harris-Foulkes estimate   =    -329.48660558 Ry
     estimated scf accuracy    <       0.00011924 Ry

     iteration #  3     ecut=    30.00 Ry     beta=0.70
     Davidson diagonalization with overlap
     ethr =  2.17E-07,  avg # of iterations =  2.0

     negative rho (up, down):  1.839E-08 0.000E+00

     total cpu time spent up to now is       31.6 secs

     total energy              =    -329.48656984 Ry
     Harris-Foulkes estimate   =    -329.48658932 Ry
     estimated scf accuracy    <       0.00005359 Ry

     iteration #  4     ecut=    30.00 Ry     beta=0.70
     Davidson diagonalization with overlap
     ethr =  9.74E-08,  avg # of iterations =  2.0

     total cpu time spent up to now is       31.8 secs

     total energy              =    -329.48658184 Ry
     Harris-Foulkes estimate   =    -329.48658481 Ry
     estimated scf accuracy    <       0.00001282 Ry

     iteration #  5     ecut=    30.00 Ry     beta=0.70
     Davidson diagonalization with overlap
     ethr =  2.33E-08,  avg # of iterations =  2.0

     total cpu time spent up to now is       32.0 secs

     total energy              =    -329.48658397 Ry
     Harris-Foulkes estimate   =    -329.48658440 Ry
     estimated scf accuracy    <       0.00000141 Ry

     iteration #  6     ecut=    30.00 Ry     beta=0.70
     Davidson diagonalization with overlap
     ethr =  2.57E-09,  avg # of iterations =  2.0

     total cpu time spent up to now is       32.2 secs

     total energy              =    -329.48658444 Ry
     Harris-Foulkes estimate   =    -329.48658437 Ry
     estimated scf accuracy    <       0.00000013 Ry

     iteration #  7     ecut=    30.00 Ry     beta=0.70
[...]

     iteration #  2     ecut=    30.00 Ry     beta=0.70
     Davidson diagonalization with overlap
     ethr =  4.33E-07,  avg # of iterations =  3.0

     negative rho (up, down):  5.491E-07 0.000E+00

     total cpu time spent up to now is      117.5 secs

     total energy              =    -329.49101585 Ry
     Harris-Foulkes estimate   =    -329.49110021 Ry
     estimated scf accuracy    <       0.00017676 Ry

     iteration #  3     ecut=    30.00 Ry     beta=0.70
     Davidson diagonalization with overlap
     ethr =  3.21E-07,  avg # of iterations =  2.0

     total cpu time spent up to now is      117.7 secs

     total energy              =    -329.49105360 Ry
     Harris-Foulkes estimate   =    -329.49105780 Ry
     estimated scf accuracy    <       0.00001143 Ry

     iteration #  4     ecut=    30.00 Ry     beta=0.70
     Davidson diagonalization with overlap
     ethr =  2.08E-08,  avg # of iterations =  2.0

     total cpu time spent up to now is      117.9 secs

     total energy              =    -329.49105619 Ry
     Harris-Foulkes estimate   =    -329.49106032 Ry
     estimated scf accuracy    <       0.00001366 Ry

     iteration #  5     ecut=    30.00 Ry     beta=0.70
     Davidson diagonalization with overlap
     ethr =  2.08E-08,  avg # of iterations =  2.0

     total cpu time spent up to now is      118.1 secs

     total energy              =    -329.49105882 Ry
     Harris-Foulkes estimate   =    -329.49105914 Ry
     estimated scf accuracy    <       0.00000130 Ry

     iteration #  6     ecut=    30.00 Ry     beta=0.70
     Davidson diagonalization with overlap
     ethr =  2.36E-09,  avg # of iterations =  2.0

     total cpu time spent up to now is      118.3 secs

     total energy              =    -329.49105920 Ry
     Harris-Foulkes estimate   =    -329.49105912 Ry
     estimated scf accuracy    <       0.00000009 Ry

     iteration #  7     ecut=    30.00 Ry     beta=0.70
     Davidson diagonalization with overlap
     ethr =  1.56E-10,  avg # of iterations =  2.0

     total cpu time spent up to now is      118.5 secs

     total energy              =    -329.49105911 Ry
     Harris-Foulkes estimate   =    -329.49105923 Ry
     estimated scf accuracy    <       0.00000003 Ry

     iteration #  8     ecut=    30.00 Ry     beta=0.70
     Davidson diagonalization with overlap
     ethr =  5.76E-11,  avg # of iterations =  2.0

     total cpu time spent up to now is      118.7 secs

     total energy              =    -329.49105910 Ry
     Harris-Foulkes estimate   =    -329.49105912 Ry
     estimated scf accuracy    <          2.7E-09 Ry

     iteration #  9     ecut=    30.00 Ry     beta=0.70
     Davidson diagonalization with overlap
     ethr =  4.92E-12,  avg # of iterations =  3.0

     total cpu time spent up to now is      119.0 secs

     total energy              =    -329.49105910 Ry
     Harris-Foulkes estimate   =    -329.49105910 Ry
     estimated scf accuracy    <          2.9E-10 Ry

     iteration # 10     ecut=    30.00 Ry     beta=0.70
     Davidson diagonalization with overlap
     ethr =  5.24E-13,  avg # of iterations =  2.0

     total cpu time spent up to now is      119.2 secs

     total energy              =    -329.49105910 Ry
     Harris-Foulkes estimate   =    -329.49105910 Ry
     estimated scf accuracy    <          1.3E-10 Ry

     iteration # 11     ecut=    30.00 Ry     beta=0.70
     Davidson diagonalization with overlap
     ethr =  2.31E-13,  avg # of iterations =  2.0

     total cpu time spent up to now is      119.4 secs

     End of self-consistent calculation

          k = 0.0000 0.0000 0.0000 ( 22119 PWs)   bands (ev):

    -8.5130  -7.7899  -7.6772  -7.2512  -6.8474  -6.8168  -6.6043  -6.4939
    -6.3225  -6.0741  -5.9479  -5.7741  -5.7285  -5.6886  -5.4694  -5.3631
    -5.3158  -5.2501  -5.2021  -5.1804  -5.1750  -5.1229  -5.0081  -4.9171
    -4.8230  -4.7503  -4.4757  -3.7873  -2.5369  -2.1751  -0.5738  -0.1782
     0.5291   0.9370

     the Fermi energy is    -3.7562 ev

!    total energy              =    -329.49105911 Ry
     Harris-Foulkes estimate   =    -329.49105910 Ry
     estimated scf accuracy    <          1.8E-11 Ry

     The total energy is the sum of the following terms:

     one-electron contribution =    -610.10199998 Ry
     hartree contribution      =     326.47894391 Ry
     xc contribution           =     -51.40416708 Ry
     ewald contribution        =       5.54019885 Ry
     smearing contrib. (-TS)   =      -0.00403481 Ry

     convergence has been achieved in  11 iterations

     Forces acting on atoms (Ry/au):

     atom    1 type  1   force =     0.00037315    0.00044019    0.00053944
     atom    2 type  1   force =    -0.00216342   -0.00102987   -0.00126630
     atom    3 type  1   force =     0.00208521   -0.00066574    0.00019513
     atom    4 type  1   force =     0.00182948    0.00163956    0.00133921
     atom    5 type  1   force =    -0.00212442   -0.00038413   -0.00080748

     Total force =     0.005093     Total SCF correction =     0.000016

     number of scf cycles    =  46
     number of bfgs steps    =  45

     energy   old            =    -329.4909925649 Ry
     energy   new            =    -329.4910591103 Ry

     CASE: energy  _new < energy  _old

     new trust radius        =       0.0207618933 bohr
     new conv_thr            =            1.0E-10 Ry


ATOMIC_POSITIONS (bohr)
Au      -1.922322744   0.189576177  -0.279030204
Au      -0.829865386   2.525398009   4.213162386
Au       2.982118959   0.823630579   0.748158012
Au       4.145902540   3.310878830   5.409986999
Au       7.769337631   1.655649405   2.145070808



     Writing output data file pwscf.save
     Check: negative starting charge=   -0.006545
     NEW-OLD atomic charge density approx. for the potential
     Check: negative starting charge=   -0.006538

     negative rho (up, down):  7.088E-05 0.000E+00

     total cpu time spent up to now is      119.7 secs

     per-process dynamical memory:    50.7 Mb

     Self-consistent Calculation

     iteration #  1     ecut=    30.00 Ry     beta=0.70
     Davidson diagonalization with overlap
     ethr =  1.00E-06,  avg # of iterations =  4.0

     negative rho (up, down):  4.389E-07 0.000E+00

     total cpu time spent up to now is      120.1 secs

     total energy              =    -329.49111113 Ry
     Harris-Foulkes estimate   =    -329.49112113 Ry
     estimated scf accuracy    <       0.00006780 Ry

     iteration #  2     ecut=    30.00 Ry     beta=0.70
     Davidson diagonalization with overlap
     ethr =  1.23E-07,  avg # of iterations =  3.0

     negative rho (up, down):  2.982E-08 0.000E+00

     total cpu time spent up to now is      120.3 secs

     total energy              =    -329.49111323 Ry
     Harris-Foulkes estimate   =    -329.49115314 Ry
     estimated scf accuracy    <       0.00008444 Ry

     iteration #  3     ecut=    30.00 Ry     beta=0.70
     Davidson diagonalization with overlap
     ethr =  1.23E-07,  avg # of iterations =  2.0

     total cpu time spent up to now is      120.5 secs

     total energy              =    -329.49113074 Ry
     Harris-Foulkes estimate   =    -329.49113875 Ry
     estimated scf accuracy    <       0.00002129 Ry

     iteration #  4     ecut=    30.00 Ry     beta=0.70
     Davidson diagonalization with overlap
     ethr =  3.87E-08,  avg # of iterations =  2.0

     total cpu time spent up to now is      120.7 secs

     total energy              =    -329.49113605 Ry
     Harris-Foulkes estimate   =    -329.49113597 Ry
     estimated scf accuracy    <       0.00000265 Ry

     iteration #  5     ecut=    30.00 Ry     beta=0.70
     Davidson diagonalization with overlap
     ethr =  4.82E-09,  avg # of iterations =  2.0

     total cpu time spent up to now is      120.9 secs

     total energy              =    -329.49113650 Ry
     Harris-Foulkes estimate   =    -329.49113670 Ry
     estimated scf accuracy    <       0.00000037 Ry

     iteration #  6     ecut=    30.00 Ry     beta=0.70
     Davidson diagonalization with overlap
     ethr =  6.71E-10,  avg # of iterations =  2.0

     total cpu time spent up to now is      121.1 secs

     total energy              =    -329.49113665 Ry
     Harris-Foulkes estimate   =    -329.49113659 Ry
     estimated scf accuracy    <       0.00000004 Ry

     iteration #  7     ecut=    30.00 Ry     beta=0.70
     Davidson diagonalization with overlap
     ethr =  6.41E-11,  avg # of iterations =  2.0

     total cpu time spent up to now is      121.4 secs

     total energy              =    -329.49113683 Ry
     Harris-Foulkes estimate   =    -329.49113667 Ry
     estimated scf accuracy    <       0.00000001 Ry

     iteration #  8     ecut=    30.00 Ry     beta=0.70
     Davidson diagonalization with overlap
     ethr =  2.04E-11,  avg # of iterations =  2.0

     total cpu time spent up to now is      121.6 secs

     total energy              =    -329.49113683 Ry
     Harris-Foulkes estimate   =    -329.49113683 Ry
     estimated scf accuracy    <          2.7E-09 Ry

     iteration #  9     ecut=    30.00 Ry     beta=0.70
     Davidson diagonalization with overlap
     ethr =  4.83E-12,  avg # of iterations =  2.0

     total cpu time spent up to now is      121.8 secs

     total energy              =    -329.49113684 Ry
     Harris-Foulkes estimate   =    -329.49113683 Ry
     estimated scf accuracy    <          3.5E-10 Ry

     iteration # 10     ecut=    30.00 Ry     beta=0.70
     Davidson diagonalization with overlap
     ethr =  6.31E-13,  avg # of iterations =  2.0

     total cpu time spent up to now is      122.0 secs

     End of self-consistent calculation

          k = 0.0000 0.0000 0.0000 ( 22119 PWs)   bands (ev):

    -8.5173  -7.7900  -7.6632  -7.2406  -6.8440  -6.8211  -6.6093  -6.4875
    -6.3127  -6.0777  -5.9529  -5.7751  -5.7319  -5.6878  -5.4657  -5.3615
    -5.3140  -5.2497  -5.2015  -5.1822  -5.1739  -5.1242  -5.0033  -4.9207
    -4.8282  -4.7476  -4.4773  -3.7864  -2.5291  -2.1840  -0.5724  -0.1801
     0.5289   0.9355

     the Fermi energy is    -3.7549 ev

!    total energy              =    -329.49113682 Ry
     Harris-Foulkes estimate   =    -329.49113684 Ry
     estimated scf accuracy    <          3.6E-11 Ry

     The total energy is the sum of the following terms:

     one-electron contribution =    -609.88461753 Ry
     hartree contribution      =     326.37150770 Ry
     xc contribution           =     -51.40362526 Ry
     ewald contribution        =       5.42970594 Ry
     smearing contrib. (-TS)   =      -0.00410767 Ry

     convergence has been achieved in  10 iterations

     Forces acting on atoms (Ry/au):

     atom    1 type  1   force =    -0.00021813    0.00012553    0.00017859
     atom    2 type  1   force =    -0.00072823   -0.00062555   -0.00075474
     atom    3 type  1   force =     0.00111325   -0.00019429    0.00022385
     atom    4 type  1   force =     0.00075847    0.00089952    0.00066387
     atom    5 type  1   force =    -0.00092536   -0.00020520   -0.00031156

     Total force =     0.002395     Total SCF correction =     0.000030

     number of scf cycles    =  47
     number of bfgs steps    =  46

     energy   old            =    -329.4910591103 Ry
     energy   new            =    -329.4911368238 Ry

     CASE: energy  _new < energy  _old

     new trust radius        =       0.0259969233 bohr
     new conv_thr            =            1.0E-10 Ry


ATOMIC_POSITIONS (bohr)
Au      -1.918629114   0.190611617  -0.294262729
Au      -0.824968874   2.511737389   4.201850012
Au       2.982894718   0.815350685   0.751741229
Au       4.150181311   3.323692324   5.432198404
Au       7.755692959   1.663740985   2.145821084



     Writing output data file pwscf.save
     Check: negative starting charge=   -0.006538
     NEW-OLD atomic charge density approx. for the potential
     Check: negative starting charge=   -0.006527

     negative rho (up, down):  1.333E-04 0.000E+00

     total cpu time spent up to now is      122.2 secs

     per-process dynamical memory:    50.7 Mb

     Self-consistent Calculation

     iteration #  1     ecut=    30.00 Ry     beta=0.70
     Davidson diagonalization with overlap
     ethr =  1.00E-06,  avg # of iterations =  4.0

     negative rho (up, down):  1.533E-06 0.000E+00

     total cpu time spent up to now is      122.6 secs

     total energy              =    -329.49113375 Ry
     Harris-Foulkes estimate   =    -329.49113915 Ry
     estimated scf accuracy    <       0.00010101 Ry

     iteration #  2     ecut=    30.00 Ry     beta=0.70
     Davidson diagonalization with overlap
     ethr =  1.84E-07,  avg # of iterations =  2.0

     negative rho (up, down):  1.320E-07 0.000E+00

     total cpu time spent up to now is      122.8 secs

     total energy              =    -329.49113900 Ry
     Harris-Foulkes estimate   =    -329.49119333 Ry
     estimated scf accuracy    <       0.00011422 Ry

     iteration #  3     ecut=    30.00 Ry     beta=0.70
     Davidson diagonalization with overlap
     ethr =  1.84E-07,  avg # of iterations =  2.0

     total cpu time spent up to now is      123.0 secs

     total energy              =    -329.49116226 Ry
     Harris-Foulkes estimate   =    -329.49117533 Ry
     estimated scf accuracy    <       0.00003313 Ry

     iteration #  4     ecut=    30.00 Ry     beta=0.70
     Davidson diagonalization with overlap
     ethr =  6.02E-08,  avg # of iterations =  2.0

     total cpu time spent up to now is      123.2 secs

     total energy              =    -329.49116934 Ry
     Harris-Foulkes estimate   =    -329.49117045 Ry
     estimated scf accuracy    <       0.00000431 Ry

     iteration #  5     ecut=    30.00 Ry     beta=0.70
     Davidson diagonalization with overlap
     ethr =  7.84E-09,  avg # of iterations =  2.0

     total cpu time spent up to now is      123.4 secs

     total energy              =    -329.49117013 Ry
     Harris-Foulkes estimate   =    -329.49117042 Ry
     estimated scf accuracy    <       0.00000058 Ry

     iteration #  6     ecut=    30.00 Ry     beta=0.70
     Davidson diagonalization with overlap
     ethr =  1.06E-09,  avg # of iterations =  2.0

     total cpu time spent up to now is      123.6 secs

     total energy              =    -329.49117027 Ry
     Harris-Foulkes estimate   =    -329.49117029 Ry
     estimated scf accuracy    <       0.00000007 Ry

     iteration #  7     ecut=    30.00 Ry     beta=0.70
     Davidson diagonalization with overlap
     ethr =  1.27E-10,  avg # of iterations =  3.0

     total cpu time spent up to now is      123.9 secs

     total energy              =    -329.49117035 Ry
     Harris-Foulkes estimate   =    -329.49117030 Ry
     estimated scf accuracy    <       0.00000002 Ry

     iteration #  8     ecut=    30.00 Ry     beta=0.70
     Davidson diagonalization with overlap
     ethr =  3.01E-11,  avg # of iterations =  2.0

     total cpu time spent up to now is      124.1 secs

     total energy              =    -329.49117039 Ry
     Harris-Foulkes estimate   =    -329.49117035 Ry
     estimated scf accuracy    <          2.7E-09 Ry

     iteration #  9     ecut=    30.00 Ry     beta=0.70
     Davidson diagonalization with overlap
     ethr =  4.90E-12,  avg # of iterations =  2.0

     total cpu time spent up to now is      124.3 secs

     total energy              =    -329.49117038 Ry
     Harris-Foulkes estimate   =    -329.49117039 Ry
     estimated scf accuracy    <          9.8E-10 Ry

     iteration # 10     ecut=    30.00 Ry     beta=0.70
     Davidson diagonalization with overlap
     ethr =  1.78E-12,  avg # of iterations =  2.0

     total cpu time spent up to now is      124.5 secs

     End of self-consistent calculation

          k = 0.0000 0.0000 0.0000 ( 22119 PWs)   bands (ev):

    -8.5208  -7.7899  -7.6524  -7.2318  -6.8417  -6.8245  -6.6116  -6.4829
    -6.3046  -6.0809  -5.9564  -5.7755  -5.7345  -5.6868  -5.4628  -5.3603
    -5.3127  -5.2495  -5.2014  -5.1851  -5.1716  -5.1252  -4.9994  -4.9240
    -4.8343  -4.7432  -4.4794  -3.7856  -2.5210  -2.1931  -0.5711  -0.1818
     0.5255   0.9335

     the Fermi energy is    -3.7538 ev

!    total energy              =    -329.49117039 Ry
     Harris-Foulkes estimate   =    -329.49117038 Ry
     estimated scf accuracy    <          7.0E-11 Ry

     The total energy is the sum of the following terms:

     one-electron contribution =    -609.64969994 Ry
     hartree contribution      =     326.25499054 Ry
     xc contribution           =     -51.40303811 Ry
     ewald contribution        =       5.31075688 Ry
     smearing contrib. (-TS)   =      -0.00417977 Ry

     convergence has been achieved in  10 iterations

     Forces acting on atoms (Ry/au):

     atom    1 type  1   force =    -0.00053927    0.00006135    0.00010583
     atom    2 type  1   force =     0.00034406   -0.00040630   -0.00058176
     atom    3 type  1   force =     0.00025286    0.00024742    0.00011187
     atom    4 type  1   force =    -0.00020001    0.00009444    0.00021181
     atom    5 type  1   force =     0.00014236    0.00000309    0.00015224

     Total force =     0.001097     Total SCF correction =     0.000040

     bfgs converged in  48 scf cycles and  47 bfgs steps
     (criteria: energy <  1.0E-04, force <  1.0E-03)

     End of BFGS Geometry Optimization

     Final energy   =    -329.4911703942 Ry
Begin final coordinates

ATOMIC_POSITIONS (bohr)
Au      -1.918629114   0.190611617  -0.294262729
Au      -0.824968874   2.511737389   4.201850012
Au       2.982894718   0.815350685   0.751741229
Au       4.150181311   3.323692324   5.432198404
Au       7.755692959   1.663740985   2.145821084
End final coordinates



     Writing output data file pwscf.save
 
     init_run     :      0.15s CPU      0.18s WALL (       1 calls)
     electrons    :    108.27s CPU    115.69s WALL (      48 calls)
     update_pot   :      3.16s CPU      3.85s WALL (      47 calls)
     forces       :      1.99s CPU      2.03s WALL (      48 calls)

     Called by init_run:
     wfcinit      :      0.07s CPU      0.08s WALL (       1 calls)
     potinit      :      0.03s CPU      0.03s WALL (       1 calls)

     Called by electrons:
     c_bands      :     83.16s CPU     84.11s WALL (     486 calls)
     sum_band     :     11.37s CPU     11.65s WALL (     486 calls)
     v_of_rho     :      9.41s CPU      9.54s WALL (     524 calls)
     mix_rho      :      3.70s CPU      8.10s WALL (     486 calls)

     Called by c_bands:
     init_us_2    :      1.45s CPU      1.52s WALL (     973 calls)
     cegterg      :     74.29s CPU     74.88s WALL (     486 calls)

     Called by sum_band:

     Called by *egterg:
     h_psi        :     57.47s CPU     57.91s WALL (    1794 calls)
     g_psi        :      0.58s CPU      0.58s WALL (    1307 calls)
     cdiaghg      :      4.23s CPU      4.26s WALL (    1736 calls)

     Called by h_psi:
     h_psi:pot    :     56.59s CPU     57.02s WALL (    1794 calls)
     h_psi:calbec :      3.17s CPU      3.17s WALL (    1794 calls)
     vloc_psi     :     49.81s CPU     50.23s WALL (    1794 calls)
     add_vuspsi   :      3.61s CPU      3.62s WALL (    1794 calls)

     General routines
     calbec       :      3.74s CPU      3.77s WALL (    1986 calls)
     fft          :      5.17s CPU      5.30s WALL (    5879 calls)
     fftw         :     52.16s CPU     52.96s WALL (  110090 calls)
     davcio       :      0.59s CPU      4.14s WALL (    5063 calls)
 
     Parallel routines
     fft_scatter  :     13.25s CPU     12.91s WALL (  115969 calls)
 
     PWSCF        :  1m54.84s CPU     2m 4.66s WALL

 
   This run was terminated on:  23:33:52   3Aug2017            

=------------------------------------------------------------------------------=
   JOB DONE.
=------------------------------------------------------------------------------=
