
     Program PWSCF v.6.0 (svn rev. 13079) starts on  3Aug2017 at 17:57:35 

     This program is part of the open-source Quantum ESPRESSO suite
     for quantum simulation of materials; please cite
         "P. Giannozzi et al., J. Phys.:Condens. Matter 21 395502 (2009);
          URL http://www.quantum-espresso.org", 
     in publications or presentations arising from this work. More details at
     http://www.quantum-espresso.org/quote

     Parallel version (MPI), running on    10 processors
     R & G space division:  proc/nbgrp/npool/nimage =      10
     Reading input from input/multi/minchecks-Gold5-323.in

     Current dimensions of program PWSCF are:
     Max number of different atomic species (ntypx) = 10
     Max number of k-points (npk) =  40000
     Max angular momentum in pseudopotentials (lmaxx) =  3
     Message from routine iosys:
     pot_extrapolation='second-order' not available, using 'atomic'
     Message from routine iosys:
     wfc_extrapolation='second-order' not available, using 'atomic'

     Subspace diagonalization in iterative solution of the eigenvalue problem:
     a serial algorithm will be used

 
     Parallelization info
     --------------------
     sticks:   dense  smooth     PW     G-vecs:    dense   smooth      PW
     Min         380     380     94                17748    17748    2208
     Max         381     381     95                17753    17753    2213
     Sum        3809    3809    949               177509   177509   22119
 


     bravais-lattice index     =            1
     lattice parameter (alat)  =      20.0000  a.u.
     unit-cell volume          =    8000.0000 (a.u.)^3
     number of atoms/cell      =            5
     number of atomic types    =            1
     number of electrons       =        55.00
     number of Kohn-Sham states=           34
     kinetic-energy cutoff     =      30.0000  Ry
     charge density cutoff     =     120.0000  Ry
     convergence threshold     =      1.0E-08
     mixing beta               =       0.7000
     number of iterations used =            8  plain     mixing
     Exchange-correlation      = BLYP ( 1  3  1  3 0 0)
     nstep                     =           50


     celldm(1)=  20.000000  celldm(2)=   0.000000  celldm(3)=   0.000000
     celldm(4)=   0.000000  celldm(5)=   0.000000  celldm(6)=   0.000000

     crystal axes: (cart. coord. in units of alat)
               a(1) = (   1.000000   0.000000   0.000000 )  
               a(2) = (   0.000000   1.000000   0.000000 )  
               a(3) = (   0.000000   0.000000   1.000000 )  

     reciprocal axes: (cart. coord. in units 2 pi/alat)
               b(1) = (  1.000000  0.000000  0.000000 )  
               b(2) = (  0.000000  1.000000  0.000000 )  
               b(3) = (  0.000000  0.000000  1.000000 )  


     PseudoPot. # 1 for Au read from file:
     ./Au.blyp-d-hgh.UPF
     MD5 check sum: c10d8bae01f806c36a1643a1c69a8479
     Pseudo is Norm-conserving, Zval = 11.0
     Generated in analytical, separable form
     Using radial grid of 1279 points,  6 beta functions with: 
                l(1) =   0
                l(2) =   0
                l(3) =   1
                l(4) =   1
                l(5) =   2
                l(6) =   2

     atomic species   valence    mass     pseudopotential
        Au            11.00    28.08600     Au( 1.00)

     No symmetry found



   Cartesian axes

     site n.     atom                  positions (alat units)
         1           Au  tau(   1) = (  -0.0872264   0.0772117  -0.0222303  )
         2           Au  tau(   2) = (  -0.0436696   0.1558304   0.2069876  )
         3           Au  tau(   3) = (   0.1551154   0.0586112   0.0351484  )
         4           Au  tau(   4) = (   0.2120064   0.1851153   0.2787719  )
         5           Au  tau(   5) = (   0.3835775   0.0811376   0.1346259  )

     number of k points=     1  Marzari-Vanderbilt smearing, width (Ry)=  0.0250
                       cart. coord. in units 2pi/alat
        k(    1) = (   0.0000000   0.0000000   0.0000000), wk =   2.0000000

     Dense  grid:   177509 G-vectors     FFT dimensions: (  72,  72,  72)

     Estimated max dynamical RAM per process >      15.04Mb

     Estimated total allocated dynamical RAM >     150.39Mb

     Initial potential from superposition of free atoms
     Check: negative starting charge=   -0.006419

     starting charge   54.99940, renormalised to   55.00000

     negative rho (up, down):  6.419E-03 0.000E+00
     Starting wfc are   45 randomized atomic wfcs

     total cpu time spent up to now is        0.3 secs

     per-process dynamical memory:    41.0 Mb

     Self-consistent Calculation

     iteration #  1     ecut=    30.00 Ry     beta=0.70
     Davidson diagonalization with overlap
     ethr =  1.00E-02,  avg # of iterations =  3.0

     Threshold (ethr) on eigenvalues was too large:
     Diagonalizing with lowered threshold

     Davidson diagonalization with overlap
     ethr =  4.27E-04,  avg # of iterations =  6.0

     negative rho (up, down):  8.675E-04 0.000E+00

     total cpu time spent up to now is        0.7 secs

     total energy              =    -329.36312657 Ry
     Harris-Foulkes estimate   =    -329.54341127 Ry
     estimated scf accuracy    <       0.29579324 Ry

     iteration #  2     ecut=    30.00 Ry     beta=0.70
     Davidson diagonalization with overlap
     ethr =  5.38E-04,  avg # of iterations =  4.0

     negative rho (up, down):  4.072E-04 0.000E+00

     total cpu time spent up to now is        0.9 secs

     total energy              =    -329.38614100 Ry
     Harris-Foulkes estimate   =    -329.57144496 Ry
     estimated scf accuracy    <       0.39481993 Ry

     iteration #  3     ecut=    30.00 Ry     beta=0.70
     Davidson diagonalization with overlap
     ethr =  5.38E-04,  avg # of iterations =  2.0

     negative rho (up, down):  1.447E-04 0.000E+00

     total cpu time spent up to now is        1.1 secs

     total energy              =    -329.46807404 Ry
     Harris-Foulkes estimate   =    -329.49865352 Ry
     estimated scf accuracy    <       0.07955867 Ry

     iteration #  4     ecut=    30.00 Ry     beta=0.70
     Davidson diagonalization with overlap
     ethr =  1.45E-04,  avg # of iterations =  2.0

     negative rho (up, down):  1.152E-06 0.000E+00

     total cpu time spent up to now is        1.4 secs

     total energy              =    -329.48198024 Ry
     Harris-Foulkes estimate   =    -329.48237651 Ry
     estimated scf accuracy    <       0.00133347 Ry

     iteration #  5     ecut=    30.00 Ry     beta=0.70
     Davidson diagonalization with overlap
     ethr =  2.42E-06,  avg # of iterations =  8.0

     total cpu time spent up to now is        1.7 secs

     total energy              =    -329.48238694 Ry
     Harris-Foulkes estimate   =    -329.48305106 Ry
     estimated scf accuracy    <       0.00166344 Ry

     iteration #  6     ecut=    30.00 Ry     beta=0.70
     Davidson diagonalization with overlap
     ethr =  2.42E-06,  avg # of iterations =  2.0

     total cpu time spent up to now is        1.9 secs

     total energy              =    -329.48266234 Ry
     Harris-Foulkes estimate   =    -329.48272183 Ry
     estimated scf accuracy    <       0.00014630 Ry

     iteration #  7     ecut=    30.00 Ry     beta=0.70
     Davidson diagonalization with overlap
     ethr =  2.66E-07,  avg # of iterations =  2.0

     total cpu time spent up to now is        2.1 secs

     total energy              =    -329.48268997 Ry
     Harris-Foulkes estimate   =    -329.48269884 Ry
     estimated scf accuracy    <       0.00002439 Ry

     iteration #  8     ecut=    30.00 Ry     beta=0.70
     Davidson diagonalization with overlap
     ethr =  4.44E-08,  avg # of iterations =  2.0

     total cpu time spent up to now is        2.3 secs

     total energy              =    -329.48269417 Ry
     Harris-Foulkes estimate   =    -329.48269776 Ry
     estimated scf accuracy    <       0.00000866 Ry

     iteration #  9     ecut=    30.00 Ry     beta=0.70
     Davidson diagonalization with overlap
     ethr =  1.57E-08,  avg # of iterations =  2.0

     total cpu time spent up to now is        2.5 secs

     total energy              =    -329.48269585 Ry
     Harris-Foulkes estimate   =    -329.48269653 Ry
     estimated scf accuracy    <       0.00000136 Ry

     iteration # 10     ecut=    30.00 Ry     beta=0.70
     Davidson diagonalization with overlap
     ethr =  2.47E-09,  avg # of iterations =  2.0

     total cpu time spent up to now is        2.8 secs

     total energy              =    -329.48269613 Ry
     Harris-Foulkes estimate   =    -329.48269621 Ry
     estimated scf accuracy    <       0.00000018 Ry

     iteration # 11     ecut=    30.00 Ry     beta=0.70
     Davidson diagonalization with overlap
     ethr =  3.25E-10,  avg # of iterations =  2.0

     total cpu time spent up to now is        3.0 secs

     End of self-consistent calculation

          k = 0.0000 0.0000 0.0000 ( 22119 PWs)   bands (ev):

    -8.5258  -7.9090  -7.6791  -7.1395  -6.9693  -6.9398  -6.8489  -6.5651
    -6.2103  -6.2007  -6.0562  -5.7779  -5.7486  -5.6752  -5.3909  -5.3583
    -5.2962  -5.2781  -5.2112  -5.1611  -5.1532  -5.1338  -4.9860  -4.9118
    -4.9039  -4.6450  -4.4353  -3.7043  -2.5123  -2.1785  -0.5522  -0.1855
     0.5258   0.8536

     the Fermi energy is    -3.6684 ev

!    total energy              =    -329.48269613 Ry
     Harris-Foulkes estimate   =    -329.48269617 Ry
     estimated scf accuracy    <          7.5E-09 Ry

     The total energy is the sum of the following terms:

     one-electron contribution =    -612.75623047 Ry
     hartree contribution      =     327.78681334 Ry
     xc contribution           =     -51.42716603 Ry
     ewald contribution        =       6.91900441 Ry
     smearing contrib. (-TS)   =      -0.00511738 Ry

     convergence has been achieved in  11 iterations

     Forces acting on atoms (Ry/au):

     atom    1 type  1   force =    -0.01222337   -0.01014058   -0.03000063
     atom    2 type  1   force =     0.01843903    0.01077579    0.02586891
     atom    3 type  1   force =    -0.00154168    0.00330529    0.00685342
     atom    4 type  1   force =    -0.02878876    0.00545881    0.00865432
     atom    5 type  1   force =     0.02411478   -0.00939931   -0.01137602

     Total force =     0.063802     Total SCF correction =     0.000375

     BFGS Geometry Optimization

     number of scf cycles    =   1
     number of bfgs steps    =   0

     energy   new            =    -329.4826961265 Ry

     new trust radius        =       0.0339452503 bohr
     new conv_thr            =       0.0000000100 Ry


ATOMIC_POSITIONS (bohr)
Au      -1.756751371   1.534094421  -0.474605632
Au      -0.854951967   3.127382795   4.165620906
Au       3.100766322   1.175528285   0.709822424
Au       4.211338236   3.707763813   5.584092323
Au       7.695665780   1.613351686   2.681141979



     Writing output data file pwscf.save
     Check: negative starting charge=   -0.006419
     NEW-OLD atomic charge density approx. for the potential
     Check: negative starting charge=   -0.006375

     negative rho (up, down):  3.650E-04 0.000E+00

     total cpu time spent up to now is        3.2 secs

     per-process dynamical memory:    42.9 Mb

     Self-consistent Calculation

     iteration #  1     ecut=    30.00 Ry     beta=0.70
     Davidson diagonalization with overlap
     ethr =  1.00E-06,  avg # of iterations =  5.0

     negative rho (up, down):  1.127E-05 0.000E+00

     total cpu time spent up to now is        3.5 secs

     total energy              =    -329.48595540 Ry
     Harris-Foulkes estimate   =    -329.48591125 Ry
     estimated scf accuracy    <       0.00030533 Ry

     iteration #  2     ecut=    30.00 Ry     beta=0.70
     Davidson diagonalization with overlap
     ethr =  5.55E-07,  avg # of iterations =  3.0

     negative rho (up, down):  3.144E-06 0.000E+00

     total cpu time spent up to now is        3.8 secs

     total energy              =    -329.48591088 Ry
     Harris-Foulkes estimate   =    -329.48623513 Ry
     estimated scf accuracy    <       0.00082463 Ry

     iteration #  3     ecut=    30.00 Ry     beta=0.70
     Davidson diagonalization with overlap
     ethr =  5.55E-07,  avg # of iterations =  2.0

     negative rho (up, down):  1.340E-08 0.000E+00

     total cpu time spent up to now is        4.0 secs

     total energy              =    -329.48608110 Ry
     Harris-Foulkes estimate   =    -329.48609362 Ry
     estimated scf accuracy    <       0.00005700 Ry

     iteration #  4     ecut=    30.00 Ry     beta=0.70
     Davidson diagonalization with overlap
     ethr =  1.04E-07,  avg # of iterations =  2.0

     total cpu time spent up to now is        4.2 secs

     total energy              =    -329.48609143 Ry
     Harris-Foulkes estimate   =    -329.48609516 Ry
     estimated scf accuracy    <       0.00000950 Ry

     iteration #  5     ecut=    30.00 Ry     beta=0.70
     Davidson diagonalization with overlap
     ethr =  1.73E-08,  avg # of iterations =  2.0

     total cpu time spent up to now is        4.5 secs

     total energy              =    -329.48609337 Ry
     Harris-Foulkes estimate   =    -329.48609406 Ry
     estimated scf accuracy    <       0.00000168 Ry

     iteration #  6     ecut=    30.00 Ry     beta=0.70
     Davidson diagonalization with overlap
     ethr =  3.06E-09,  avg # of iterations =  2.0

     total cpu time spent up to now is        4.7 secs

     total energy              =    -329.48609360 Ry
     Harris-Foulkes estimate   =    -329.48609386 Ry
     estimated scf accuracy    <       0.00000031 Ry

     iteration #  7     ecut=    30.00 Ry     beta=0.70
     Davidson diagonalization with overlap
     ethr =  5.63E-10,  avg # of iterations =  2.0

     total cpu time spent up to now is        4.9 secs

     total energy              =    -329.48609351 Ry
     Harris-Foulkes estimate   =    -329.48609369 Ry
     estimated scf accuracy    <       0.00000008 Ry

     iteration #  8     ecut=    30.00 Ry     beta=0.70
     Davidson diagonalization with overlap
     ethr =  1.38E-10,  avg # of iterations =  2.0

     total cpu time spent up to now is        5.0 secs

     End of self-consistent calculation

          k = 0.0000 0.0000 0.0000 ( 22119 PWs)   bands (ev):

    -8.4851  -7.8417  -7.6296  -7.1504  -6.9192  -6.8812  -6.8171  -6.5155
    -6.2118  -6.1490  -6.0363  -5.7648  -5.7533  -5.6687  -5.3870  -5.3692
    -5.3030  -5.2549  -5.2089  -5.1651  -5.1599  -5.1436  -4.9882  -4.9159
    -4.8954  -4.6691  -4.4365  -3.7333  -2.5174  -2.1859  -0.5477  -0.1938
     0.5195   0.8641

     the Fermi energy is    -3.7004 ev

!    total energy              =    -329.48609358 Ry
     Harris-Foulkes estimate   =    -329.48609353 Ry
     estimated scf accuracy    <          5.0E-09 Ry

     The total energy is the sum of the following terms:

     one-electron contribution =    -610.64045189 Ry
     hartree contribution      =     326.74836489 Ry
     xc contribution           =     -51.41614427 Ry
     ewald contribution        =       5.82656654 Ry
     smearing contrib. (-TS)   =      -0.00442885 Ry

     convergence has been achieved in   8 iterations

     Forces acting on atoms (Ry/au):

     atom    1 type  1   force =    -0.00773911   -0.00736389   -0.02001398
     atom    2 type  1   force =     0.01460942    0.00721169    0.01512205
     atom    3 type  1   force =    -0.00258718    0.00407375    0.00833780
     atom    4 type  1   force =    -0.02048595    0.00199855    0.00365281
     atom    5 type  1   force =     0.01620282   -0.00592010   -0.00709867

     Total force =     0.043435     Total SCF correction =     0.000256

     number of scf cycles    =   2
     number of bfgs steps    =   1

     energy   old            =    -329.4826961265 Ry
     energy   new            =    -329.4860935810 Ry

     CASE: energy  _new < energy  _old

     new trust radius        =       0.0373397754 bohr
     new conv_thr            =       0.0000000020 Ry


ATOMIC_POSITIONS (bohr)
Au      -1.769519619   1.522015138  -0.507549851
Au      -0.831066355   3.139252060   4.190662920
Au       3.096617300   1.182102473   0.723282073
Au       4.177707192   3.711169125   5.590254224
Au       7.722328482   1.603582204   2.669422634



     Writing output data file pwscf.save
     Check: negative starting charge=   -0.006375
     NEW-OLD atomic charge density approx. for the potential
     Check: negative starting charge=   -0.006354

     negative rho (up, down):  4.554E-04 0.000E+00

     total cpu time spent up to now is        5.3 secs

     per-process dynamical memory:    50.7 Mb

     Self-consistent Calculation

     iteration #  1     ecut=    30.00 Ry     beta=0.70
     Davidson diagonalization with overlap
     ethr =  1.00E-06,  avg # of iterations =  5.0

     negative rho (up, down):  1.697E-05 0.000E+00

     total cpu time spent up to now is        5.6 secs

     total energy              =    -329.48829066 Ry
     Harris-Foulkes estimate   =    -329.48823389 Ry
     estimated scf accuracy    <       0.00042835 Ry

     iteration #  2     ecut=    30.00 Ry     beta=0.70
     Davidson diagonalization with overlap
     ethr =  7.79E-07,  avg # of iterations =  4.0

     negative rho (up, down):  5.424E-06 0.000E+00

     total cpu time spent up to now is        5.9 secs

     total energy              =    -329.48821819 Ry
     Harris-Foulkes estimate   =    -329.48871040 Ry
     estimated scf accuracy    <       0.00127363 Ry

     iteration #  3     ecut=    30.00 Ry     beta=0.70
     Davidson diagonalization with overlap
     ethr =  7.79E-07,  avg # of iterations =  2.0

     negative rho (up, down):  3.733E-08 0.000E+00

     total cpu time spent up to now is        6.1 secs

     total energy              =    -329.48847278 Ry
     Harris-Foulkes estimate   =    -329.48848866 Ry
     estimated scf accuracy    <       0.00007219 Ry

     iteration #  4     ecut=    30.00 Ry     beta=0.70
     Davidson diagonalization with overlap
     ethr =  1.31E-07,  avg # of iterations =  2.0

     total cpu time spent up to now is        6.3 secs

     total energy              =    -329.48848721 Ry
     Harris-Foulkes estimate   =    -329.48849029 Ry
     estimated scf accuracy    <       0.00001114 Ry

     iteration #  5     ecut=    30.00 Ry     beta=0.70
     Davidson diagonalization with overlap
     ethr =  2.03E-08,  avg # of iterations =  2.0

     total cpu time spent up to now is        6.6 secs

     total energy              =    -329.48848890 Ry
     Harris-Foulkes estimate   =    -329.48849043 Ry
     estimated scf accuracy    <       0.00000236 Ry

     iteration #  6     ecut=    30.00 Ry     beta=0.70
     Davidson diagonalization with overlap
     ethr =  4.29E-09,  avg # of iterations =  2.0

     total cpu time spent up to now is        6.8 secs

     total energy              =    -329.48848928 Ry
     Harris-Foulkes estimate   =    -329.48848956 Ry
     estimated scf accuracy    <       0.00000037 Ry

     iteration #  7     ecut=    30.00 Ry     beta=0.70
     Davidson diagonalization with overlap
     ethr =  6.75E-10,  avg # of iterations =  2.0

     total cpu time spent up to now is        7.0 secs

     total energy              =    -329.48848934 Ry
     Harris-Foulkes estimate   =    -329.48848939 Ry
     estimated scf accuracy    <       0.00000010 Ry

     iteration #  8     ecut=    30.00 Ry     beta=0.70
     Davidson diagonalization with overlap
     ethr =  1.89E-10,  avg # of iterations =  2.0

     total cpu time spent up to now is        7.2 secs

     total energy              =    -329.48848933 Ry
     Harris-Foulkes estimate   =    -329.48848936 Ry
     estimated scf accuracy    <          7.1E-09 Ry

     iteration #  9     ecut=    30.00 Ry     beta=0.70
     Davidson diagonalization with overlap
     ethr =  1.29E-11,  avg # of iterations =  3.0

     total cpu time spent up to now is        7.4 secs

     End of self-consistent calculation

          k = 0.0000 0.0000 0.0000 ( 22119 PWs)   bands (ev):

    -8.4498  -7.7802  -7.5981  -7.1668  -6.9065  -6.8000  -6.7777  -6.4717
    -6.2337  -6.0867  -6.0169  -5.7615  -5.7449  -5.6637  -5.3904  -5.3785
    -5.3115  -5.2311  -5.2057  -5.1755  -5.1667  -5.1436  -4.9912  -4.9160
    -4.8798  -4.6942  -4.4353  -3.7626  -2.5220  -2.1882  -0.5446  -0.2009
     0.5137   0.8765

     the Fermi energy is    -3.7337 ev

!    total energy              =    -329.48848931 Ry
     Harris-Foulkes estimate   =    -329.48848933 Ry
     estimated scf accuracy    <          1.6E-09 Ry

     The total energy is the sum of the following terms:

     one-electron contribution =    -608.91176962 Ry
     hartree contribution      =     325.90145661 Ry
     xc contribution           =     -51.40752589 Ry
     ewald contribution        =       4.93291393 Ry
     smearing contrib. (-TS)   =      -0.00356435 Ry

     convergence has been achieved in   9 iterations

     Forces acting on atoms (Ry/au):

     atom    1 type  1   force =    -0.00372508   -0.00493064   -0.01090017
     atom    2 type  1   force =     0.00936577    0.00343062    0.00533651
     atom    3 type  1   force =    -0.00314854    0.00475183    0.00932187
     atom    4 type  1   force =    -0.01101952   -0.00055573   -0.00012262
     atom    5 type  1   force =     0.00852738   -0.00269609   -0.00363558

     Total force =     0.024886     Total SCF correction =     0.000209

     number of scf cycles    =   3
     number of bfgs steps    =   2

     energy   old            =    -329.4860935810 Ry
     energy   new            =    -329.4884893088 Ry

     CASE: energy  _new < energy  _old

     new trust radius        =       0.0483212547 bohr
     new conv_thr            =       0.0000000011 Ry


ATOMIC_POSITIONS (bohr)
Au      -1.784889228   1.504519226  -0.549889098
Au      -0.797492760   3.153405117   4.216658092
Au       3.087601013   1.195957854   0.750759003
Au       4.134921818   3.712080870   5.593723860
Au       7.755926157   1.592157934   2.654820142



     Writing output data file pwscf.save
     Check: negative starting charge=   -0.006354
     NEW-OLD atomic charge density approx. for the potential
     Check: negative starting charge=   -0.006363

     negative rho (up, down):  7.458E-04 0.000E+00

     total cpu time spent up to now is        7.6 secs

     per-process dynamical memory:    50.7 Mb

     Self-consistent Calculation

     iteration #  1     ecut=    30.00 Ry     beta=0.70
     Davidson diagonalization with overlap
     ethr =  1.00E-06,  avg # of iterations =  6.0

     negative rho (up, down):  4.029E-05 0.000E+00

     total cpu time spent up to now is        8.0 secs

     total energy              =    -329.48940290 Ry
     Harris-Foulkes estimate   =    -329.48922728 Ry
     estimated scf accuracy    <       0.00080765 Ry

     iteration #  2     ecut=    30.00 Ry     beta=0.70
     Davidson diagonalization with overlap
     ethr =  1.47E-06,  avg # of iterations =  5.0

     negative rho (up, down):  1.566E-05 0.000E+00

     total cpu time spent up to now is        8.3 secs

     total energy              =    -329.48925368 Ry
     Harris-Foulkes estimate   =    -329.49023175 Ry
     estimated scf accuracy    <       0.00256218 Ry

     iteration #  3     ecut=    30.00 Ry     beta=0.70
     Davidson diagonalization with overlap
     ethr =  1.47E-06,  avg # of iterations =  2.0

     negative rho (up, down):  2.760E-07 0.000E+00

     total cpu time spent up to now is        8.5 secs

     total energy              =    -329.48974992 Ry
     Harris-Foulkes estimate   =    -329.48978150 Ry
     estimated scf accuracy    <       0.00012676 Ry

     iteration #  4     ecut=    30.00 Ry     beta=0.70
     Davidson diagonalization with overlap
     ethr =  2.30E-07,  avg # of iterations =  2.0

     total cpu time spent up to now is        8.7 secs

     total energy              =    -329.48977625 Ry
     Harris-Foulkes estimate   =    -329.48978019 Ry
     estimated scf accuracy    <       0.00001785 Ry

     iteration #  5     ecut=    30.00 Ry     beta=0.70
     Davidson diagonalization with overlap
     ethr =  3.24E-08,  avg # of iterations =  2.0

     total cpu time spent up to now is        8.9 secs

     total energy              =    -329.48977980 Ry
     Harris-Foulkes estimate   =    -329.48978153 Ry
     estimated scf accuracy    <       0.00000413 Ry

     iteration #  6     ecut=    30.00 Ry     beta=0.70
     Davidson diagonalization with overlap
     ethr =  7.51E-09,  avg # of iterations =  2.0

     total cpu time spent up to now is        9.1 secs

     total energy              =    -329.48978085 Ry
     Harris-Foulkes estimate   =    -329.48978093 Ry
     estimated scf accuracy    <       0.00000063 Ry

     iteration #  7     ecut=    30.00 Ry     beta=0.70
     Davidson diagonalization with overlap
     ethr =  1.14E-09,  avg # of iterations =  2.0

     total cpu time spent up to now is        9.3 secs

     total energy              =    -329.48978094 Ry
     Harris-Foulkes estimate   =    -329.48978105 Ry
     estimated scf accuracy    <       0.00000019 Ry

     iteration #  8     ecut=    30.00 Ry     beta=0.70
     Davidson diagonalization with overlap
     ethr =  3.45E-10,  avg # of iterations =  2.0

     total cpu time spent up to now is        9.5 secs

     total energy              =    -329.48978089 Ry
     Harris-Foulkes estimate   =    -329.48978098 Ry
     estimated scf accuracy    <       0.00000001 Ry

     iteration #  9     ecut=    30.00 Ry     beta=0.70
     Davidson diagonalization with overlap
     ethr =  2.38E-11,  avg # of iterations =  2.0

     total cpu time spent up to now is        9.7 secs

     total energy              =    -329.48978082 Ry
     Harris-Foulkes estimate   =    -329.48978090 Ry
     estimated scf accuracy    <          2.4E-09 Ry

     iteration # 10     ecut=    30.00 Ry     beta=0.70
     Davidson diagonalization with overlap
     ethr =  4.30E-12,  avg # of iterations =  2.0

     total cpu time spent up to now is        9.9 secs

     End of self-consistent calculation

          k = 0.0000 0.0000 0.0000 ( 22119 PWs)   bands (ev):

    -8.4201  -7.7220  -7.6018  -7.1859  -6.9024  -6.7688  -6.6726  -6.4373
    -6.2725  -6.0260  -5.9856  -5.7612  -5.7269  -5.6621  -5.3996  -5.3890
    -5.3226  -5.2163  -5.2013  -5.1806  -5.1743  -5.1359  -4.9957  -4.9106
    -4.8532  -4.7234  -4.4327  -3.7948  -2.5257  -2.1847  -0.5437  -0.2062
     0.5079   0.8927

     the Fermi energy is    -3.7711 ev

!    total energy              =    -329.48978082 Ry
     Harris-Foulkes estimate   =    -329.48978083 Ry
     estimated scf accuracy    <          2.8E-10 Ry

     The total energy is the sum of the following terms:

     one-electron contribution =    -607.56306227 Ry
     hartree contribution      =     325.24276471 Ry
     xc contribution           =     -51.40105408 Ry
     ewald contribution        =       4.23401020 Ry
     smearing contrib. (-TS)   =      -0.00243939 Ry

     convergence has been achieved in  10 iterations

     Forces acting on atoms (Ry/au):

     atom    1 type  1   force =     0.00049580   -0.00272241   -0.00148778
     atom    2 type  1   force =     0.00075925   -0.00042283   -0.00465319
     atom    3 type  1   force =    -0.00308509    0.00522601    0.00928616
     atom    4 type  1   force =     0.00149555   -0.00256633   -0.00252239
     atom    5 type  1   force =     0.00033448    0.00048557   -0.00062280

     Total force =     0.013087     Total SCF correction =     0.000076

     number of scf cycles    =   4
     number of bfgs steps    =   3

     energy   old            =    -329.4884893088 Ry
     energy   new            =    -329.4897808247 Ry

     CASE: energy  _new < energy  _old

     new trust radius        =       0.0171995417 bohr
     new conv_thr            =       0.0000000009 Ry


ATOMIC_POSITIONS (bohr)
Au      -1.787128531   1.498495009  -0.559048011
Au      -0.791102162   3.155479618   4.216478736
Au       3.082847915   1.203881776   0.765265683
Au       4.129193980   3.709663670   5.591913064
Au       7.762255799   1.590600927   2.651462527



     Writing output data file pwscf.save
     Check: negative starting charge=   -0.006363
     NEW-OLD atomic charge density approx. for the potential
     Check: negative starting charge=   -0.006372

     negative rho (up, down):  2.895E-05 0.000E+00

     total cpu time spent up to now is       10.2 secs

     per-process dynamical memory:    50.7 Mb

     Self-consistent Calculation

     iteration #  1     ecut=    30.00 Ry     beta=0.70
     Davidson diagonalization with overlap
     ethr =  1.00E-06,  avg # of iterations =  4.0

     Threshold (ethr) on eigenvalues was too large:
     Diagonalizing with lowered threshold

     Davidson diagonalization with overlap
     ethr =  9.47E-08,  avg # of iterations =  1.0

     negative rho (up, down):  6.236E-08 0.000E+00

     total cpu time spent up to now is       10.6 secs

     total energy              =    -329.48995485 Ry
     Harris-Foulkes estimate   =    -329.48997260 Ry
     estimated scf accuracy    <       0.00005271 Ry

     iteration #  2     ecut=    30.00 Ry     beta=0.70
     Davidson diagonalization with overlap
     ethr =  9.58E-08,  avg # of iterations =  3.0

     total cpu time spent up to now is       10.9 secs

     total energy              =    -329.48994708 Ry
     Harris-Foulkes estimate   =    -329.49000189 Ry
     estimated scf accuracy    <       0.00013623 Ry

     iteration #  3     ecut=    30.00 Ry     beta=0.70
     Davidson diagonalization with overlap
     ethr =  9.58E-08,  avg # of iterations =  2.0

     total cpu time spent up to now is       11.1 secs

     total energy              =    -329.48997618 Ry
     Harris-Foulkes estimate   =    -329.48997864 Ry
     estimated scf accuracy    <       0.00001218 Ry

     iteration #  4     ecut=    30.00 Ry     beta=0.70
     Davidson diagonalization with overlap
     ethr =  2.21E-08,  avg # of iterations =  2.0

     total cpu time spent up to now is       11.3 secs

     total energy              =    -329.48997903 Ry
     Harris-Foulkes estimate   =    -329.48997873 Ry
     estimated scf accuracy    <       0.00000096 Ry

     iteration #  5     ecut=    30.00 Ry     beta=0.70
     Davidson diagonalization with overlap
     ethr =  1.74E-09,  avg # of iterations =  3.0

     total cpu time spent up to now is       11.5 secs

     total energy              =    -329.48997927 Ry
     Harris-Foulkes estimate   =    -329.48997938 Ry
     estimated scf accuracy    <       0.00000034 Ry

     iteration #  6     ecut=    30.00 Ry     beta=0.70
     Davidson diagonalization with overlap
     ethr =  6.10E-10,  avg # of iterations =  2.0

     total cpu time spent up to now is       11.7 secs

     total energy              =    -329.48997951 Ry
     Harris-Foulkes estimate   =    -329.48997935 Ry
     estimated scf accuracy    <       0.00000003 Ry

     iteration #  7     ecut=    30.00 Ry     beta=0.70
     Davidson diagonalization with overlap
     ethr =  5.02E-11,  avg # of iterations =  2.0

     total cpu time spent up to now is       12.0 secs

     total energy              =    -329.48997953 Ry
     Harris-Foulkes estimate   =    -329.48997952 Ry
     estimated scf accuracy    <       0.00000001 Ry

     iteration #  8     ecut=    30.00 Ry     beta=0.70
     Davidson diagonalization with overlap
     ethr =  2.02E-11,  avg # of iterations =  2.0

     total cpu time spent up to now is       12.2 secs

     total energy              =    -329.48997955 Ry
     Harris-Foulkes estimate   =    -329.48997954 Ry
     estimated scf accuracy    <          1.7E-09 Ry

     iteration #  9     ecut=    30.00 Ry     beta=0.70
     Davidson diagonalization with overlap
     ethr =  3.04E-12,  avg # of iterations =  2.0

     total cpu time spent up to now is       12.4 secs

     End of self-consistent calculation

          k = 0.0000 0.0000 0.0000 ( 22119 PWs)   bands (ev):

    -8.4263  -7.7237  -7.6135  -7.1978  -6.9023  -6.7705  -6.6559  -6.4405
    -6.2834  -6.0242  -5.9779  -5.7620  -5.7260  -5.6650  -5.4000  -5.3975
    -5.3237  -5.2180  -5.2031  -5.1792  -5.1750  -5.1330  -4.9974  -4.9106
    -4.8467  -4.7274  -4.4349  -3.7965  -2.5251  -2.1825  -0.5455  -0.2041
     0.5069   0.8956

     the Fermi energy is    -3.7728 ev

!    total energy              =    -329.48997950 Ry
     Harris-Foulkes estimate   =    -329.48997955 Ry
     estimated scf accuracy    <          1.5E-10 Ry

     The total energy is the sum of the following terms:

     one-electron contribution =    -607.80733491 Ry
     hartree contribution      =     325.36234897 Ry
     xc contribution           =     -51.40119923 Ry
     ewald contribution        =       4.35865883 Ry
     smearing contrib. (-TS)   =      -0.00245316 Ry

     convergence has been achieved in   9 iterations

     Forces acting on atoms (Ry/au):

     atom    1 type  1   force =     0.00099295   -0.00257340   -0.00027341
     atom    2 type  1   force =    -0.00102710   -0.00064525   -0.00549862
     atom    3 type  1   force =    -0.00268559    0.00488897    0.00824589
     atom    4 type  1   force =     0.00331953   -0.00247299   -0.00207298
     atom    5 type  1   force =    -0.00059978    0.00080268   -0.00040088

     Total force =     0.012692     Total SCF correction =     0.000052

     number of scf cycles    =   5
     number of bfgs steps    =   4

     energy   old            =    -329.4897808247 Ry
     energy   new            =    -329.4899794989 Ry

     CASE: energy  _new < energy  _old

     new trust radius        =       0.0189194958 bohr
     new conv_thr            =       0.0000000002 Ry


ATOMIC_POSITIONS (bohr)
Au      -1.788146160   1.492266019  -0.566021281
Au      -0.787431708   3.156663646   4.212850119
Au       3.077704896   1.212860091   0.781105082
Au       4.127372409   3.706387248   5.589518515
Au       7.766567563   1.589943996   2.648619565



     Writing output data file pwscf.save
     Check: negative starting charge=   -0.006372
     NEW-OLD atomic charge density approx. for the potential
     Check: negative starting charge=   -0.006384

     negative rho (up, down):  2.725E-05 0.000E+00

     total cpu time spent up to now is       12.6 secs

     per-process dynamical memory:    50.7 Mb

     Self-consistent Calculation

     iteration #  1     ecut=    30.00 Ry     beta=0.70
     Davidson diagonalization with overlap
     ethr =  1.00E-06,  avg # of iterations =  4.0

     Threshold (ethr) on eigenvalues was too large:
     Diagonalizing with lowered threshold

     Davidson diagonalization with overlap
     ethr =  7.77E-08,  avg # of iterations =  1.0

     negative rho (up, down):  5.621E-08 0.000E+00

     total cpu time spent up to now is       13.0 secs

     total energy              =    -329.49016503 Ry
     Harris-Foulkes estimate   =    -329.49017741 Ry
     estimated scf accuracy    <       0.00004308 Ry

     iteration #  2     ecut=    30.00 Ry     beta=0.70
     Davidson diagonalization with overlap
     ethr =  7.83E-08,  avg # of iterations =  3.0

     total cpu time spent up to now is       13.3 secs

     total energy              =    -329.49016127 Ry
     Harris-Foulkes estimate   =    -329.49019736 Ry
     estimated scf accuracy    <       0.00008336 Ry

     iteration #  3     ecut=    30.00 Ry     beta=0.70
     Davidson diagonalization with overlap
     ethr =  7.83E-08,  avg # of iterations =  2.0

     total cpu time spent up to now is       13.5 secs

     total energy              =    -329.49017979 Ry
     Harris-Foulkes estimate   =    -329.49018357 Ry
     estimated scf accuracy    <       0.00001338 Ry

     iteration #  4     ecut=    30.00 Ry     beta=0.70
     Davidson diagonalization with overlap
     ethr =  2.43E-08,  avg # of iterations =  2.0

     total cpu time spent up to now is       13.7 secs

     total energy              =    -329.49018270 Ry
     Harris-Foulkes estimate   =    -329.49018253 Ry
     estimated scf accuracy    <       0.00000090 Ry

     iteration #  5     ecut=    30.00 Ry     beta=0.70
     Davidson diagonalization with overlap
     ethr =  1.63E-09,  avg # of iterations =  3.0

     total cpu time spent up to now is       13.9 secs

     total energy              =    -329.49018299 Ry
     Harris-Foulkes estimate   =    -329.49018302 Ry
     estimated scf accuracy    <       0.00000028 Ry

     iteration #  6     ecut=    30.00 Ry     beta=0.70
     Davidson diagonalization with overlap
     ethr =  5.11E-10,  avg # of iterations =  2.0

     total cpu time spent up to now is       14.1 secs

     total energy              =    -329.49018328 Ry
     Harris-Foulkes estimate   =    -329.49018306 Ry
     estimated scf accuracy    <       0.00000002 Ry

     iteration #  7     ecut=    30.00 Ry     beta=0.70
     Davidson diagonalization with overlap
     ethr =  4.12E-11,  avg # of iterations =  2.0

     total cpu time spent up to now is       14.4 secs

     total energy              =    -329.49018325 Ry
     Harris-Foulkes estimate   =    -329.49018329 Ry
     estimated scf accuracy    <          7.9E-09 Ry

     iteration #  8     ecut=    30.00 Ry     beta=0.70
     Davidson diagonalization with overlap
     ethr =  1.43E-11,  avg # of iterations =  2.0

     total cpu time spent up to now is       14.6 secs

     total energy              =    -329.49018330 Ry
     Harris-Foulkes estimate   =    -329.49018325 Ry
     estimated scf accuracy    <          1.7E-09 Ry

     iteration #  9     ecut=    30.00 Ry     beta=0.70
     Davidson diagonalization with overlap
     ethr =  3.13E-12,  avg # of iterations =  2.0

     total cpu time spent up to now is       14.8 secs

     total energy              =    -329.49018333 Ry
     Harris-Foulkes estimate   =    -329.49018330 Ry
     estimated scf accuracy    <          2.6E-10 Ry

     iteration # 10     ecut=    30.00 Ry     beta=0.70
     Davidson diagonalization with overlap
     ethr =  4.75E-13,  avg # of iterations =  3.0

     total cpu time spent up to now is       15.0 secs

     End of self-consistent calculation

          k = 0.0000 0.0000 0.0000 ( 22119 PWs)   bands (ev):

    -8.4379  -7.7326  -7.6260  -7.2113  -6.9016  -6.7756  -6.6475  -6.4483
    -6.2922  -6.0279  -5.9731  -5.7635  -5.7268  -5.6688  -5.4087  -5.3980
    -5.3237  -5.2215  -5.2045  -5.1795  -5.1745  -5.1303  -4.9991  -4.9120
    -4.8415  -4.7293  -4.4387  -3.7949  -2.5238  -2.1808  -0.5479  -0.2005
     0.5063   0.8974

     the Fermi energy is    -3.7702 ev

!    total energy              =    -329.49018333 Ry
     Harris-Foulkes estimate   =    -329.49018333 Ry
     estimated scf accuracy    <          2.9E-11 Ry

     The total energy is the sum of the following terms:

     one-electron contribution =    -608.25565606 Ry
     hartree contribution      =     325.58137604 Ry
     xc contribution           =     -51.40192174 Ry
     ewald contribution        =       4.58865395 Ry
     smearing contrib. (-TS)   =      -0.00263552 Ry

     convergence has been achieved in  10 iterations

     Forces acting on atoms (Ry/au):

     atom    1 type  1   force =     0.00117694   -0.00260051    0.00030908
     atom    2 type  1   force =    -0.00213428   -0.00054518   -0.00545462
     atom    3 type  1   force =    -0.00218688    0.00440725    0.00682906
     atom    4 type  1   force =     0.00403646   -0.00214642   -0.00128955
     atom    5 type  1   force =    -0.00089224    0.00088485   -0.00039397

     Total force =     0.011747     Total SCF correction =     0.000027

     number of scf cycles    =   6
     number of bfgs steps    =   5

     energy   old            =    -329.4899794989 Ry
     energy   new            =    -329.4901833309 Ry

     CASE: energy  _new < energy  _old

     new trust radius        =       0.0283792438 bohr
     new conv_thr            =       0.0000000002 Ry


ATOMIC_POSITIONS (bohr)
Au      -1.788576360   1.482634941  -0.574326893
Au      -0.784851549   3.157889255   4.204814370
Au       3.070108470   1.226786532   0.804636551
Au       4.128073907   3.701086017   5.586210351
Au       7.771312532   1.589724255   2.644737622



     Writing output data file pwscf.save
     Check: negative starting charge=   -0.006384
     NEW-OLD atomic charge density approx. for the potential
     Check: negative starting charge=   -0.006407

     negative rho (up, down):  8.901E-05 0.000E+00

     total cpu time spent up to now is       15.2 secs

     per-process dynamical memory:    50.7 Mb

     Self-consistent Calculation

     iteration #  1     ecut=    30.00 Ry     beta=0.70
     Davidson diagonalization with overlap
     ethr =  1.00E-06,  avg # of iterations =  4.0

     negative rho (up, down):  6.246E-07 0.000E+00

     total cpu time spent up to now is       15.6 secs

     total energy              =    -329.49041759 Ry
     Harris-Foulkes estimate   =    -329.49043467 Ry
     estimated scf accuracy    <       0.00008405 Ry

     iteration #  2     ecut=    30.00 Ry     beta=0.70
     Davidson diagonalization with overlap
     ethr =  1.53E-07,  avg # of iterations =  3.0

     negative rho (up, down):  6.233E-08 0.000E+00

     total cpu time spent up to now is       15.8 secs

     total energy              =    -329.49041716 Ry
     Harris-Foulkes estimate   =    -329.49047314 Ry
     estimated scf accuracy    <       0.00012364 Ry

     iteration #  3     ecut=    30.00 Ry     beta=0.70
     Davidson diagonalization with overlap
     ethr =  1.53E-07,  avg # of iterations =  2.0

     total cpu time spent up to now is       16.0 secs

     total energy              =    -329.49044410 Ry
     Harris-Foulkes estimate   =    -329.49045419 Ry
     estimated scf accuracy    <       0.00002937 Ry

     iteration #  4     ecut=    30.00 Ry     beta=0.70
     Davidson diagonalization with overlap
     ethr =  5.34E-08,  avg # of iterations =  2.0

     total cpu time spent up to now is       16.2 secs

     total energy              =    -329.49045086 Ry
     Harris-Foulkes estimate   =    -329.49045031 Ry
     estimated scf accuracy    <       0.00000212 Ry

     iteration #  5     ecut=    30.00 Ry     beta=0.70
     Davidson diagonalization with overlap
     ethr =  3.86E-09,  avg # of iterations =  3.0

     total cpu time spent up to now is       16.5 secs

     total energy              =    -329.49045145 Ry
     Harris-Foulkes estimate   =    -329.49045156 Ry
     estimated scf accuracy    <       0.00000058 Ry

     iteration #  6     ecut=    30.00 Ry     beta=0.70
     Davidson diagonalization with overlap
     ethr =  1.06E-09,  avg # of iterations =  2.0

     total cpu time spent up to now is       16.7 secs

     total energy              =    -329.49045160 Ry
     Harris-Foulkes estimate   =    -329.49045159 Ry
     estimated scf accuracy    <       0.00000004 Ry

     iteration #  7     ecut=    30.00 Ry     beta=0.70
     Davidson diagonalization with overlap
     ethr =  6.95E-11,  avg # of iterations =  2.0

     total cpu time spent up to now is       16.9 secs

     total energy              =    -329.49045165 Ry
     Harris-Foulkes estimate   =    -329.49045162 Ry
     estimated scf accuracy    <       0.00000001 Ry

     iteration #  8     ecut=    30.00 Ry     beta=0.70
     Davidson diagonalization with overlap
     ethr =  2.14E-11,  avg # of iterations =  2.0

     total cpu time spent up to now is       17.1 secs

     total energy              =    -329.49045167 Ry
     Harris-Foulkes estimate   =    -329.49045166 Ry
     estimated scf accuracy    <          3.2E-09 Ry

     iteration #  9     ecut=    30.00 Ry     beta=0.70
     Davidson diagonalization with overlap
     ethr =  5.88E-12,  avg # of iterations =  2.0

     total cpu time spent up to now is       17.3 secs

     total energy              =    -329.49045167 Ry
     Harris-Foulkes estimate   =    -329.49045167 Ry
     estimated scf accuracy    <          7.1E-10 Ry

     iteration # 10     ecut=    30.00 Ry     beta=0.70
     Davidson diagonalization with overlap
     ethr =  1.29E-12,  avg # of iterations =  2.0

     total cpu time spent up to now is       17.5 secs

     End of self-consistent calculation

          k = 0.0000 0.0000 0.0000 ( 22119 PWs)   bands (ev):

    -8.4583  -7.7506  -7.6442  -7.2305  -6.8990  -6.7852  -6.6420  -6.4628
    -6.3022  -6.0372  -5.9686  -5.7662  -5.7288  -5.6747  -5.4249  -5.3945
    -5.3226  -5.2283  -5.2055  -5.1808  -5.1739  -5.1265  -5.0013  -4.9153
    -4.8348  -4.7304  -4.4455  -3.7900  -2.5212  -2.1792  -0.5518  -0.1943
     0.5057   0.8989

     the Fermi energy is    -3.7636 ev

!    total energy              =    -329.49045170 Ry
     Harris-Foulkes estimate   =    -329.49045167 Ry
     estimated scf accuracy    <          5.2E-11 Ry

     The total energy is the sum of the following terms:

     one-electron contribution =    -609.01371713 Ry
     hartree contribution      =     325.95151971 Ry
     xc contribution           =     -51.40332048 Ry
     ewald contribution        =       4.97808538 Ry
     smearing contrib. (-TS)   =      -0.00301918 Ry

     convergence has been achieved in  10 iterations

     Forces acting on atoms (Ry/au):

     atom    1 type  1   force =     0.00120427   -0.00275595    0.00069880
     atom    2 type  1   force =    -0.00310167   -0.00016876   -0.00466234
     atom    3 type  1   force =    -0.00137124    0.00359827    0.00442772
     atom    4 type  1   force =     0.00413778   -0.00150065    0.00005132
     atom    5 type  1   force =    -0.00086913    0.00082709   -0.00051551

     Total force =     0.009820     Total SCF correction =     0.000037

     number of scf cycles    =   7
     number of bfgs steps    =   6

     energy   old            =    -329.4901833309 Ry
     energy   new            =    -329.4904516986 Ry

     CASE: energy  _new < energy  _old

     new trust radius        =       0.0425688656 bohr
     new conv_thr            =       0.0000000003 Ry


ATOMIC_POSITIONS (bohr)
Au      -1.787963292   1.466762744  -0.584648270
Au      -0.784806723   3.159596204   4.189871847
Au       3.058960467   1.248733789   0.839366196
Au       4.132962651   3.692814659   5.582565138
Au       7.776913896   1.590213605   2.638917089



     Writing output data file pwscf.save
     Check: negative starting charge=   -0.006407
     NEW-OLD atomic charge density approx. for the potential
     Check: negative starting charge=   -0.006455

     negative rho (up, down):  2.476E-04 0.000E+00

     total cpu time spent up to now is       17.8 secs

     per-process dynamical memory:    50.7 Mb

     Self-consistent Calculation

     iteration #  1     ecut=    30.00 Ry     beta=0.70
     Davidson diagonalization with overlap
     ethr =  1.00E-06,  avg # of iterations =  4.0

     negative rho (up, down):  5.309E-06 0.000E+00

     total cpu time spent up to now is       18.2 secs

     total energy              =    -329.49065698 Ry
     Harris-Foulkes estimate   =    -329.49065509 Ry
     estimated scf accuracy    <       0.00018105 Ry

     iteration #  2     ecut=    30.00 Ry     beta=0.70
     Davidson diagonalization with overlap
     ethr =  3.29E-07,  avg # of iterations =  3.0

     negative rho (up, down):  6.344E-07 0.000E+00

     total cpu time spent up to now is       18.4 secs

     total energy              =    -329.49066522 Ry
     Harris-Foulkes estimate   =    -329.49076503 Ry
     estimated scf accuracy    <       0.00020741 Ry

     iteration #  3     ecut=    30.00 Ry     beta=0.70
     Davidson diagonalization with overlap
     ethr =  3.29E-07,  avg # of iterations =  2.0

     negative rho (up, down):  1.048E-08 0.000E+00

     total cpu time spent up to now is       18.6 secs

     total energy              =    -329.49071073 Ry
     Harris-Foulkes estimate   =    -329.49073180 Ry
     estimated scf accuracy    <       0.00006163 Ry

     iteration #  4     ecut=    30.00 Ry     beta=0.70
     Davidson diagonalization with overlap
     ethr =  1.12E-07,  avg # of iterations =  2.0

     total cpu time spent up to now is       18.8 secs

     total energy              =    -329.49072459 Ry
     Harris-Foulkes estimate   =    -329.49072477 Ry
     estimated scf accuracy    <       0.00000568 Ry

     iteration #  5     ecut=    30.00 Ry     beta=0.70
     Davidson diagonalization with overlap
     ethr =  1.03E-08,  avg # of iterations =  2.0

     total cpu time spent up to now is       19.0 secs

     total energy              =    -329.49072574 Ry
     Harris-Foulkes estimate   =    -329.49072622 Ry
     estimated scf accuracy    <       0.00000118 Ry

     iteration #  6     ecut=    30.00 Ry     beta=0.70
     Davidson diagonalization with overlap
     ethr =  2.14E-09,  avg # of iterations =  2.0

     total cpu time spent up to now is       19.2 secs

     total energy              =    -329.49072599 Ry
     Harris-Foulkes estimate   =    -329.49072601 Ry
     estimated scf accuracy    <       0.00000006 Ry

     iteration #  7     ecut=    30.00 Ry     beta=0.70
     Davidson diagonalization with overlap
     ethr =  1.15E-10,  avg # of iterations =  2.0

     total cpu time spent up to now is       19.5 secs

     total energy              =    -329.49072602 Ry
     Harris-Foulkes estimate   =    -329.49072601 Ry
     estimated scf accuracy    <       0.00000002 Ry

     iteration #  8     ecut=    30.00 Ry     beta=0.70
     Davidson diagonalization with overlap
     ethr =  3.28E-11,  avg # of iterations =  2.0

     total cpu time spent up to now is       19.7 secs

     total energy              =    -329.49072606 Ry
     Harris-Foulkes estimate   =    -329.49072603 Ry
     estimated scf accuracy    <          3.6E-09 Ry

     iteration #  9     ecut=    30.00 Ry     beta=0.70
     Davidson diagonalization with overlap
     ethr =  6.48E-12,  avg # of iterations =  2.0

     total cpu time spent up to now is       19.9 secs

     total energy              =    -329.49072605 Ry
     Harris-Foulkes estimate   =    -329.49072606 Ry
     estimated scf accuracy    <          1.6E-09 Ry

     iteration # 10     ecut=    30.00 Ry     beta=0.70
     Davidson diagonalization with overlap
     ethr =  2.92E-12,  avg # of iterations =  2.0

     total cpu time spent up to now is       20.1 secs

     End of self-consistent calculation

          k = 0.0000 0.0000 0.0000 ( 22119 PWs)   bands (ev):

    -8.4912  -7.7813  -7.6705  -7.2553  -6.8920  -6.8006  -6.6407  -6.4872
    -6.3127  -6.0548  -5.9646  -5.7708  -5.7318  -5.6831  -5.4488  -5.3874
    -5.3196  -5.2401  -5.2051  -5.1822  -5.1741  -5.1211  -5.0040  -4.9211
    -4.8253  -4.7301  -4.4568  -3.7807  -2.5166  -2.1786  -0.5576  -0.1840
     0.5054   0.9001

     the Fermi energy is    -3.7513 ev

!    total energy              =    -329.49072604 Ry
     Harris-Foulkes estimate   =    -329.49072605 Ry
     estimated scf accuracy    <          1.3E-10 Ry

     The total energy is the sum of the following terms:

     one-electron contribution =    -610.16723977 Ry
     hartree contribution      =     326.51474158 Ry
     xc contribution           =     -51.40567675 Ry
     ewald contribution        =       5.57111218 Ry
     smearing contrib. (-TS)   =      -0.00366328 Ry

     convergence has been achieved in  10 iterations

     Forces acting on atoms (Ry/au):

     atom    1 type  1   force =     0.00100338   -0.00305303    0.00084764
     atom    2 type  1   force =    -0.00377857    0.00056827   -0.00268630
     atom    3 type  1   force =    -0.00001137    0.00231634    0.00046238
     atom    4 type  1   force =     0.00324242   -0.00037105    0.00216951
     atom    5 type  1   force =    -0.00045585    0.00053947   -0.00079323

     Total force =     0.007411     Total SCF correction =     0.000052

     number of scf cycles    =   8
     number of bfgs steps    =   7

     energy   old            =    -329.4904516986 Ry
     energy   new            =    -329.4907260389 Ry

     CASE: energy  _new < energy  _old

     new trust radius        =       0.0313015077 bohr
     new conv_thr            =       0.0000000003 Ry


ATOMIC_POSITIONS (bohr)
Au      -1.786069909   1.451976404  -0.590213255
Au      -0.789638213   3.161326618   4.175822521
Au       3.051312172   1.266884663   0.863693829
Au       4.140632249   3.686548189   5.582693958
Au       7.779830701   1.591385127   2.634074947



     Writing output data file pwscf.save
     Check: negative starting charge=   -0.006455
     NEW-OLD atomic charge density approx. for the potential
     Check: negative starting charge=   -0.006493

     negative rho (up, down):  1.388E-04 0.000E+00

     total cpu time spent up to now is       20.3 secs

     per-process dynamical memory:    50.7 Mb

     Self-consistent Calculation

     iteration #  1     ecut=    30.00 Ry     beta=0.70
     Davidson diagonalization with overlap
     ethr =  1.00E-06,  avg # of iterations =  4.0

     negative rho (up, down):  1.702E-06 0.000E+00

     total cpu time spent up to now is       20.7 secs

     total energy              =    -329.49080225 Ry
     Harris-Foulkes estimate   =    -329.49081188 Ry
     estimated scf accuracy    <       0.00010608 Ry

     iteration #  2     ecut=    30.00 Ry     beta=0.70
     Davidson diagonalization with overlap
     ethr =  1.93E-07,  avg # of iterations =  3.0

     negative rho (up, down):  9.194E-08 0.000E+00

     total cpu time spent up to now is       20.9 secs

     total energy              =    -329.49081850 Ry
     Harris-Foulkes estimate   =    -329.49085614 Ry
     estimated scf accuracy    <       0.00007762 Ry

     iteration #  3     ecut=    30.00 Ry     beta=0.70
     Davidson diagonalization with overlap
     ethr =  1.41E-07,  avg # of iterations =  2.0

     total cpu time spent up to now is       21.1 secs

     total energy              =    -329.49083484 Ry
     Harris-Foulkes estimate   =    -329.49084277 Ry
     estimated scf accuracy    <       0.00002144 Ry

     iteration #  4     ecut=    30.00 Ry     beta=0.70
     Davidson diagonalization with overlap
     ethr =  3.90E-08,  avg # of iterations =  2.0

     total cpu time spent up to now is       21.3 secs

     total energy              =    -329.49084024 Ry
     Harris-Foulkes estimate   =    -329.49084182 Ry
     estimated scf accuracy    <       0.00000636 Ry

     iteration #  5     ecut=    30.00 Ry     beta=0.70
     Davidson diagonalization with overlap
     ethr =  1.16E-08,  avg # of iterations =  2.0

     total cpu time spent up to now is       21.5 secs

     total energy              =    -329.49084137 Ry
     Harris-Foulkes estimate   =    -329.49084154 Ry
     estimated scf accuracy    <       0.00000056 Ry

     iteration #  6     ecut=    30.00 Ry     beta=0.70
     Davidson diagonalization with overlap
     ethr =  1.02E-09,  avg # of iterations =  3.0

     total cpu time spent up to now is       21.8 secs

     total energy              =    -329.49084151 Ry
     Harris-Foulkes estimate   =    -329.49084151 Ry
     estimated scf accuracy    <       0.00000003 Ry

     iteration #  7     ecut=    30.00 Ry     beta=0.70
     Davidson diagonalization with overlap
     ethr =  5.61E-11,  avg # of iterations =  3.0

     total cpu time spent up to now is       22.0 secs

     total energy              =    -329.49084151 Ry
     Harris-Foulkes estimate   =    -329.49084153 Ry
     estimated scf accuracy    <          9.6E-09 Ry

     iteration #  8     ecut=    30.00 Ry     beta=0.70
     Davidson diagonalization with overlap
     ethr =  1.74E-11,  avg # of iterations =  2.0

     total cpu time spent up to now is       22.2 secs

     total energy              =    -329.49084153 Ry
     Harris-Foulkes estimate   =    -329.49084151 Ry
     estimated scf accuracy    <          1.4E-09 Ry

     iteration #  9     ecut=    30.00 Ry     beta=0.70
     Davidson diagonalization with overlap
     ethr =  2.52E-12,  avg # of iterations =  3.0

     total cpu time spent up to now is       22.4 secs

     End of self-consistent calculation

          k = 0.0000 0.0000 0.0000 ( 22119 PWs)   bands (ev):

    -8.5165  -7.8056  -7.6845  -7.2681  -6.8833  -6.8117  -6.6456  -6.5044
    -6.3155  -6.0700  -5.9647  -5.7741  -5.7340  -5.6883  -5.4655  -5.3803
    -5.3160  -5.2493  -5.2031  -5.1826  -5.1755  -5.1178  -5.0053  -4.9267
    -4.8201  -4.7278  -4.4663  -3.7721  -2.5123  -2.1809  -0.5615  -0.1757
     0.5059   0.8997

     the Fermi energy is    -3.7402 ev

!    total energy              =    -329.49084152 Ry
     Harris-Foulkes estimate   =    -329.49084154 Ry
     estimated scf accuracy    <          2.1E-10 Ry

     The total energy is the sum of the following terms:

     one-electron contribution =    -610.92722000 Ry
     hartree contribution      =     326.88555882 Ry
     xc contribution           =     -51.40730267 Ry
     ewald contribution        =       5.96231265 Ry
     smearing contrib. (-TS)   =      -0.00419032 Ry

     convergence has been achieved in   9 iterations

     Forces acting on atoms (Ry/au):

     atom    1 type  1   force =     0.00059914   -0.00329121    0.00050183
     atom    2 type  1   force =    -0.00331276    0.00124867   -0.00059636
     atom    3 type  1   force =     0.00104919    0.00137157   -0.00232425
     atom    4 type  1   force =     0.00154329    0.00047750    0.00353076
     atom    5 type  1   force =     0.00012114    0.00019347   -0.00111198

     Total force =     0.007006     Total SCF correction =     0.000046

     number of scf cycles    =   9
     number of bfgs steps    =   8

     energy   old            =    -329.4907260389 Ry
     energy   new            =    -329.4908415232 Ry

     CASE: energy  _new < energy  _old

     new trust radius        =       0.0113767872 bohr
     new conv_thr            =       0.0000000001 Ry


ATOMIC_POSITIONS (bohr)
Au      -1.784243453   1.442389577  -0.590975622
Au      -0.795878349   3.163166954   4.168734433
Au       3.049534724   1.275787172   0.870550746
Au       4.146240815   3.684407543   5.586615782
Au       7.780413264   1.592369754   2.631146661



     Writing output data file pwscf.save
     Check: negative starting charge=   -0.006493
     NEW-OLD atomic charge density approx. for the potential
     Check: negative starting charge=   -0.006501

     negative rho (up, down):  1.577E-05 0.000E+00

     total cpu time spent up to now is       22.6 secs

     per-process dynamical memory:    50.7 Mb

     Self-consistent Calculation

     iteration #  1     ecut=    30.00 Ry     beta=0.70
     Davidson diagonalization with overlap
     ethr =  1.00E-06,  avg # of iterations =  4.0

     Threshold (ethr) on eigenvalues was too large:
     Diagonalizing with lowered threshold

     Davidson diagonalization with overlap
     ethr =  5.00E-08,  avg # of iterations =  1.0

     negative rho (up, down):  2.309E-08 0.000E+00

     total cpu time spent up to now is       23.1 secs

     total energy              =    -329.49089645 Ry
     Harris-Foulkes estimate   =    -329.49090439 Ry
     estimated scf accuracy    <       0.00002778 Ry

     iteration #  2     ecut=    30.00 Ry     beta=0.70
     Davidson diagonalization with overlap
     ethr =  5.05E-08,  avg # of iterations =  3.0

     total cpu time spent up to now is       23.3 secs

     total energy              =    -329.49090171 Ry
     Harris-Foulkes estimate   =    -329.49091044 Ry
     estimated scf accuracy    <       0.00001812 Ry

     iteration #  3     ecut=    30.00 Ry     beta=0.70
     Davidson diagonalization with overlap
     ethr =  3.29E-08,  avg # of iterations =  2.0

     total cpu time spent up to now is       23.5 secs

     total energy              =    -329.49090594 Ry
     Harris-Foulkes estimate   =    -329.49090616 Ry
     estimated scf accuracy    <       0.00000177 Ry

     iteration #  4     ecut=    30.00 Ry     beta=0.70
     Davidson diagonalization with overlap
     ethr =  3.21E-09,  avg # of iterations =  3.0

     total cpu time spent up to now is       23.8 secs

     total energy              =    -329.49090614 Ry
     Harris-Foulkes estimate   =    -329.49090706 Ry
     estimated scf accuracy    <       0.00000238 Ry

     iteration #  5     ecut=    30.00 Ry     beta=0.70
     Davidson diagonalization with overlap
     ethr =  3.21E-09,  avg # of iterations =  2.0

     total cpu time spent up to now is       24.0 secs

     total energy              =    -329.49090642 Ry
     Harris-Foulkes estimate   =    -329.49090658 Ry
     estimated scf accuracy    <       0.00000012 Ry

     iteration #  6     ecut=    30.00 Ry     beta=0.70
     Davidson diagonalization with overlap
     ethr =  2.11E-10,  avg # of iterations =  2.0

     total cpu time spent up to now is       24.2 secs

     total energy              =    -329.49090651 Ry
     Harris-Foulkes estimate   =    -329.49090644 Ry
     estimated scf accuracy    <          4.4E-09 Ry

     iteration #  7     ecut=    30.00 Ry     beta=0.70
     Davidson diagonalization with overlap
     ethr =  8.07E-12,  avg # of iterations =  3.0

     total cpu time spent up to now is       24.5 secs

     total energy              =    -329.49090653 Ry
     Harris-Foulkes estimate   =    -329.49090651 Ry
     estimated scf accuracy    <          2.3E-09 Ry

     iteration #  8     ecut=    30.00 Ry     beta=0.70
     Davidson diagonalization with overlap
     ethr =  4.18E-12,  avg # of iterations =  2.0

     total cpu time spent up to now is       24.7 secs

     total energy              =    -329.49090654 Ry
     Harris-Foulkes estimate   =    -329.49090653 Ry
     estimated scf accuracy    <          6.9E-10 Ry

     iteration #  9     ecut=    30.00 Ry     beta=0.70
     Davidson diagonalization with overlap
     ethr =  1.25E-12,  avg # of iterations =  2.0

     total cpu time spent up to now is       24.9 secs

     End of self-consistent calculation

          k = 0.0000 0.0000 0.0000 ( 22119 PWs)   bands (ev):

    -8.5247  -7.8128  -7.6813  -7.2671  -6.8768  -6.8148  -6.6494  -6.5071
    -6.3118  -6.0761  -5.9667  -5.7747  -5.7351  -5.6894  -5.4706  -5.3764
    -5.3139  -5.2528  -5.2017  -5.1826  -5.1764  -5.1172  -5.0050  -4.9301
    -4.8214  -4.7258  -4.4711  -3.7683  -2.5104  -2.1852  -0.5624  -0.1729
     0.5065   0.8985

     the Fermi energy is    -3.7354 ev

!    total energy              =    -329.49090654 Ry
     Harris-Foulkes estimate   =    -329.49090654 Ry
     estimated scf accuracy    <          5.1E-11 Ry

     The total energy is the sum of the following terms:

     one-electron contribution =    -610.99318961 Ry
     hartree contribution      =     326.91650375 Ry
     xc contribution           =     -51.40717253 Ry
     ewald contribution        =       5.99737980 Ry
     smearing contrib. (-TS)   =      -0.00442795 Ry

     convergence has been achieved in   9 iterations

     Forces acting on atoms (Ry/au):

     atom    1 type  1   force =     0.00029579   -0.00331998    0.00016860
     atom    2 type  1   force =    -0.00222135    0.00154672    0.00043023
     atom    3 type  1   force =     0.00134138    0.00111931   -0.00293254
     atom    4 type  1   force =     0.00022240    0.00055355    0.00354877
     atom    5 type  1   force =     0.00036178    0.00010041   -0.00121505

     Total force =     0.006698     Total SCF correction =     0.000031

     number of scf cycles    =  10
     number of bfgs steps    =   9

     energy   old            =    -329.4908415232 Ry
     energy   new            =    -329.4909065398 Ry

     CASE: energy  _new < energy  _old

     new trust radius        =       0.0125144659 bohr
     new conv_thr            =            1.0E-10 Ry


ATOMIC_POSITIONS (bohr)
Au      -1.782151152   1.430053791  -0.591225615
Au      -0.803895284   3.166451997   4.162477505
Au       3.049343229   1.285221005   0.873723698
Au       4.151678761   3.682891266   5.593834559
Au       7.781091446   1.593502941   2.627261854



     Writing output data file pwscf.save
     Check: negative starting charge=   -0.006501
     NEW-OLD atomic charge density approx. for the potential
     Check: negative starting charge=   -0.006501

     negative rho (up, down):  2.446E-05 0.000E+00

     total cpu time spent up to now is       25.1 secs

     per-process dynamical memory:    50.7 Mb

     Self-consistent Calculation

     iteration #  1     ecut=    30.00 Ry     beta=0.70
     Davidson diagonalization with overlap
     ethr =  1.00E-06,  avg # of iterations =  4.0

     Threshold (ethr) on eigenvalues was too large:
     Diagonalizing with lowered threshold

     Davidson diagonalization with overlap
     ethr =  7.09E-08,  avg # of iterations =  1.0

     negative rho (up, down):  4.905E-08 0.000E+00

     total cpu time spent up to now is       25.6 secs

     total energy              =    -329.49097178 Ry
     Harris-Foulkes estimate   =    -329.49098661 Ry
     estimated scf accuracy    <       0.00003916 Ry

     iteration #  2     ecut=    30.00 Ry     beta=0.70
     Davidson diagonalization with overlap
     ethr =  7.12E-08,  avg # of iterations =  3.0

     total cpu time spent up to now is       25.8 secs

     total energy              =    -329.49097832 Ry
     Harris-Foulkes estimate   =    -329.49099340 Ry
     estimated scf accuracy    <       0.00003166 Ry

     iteration #  3     ecut=    30.00 Ry     beta=0.70
     Davidson diagonalization with overlap
     ethr =  5.76E-08,  avg # of iterations =  2.0

     total cpu time spent up to now is       26.0 secs

     total energy              =    -329.49098452 Ry
     Harris-Foulkes estimate   =    -329.49098661 Ry
     estimated scf accuracy    <       0.00000503 Ry

     iteration #  4     ecut=    30.00 Ry     beta=0.70
     Davidson diagonalization with overlap
     ethr =  9.15E-09,  avg # of iterations =  2.0

     total cpu time spent up to now is       26.2 secs

     total energy              =    -329.49098541 Ry
     Harris-Foulkes estimate   =    -329.49098666 Ry
     estimated scf accuracy    <       0.00000286 Ry

     iteration #  5     ecut=    30.00 Ry     beta=0.70
     Davidson diagonalization with overlap
     ethr =  5.21E-09,  avg # of iterations =  2.0

     total cpu time spent up to now is       26.4 secs

     total energy              =    -329.49098585 Ry
     Harris-Foulkes estimate   =    -329.49098593 Ry
     estimated scf accuracy    <       0.00000012 Ry

     iteration #  6     ecut=    30.00 Ry     beta=0.70
     Davidson diagonalization with overlap
     ethr =  2.11E-10,  avg # of iterations =  3.0

     total cpu time spent up to now is       26.6 secs

     total energy              =    -329.49098580 Ry
     Harris-Foulkes estimate   =    -329.49098589 Ry
     estimated scf accuracy    <          8.5E-09 Ry

     iteration #  7     ecut=    30.00 Ry     beta=0.70
     Davidson diagonalization with overlap
     ethr =  1.54E-11,  avg # of iterations =  3.0

     total cpu time spent up to now is       26.9 secs

     total energy              =    -329.49098575 Ry
     Harris-Foulkes estimate   =    -329.49098581 Ry
     estimated scf accuracy    <          5.1E-09 Ry

     iteration #  8     ecut=    30.00 Ry     beta=0.70
     Davidson diagonalization with overlap
     ethr =  9.35E-12,  avg # of iterations =  2.0

     total cpu time spent up to now is       27.1 secs

     total energy              =    -329.49098575 Ry
     Harris-Foulkes estimate   =    -329.49098575 Ry
     estimated scf accuracy    <          7.7E-10 Ry

     iteration #  9     ecut=    30.00 Ry     beta=0.70
     Davidson diagonalization with overlap
     ethr =  1.40E-12,  avg # of iterations =  2.0

     total cpu time spent up to now is       27.3 secs

     total energy              =    -329.49098576 Ry
     Harris-Foulkes estimate   =    -329.49098575 Ry
     estimated scf accuracy    <          1.1E-10 Ry

     iteration # 10     ecut=    30.00 Ry     beta=0.70
     Davidson diagonalization with overlap
     ethr =  2.03E-13,  avg # of iterations =  2.0

     total cpu time spent up to now is       27.5 secs

     End of self-consistent calculation

          k = 0.0000 0.0000 0.0000 ( 22119 PWs)   bands (ev):

    -8.5285  -7.8146  -7.6719  -7.2604  -6.8691  -6.8151  -6.6507  -6.5052
    -6.3048  -6.0807  -5.9681  -5.7742  -5.7359  -5.6892  -5.4731  -5.3725
    -5.3119  -5.2553  -5.2005  -5.1827  -5.1769  -5.1174  -5.0041  -4.9339
    -4.8252  -4.7241  -4.4760  -3.7660  -2.5087  -2.1917  -0.5624  -0.1714
     0.5072   0.8971

     the Fermi energy is    -3.7323 ev

!    total energy              =    -329.49098577 Ry
     Harris-Foulkes estimate   =    -329.49098576 Ry
     estimated scf accuracy    <          1.3E-11 Ry

     The total energy is the sum of the following terms:

     one-electron contribution =    -610.77763771 Ry
     hartree contribution      =     326.80901343 Ry
     xc contribution           =     -51.40614934 Ry
     ewald contribution        =       5.88840351 Ry
     smearing contrib. (-TS)   =      -0.00461566 Ry

     convergence has been achieved in  10 iterations

     Forces acting on atoms (Ry/au):

     atom    1 type  1   force =     0.00004404   -0.00312830   -0.00000633
     atom    2 type  1   force =    -0.00077104    0.00170091    0.00114976
     atom    3 type  1   force =     0.00138795    0.00101055   -0.00297146
     atom    4 type  1   force =    -0.00102925    0.00025332    0.00299867
     atom    5 type  1   force =     0.00036830    0.00016352   -0.00117064

     Total force =     0.006166     Total SCF correction =     0.000014

     number of scf cycles    =  11
     number of bfgs steps    =  10

     energy   old            =    -329.4909065398 Ry
     energy   new            =    -329.4909857714 Ry

     CASE: energy  _new < energy  _old

     new trust radius        =       0.0187716988 bohr
     new conv_thr            =            1.0E-10 Ry


ATOMIC_POSITIONS (bohr)
Au      -1.779585120   1.411461590  -0.591575216
Au      -0.814184006   3.172444370   4.156194033
Au       3.050595659   1.297954975   0.874402391
Au       4.156900446   3.681136772   5.605841336
Au       7.782340021   1.595123292   2.621209456



     Writing output data file pwscf.save
     Check: negative starting charge=   -0.006501
     NEW-OLD atomic charge density approx. for the potential
     Check: negative starting charge=   -0.006496

     negative rho (up, down):  7.249E-05 0.000E+00

     total cpu time spent up to now is       27.8 secs

     per-process dynamical memory:    50.7 Mb

     Self-consistent Calculation

     iteration #  1     ecut=    30.00 Ry     beta=0.70
     Davidson diagonalization with overlap
     ethr =  1.00E-06,  avg # of iterations =  4.0

     negative rho (up, down):  4.887E-07 0.000E+00

     total cpu time spent up to now is       28.1 secs

     total energy              =    -329.49104971 Ry
     Harris-Foulkes estimate   =    -329.49107837 Ry
     estimated scf accuracy    <       0.00008202 Ry

     iteration #  2     ecut=    30.00 Ry     beta=0.70
     Davidson diagonalization with overlap
     ethr =  1.49E-07,  avg # of iterations =  3.0

     negative rho (up, down):  2.271E-08 0.000E+00

     total cpu time spent up to now is       28.4 secs

     total energy              =    -329.49106383 Ry
     Harris-Foulkes estimate   =    -329.49109650 Ry
     estimated scf accuracy    <       0.00006756 Ry

     iteration #  3     ecut=    30.00 Ry     beta=0.70
     Davidson diagonalization with overlap
     ethr =  1.23E-07,  avg # of iterations =  2.0

     total cpu time spent up to now is       28.6 secs

     total energy              =    -329.49107644 Ry
     Harris-Foulkes estimate   =    -329.49108082 Ry
     estimated scf accuracy    <       0.00000865 Ry

     iteration #  4     ecut=    30.00 Ry     beta=0.70
     Davidson diagonalization with overlap
     ethr =  1.57E-08,  avg # of iterations =  2.0

     total cpu time spent up to now is       28.8 secs

     total energy              =    -329.49107820 Ry
     Harris-Foulkes estimate   =    -329.49108055 Ry
     estimated scf accuracy    <       0.00000628 Ry

     iteration #  5     ecut=    30.00 Ry     beta=0.70
     Davidson diagonalization with overlap
     ethr =  1.14E-08,  avg # of iterations =  2.0

     total cpu time spent up to now is       29.0 secs

     total energy              =    -329.49107920 Ry
     Harris-Foulkes estimate   =    -329.49107932 Ry
     estimated scf accuracy    <       0.00000026 Ry

     iteration #  6     ecut=    30.00 Ry     beta=0.70
     Davidson diagonalization with overlap
     ethr =  4.80E-10,  avg # of iterations =  3.0

     total cpu time spent up to now is       29.2 secs

     total energy              =    -329.49107929 Ry
     Harris-Foulkes estimate   =    -329.49107929 Ry
     estimated scf accuracy    <       0.00000002 Ry

     iteration #  7     ecut=    30.00 Ry     beta=0.70
     Davidson diagonalization with overlap
     ethr =  3.85E-11,  avg # of iterations =  3.0

     total cpu time spent up to now is       29.4 secs

     total energy              =    -329.49107929 Ry
     Harris-Foulkes estimate   =    -329.49107930 Ry
     estimated scf accuracy    <       0.00000001 Ry

     iteration #  8     ecut=    30.00 Ry     beta=0.70
     Davidson diagonalization with overlap
     ethr =  1.85E-11,  avg # of iterations =  2.0

     total cpu time spent up to now is       29.7 secs

     total energy              =    -329.49107929 Ry
     Harris-Foulkes estimate   =    -329.49107930 Ry
     estimated scf accuracy    <          1.6E-09 Ry

     iteration #  9     ecut=    30.00 Ry     beta=0.70
     Davidson diagonalization with overlap
     ethr =  2.90E-12,  avg # of iterations =  2.0

     total cpu time spent up to now is       29.9 secs

     total energy              =    -329.49107926 Ry
     Harris-Foulkes estimate   =    -329.49107930 Ry
     estimated scf accuracy    <          3.1E-10 Ry

     iteration # 10     ecut=    30.00 Ry     beta=0.70
     Davidson diagonalization with overlap
     ethr =  5.63E-13,  avg # of iterations =  2.0

     total cpu time spent up to now is       30.1 secs

     End of self-consistent calculation

          k = 0.0000 0.0000 0.0000 ( 22119 PWs)   bands (ev):

    -8.5289  -7.8108  -7.6567  -7.2474  -6.8591  -6.8126  -6.6477  -6.4991
    -6.2941  -6.0847  -5.9676  -5.7728  -5.7365  -5.6879  -5.4734  -5.3679
    -5.3099  -5.2574  -5.1995  -5.1830  -5.1769  -5.1182  -5.0023  -4.9383
    -4.8310  -4.7230  -4.4818  -3.7655  -2.5067  -2.2013  -0.5618  -0.1710
     0.5083   0.8958

     the Fermi energy is    -3.7311 ev

!    total energy              =    -329.49107921 Ry
     Harris-Foulkes estimate   =    -329.49107926 Ry
     estimated scf accuracy    <          3.1E-11 Ry

     The total energy is the sum of the following terms:

     one-electron contribution =    -610.25568569 Ry
     hartree contribution      =     326.55055627 Ry
     xc contribution           =     -51.40407782 Ry
     ewald contribution        =       5.62290131 Ry
     smearing contrib. (-TS)   =      -0.00477329 Ry

     convergence has been achieved in  10 iterations

     Forces acting on atoms (Ry/au):

     atom    1 type  1   force =    -0.00013276   -0.00251668    0.00009487
     atom    2 type  1   force =     0.00106545    0.00168934    0.00153851
     atom    3 type  1   force =     0.00117025    0.00087436   -0.00251035
     atom    4 type  1   force =    -0.00218792   -0.00048684    0.00179273
     atom    5 type  1   force =     0.00008499    0.00043982   -0.00091577

     Total force =     0.005516     Total SCF correction =     0.000021

     number of scf cycles    =  12
     number of bfgs steps    =  11

     energy   old            =    -329.4909857714 Ry
     energy   new            =    -329.4910792079 Ry

     CASE: energy  _new < energy  _old

     new trust radius        =       0.0249795694 bohr
     new conv_thr            =            1.0E-10 Ry


ATOMIC_POSITIONS (bohr)
Au      -1.776871577   1.386630114  -0.591690830
Au      -0.824482892   3.181971834   4.151662647
Au       3.053966405   1.313388036   0.870619278
Au       4.159524722   3.678483720   5.622541712
Au       7.783930343   1.597647297   2.612939193



     Writing output data file pwscf.save
     Check: negative starting charge=   -0.006496
     NEW-OLD atomic charge density approx. for the potential
     Check: negative starting charge=   -0.006483

     negative rho (up, down):  1.413E-04 0.000E+00

     total cpu time spent up to now is       30.3 secs

     per-process dynamical memory:    50.7 Mb

     Self-consistent Calculation

     iteration #  1     ecut=    30.00 Ry     beta=0.70
     Davidson diagonalization with overlap
     ethr =  1.00E-06,  avg # of iterations =  4.0

     negative rho (up, down):  1.854E-06 0.000E+00

     total cpu time spent up to now is       30.6 secs

     total energy              =    -329.49110549 Ry
     Harris-Foulkes estimate   =    -329.49114697 Ry
     estimated scf accuracy    <       0.00014101 Ry

     iteration #  2     ecut=    30.00 Ry     beta=0.70
     Davidson diagonalization with overlap
     ethr =  2.56E-07,  avg # of iterations =  3.0

     negative rho (up, down):  1.270E-07 0.000E+00

     total cpu time spent up to now is       30.9 secs

     total energy              =    -329.49113189 Ry
     Harris-Foulkes estimate   =    -329.49118627 Ry
     estimated scf accuracy    <       0.00011358 Ry

     iteration #  3     ecut=    30.00 Ry     beta=0.70
     Davidson diagonalization with overlap
     ethr =  2.07E-07,  avg # of iterations =  2.0

     total cpu time spent up to now is       31.1 secs

     total energy              =    -329.49115276 Ry
     Harris-Foulkes estimate   =    -329.49115898 Ry
     estimated scf accuracy    <       0.00000988 Ry

     iteration #  4     ecut=    30.00 Ry     beta=0.70
     Davidson diagonalization with overlap
     ethr =  1.80E-08,  avg # of iterations =  2.0

     total cpu time spent up to now is       31.3 secs

     total energy              =    -329.49115451 Ry
     Harris-Foulkes estimate   =    -329.49115862 Ry
     estimated scf accuracy    <       0.00001139 Ry

     iteration #  5     ecut=    30.00 Ry     beta=0.70
     Davidson diagonalization with overlap
     ethr =  1.80E-08,  avg # of iterations =  2.0

     total cpu time spent up to now is       31.5 secs

     total energy              =    -329.49115617 Ry
     Harris-Foulkes estimate   =    -329.49115659 Ry
     estimated scf accuracy    <       0.00000052 Ry

     iteration #  6     ecut=    30.00 Ry     beta=0.70
     Davidson diagonalization with overlap
     ethr =  9.40E-10,  avg # of iterations =  3.0

     total cpu time spent up to now is       31.7 secs

     total energy              =    -329.49115635 Ry
     Harris-Foulkes estimate   =    -329.49115631 Ry
     estimated scf accuracy    <       0.00000003 Ry

     iteration #  7     ecut=    30.00 Ry     beta=0.70
     Davidson diagonalization with overlap
     ethr =  5.59E-11,  avg # of iterations =  3.0

     total cpu time spent up to now is       32.0 secs

     total energy              =    -329.49115638 Ry
     Harris-Foulkes estimate   =    -329.49115636 Ry
     estimated scf accuracy    <       0.00000002 Ry

     iteration #  8     ecut=    30.00 Ry     beta=0.70
     Davidson diagonalization with overlap
     ethr =  3.04E-11,  avg # of iterations =  2.0

     total cpu time spent up to now is       32.2 secs

     total energy              =    -329.49115639 Ry
[...]

     CASE: energy  _new < energy  _old

     new trust radius        =       0.0070955046 bohr
     new conv_thr            =            1.0E-10 Ry


ATOMIC_POSITIONS (bohr)
Au      -1.773909496   1.320746112  -0.558120723
Au      -0.803998148   3.233975136   4.141419976
Au       3.064526553   1.347571335   0.834439710
Au       4.135875013   3.620384557   5.649058342
Au       7.773573077   1.635443860   2.599274695



     Writing output data file pwscf.save
     Check: negative starting charge=   -0.006462
     NEW-OLD atomic charge density approx. for the potential
     Check: negative starting charge=   -0.006460

     negative rho (up, down):  1.565E-06 0.000E+00

     total cpu time spent up to now is       47.7 secs

     per-process dynamical memory:    50.7 Mb

     Self-consistent Calculation

     iteration #  1     ecut=    30.00 Ry     beta=0.70
     Davidson diagonalization with overlap
     ethr =  1.00E-06,  avg # of iterations =  3.0

     Threshold (ethr) on eigenvalues was too large:
     Diagonalizing with lowered threshold

     Davidson diagonalization with overlap
     ethr =  2.07E-08,  avg # of iterations =  2.0

     total cpu time spent up to now is       48.2 secs

     total energy              =    -329.49139014 Ry
     Harris-Foulkes estimate   =    -329.49139613 Ry
     estimated scf accuracy    <       0.00001223 Ry

     iteration #  2     ecut=    30.00 Ry     beta=0.70
     Davidson diagonalization with overlap
     ethr =  2.22E-08,  avg # of iterations =  2.0

     total cpu time spent up to now is       48.4 secs

     total energy              =    -329.49139236 Ry
     Harris-Foulkes estimate   =    -329.49139709 Ry
     estimated scf accuracy    <       0.00000943 Ry

     iteration #  3     ecut=    30.00 Ry     beta=0.70
     Davidson diagonalization with overlap
     ethr =  1.71E-08,  avg # of iterations =  2.0

     total cpu time spent up to now is       48.6 secs

     total energy              =    -329.49139415 Ry
     Harris-Foulkes estimate   =    -329.49139456 Ry
     estimated scf accuracy    <       0.00000078 Ry

     iteration #  4     ecut=    30.00 Ry     beta=0.70
     Davidson diagonalization with overlap
     ethr =  1.41E-09,  avg # of iterations =  2.0

     total cpu time spent up to now is       48.8 secs

     total energy              =    -329.49139451 Ry
     Harris-Foulkes estimate   =    -329.49139468 Ry
     estimated scf accuracy    <       0.00000108 Ry

     iteration #  5     ecut=    30.00 Ry     beta=0.70
     Davidson diagonalization with overlap
     ethr =  1.41E-09,  avg # of iterations =  2.0

     total cpu time spent up to now is       49.0 secs

     total energy              =    -329.49139481 Ry
     Harris-Foulkes estimate   =    -329.49139468 Ry
     estimated scf accuracy    <       0.00000001 Ry

     iteration #  6     ecut=    30.00 Ry     beta=0.70
     Davidson diagonalization with overlap
     ethr =  2.57E-11,  avg # of iterations =  3.0

     total cpu time spent up to now is       49.3 secs

     total energy              =    -329.49139487 Ry
     Harris-Foulkes estimate   =    -329.49139481 Ry
     estimated scf accuracy    <          2.4E-09 Ry

     iteration #  7     ecut=    30.00 Ry     beta=0.70
     Davidson diagonalization with overlap
     ethr =  4.28E-12,  avg # of iterations =  3.0

     total cpu time spent up to now is       49.5 secs

     total energy              =    -329.49139491 Ry
     Harris-Foulkes estimate   =    -329.49139487 Ry
     estimated scf accuracy    <          1.1E-09 Ry

     iteration #  8     ecut=    30.00 Ry     beta=0.70
     Davidson diagonalization with overlap
     ethr =  1.93E-12,  avg # of iterations =  2.0

     total cpu time spent up to now is       49.7 secs

     total energy              =    -329.49139490 Ry
     Harris-Foulkes estimate   =    -329.49139491 Ry
     estimated scf accuracy    <          1.5E-10 Ry

     iteration #  9     ecut=    30.00 Ry     beta=0.70
     Davidson diagonalization with overlap
     ethr =  2.67E-13,  avg # of iterations =  2.0

     total cpu time spent up to now is       50.0 secs

     End of self-consistent calculation

          k = 0.0000 0.0000 0.0000 ( 22119 PWs)   bands (ev):

    -8.5345  -7.8023  -7.6606  -7.2398  -6.8651  -6.8299  -6.6282  -6.4886
    -6.3046  -6.0844  -5.9636  -5.7773  -5.7385  -5.6915  -5.4584  -5.3665
    -5.3150  -5.2494  -5.2000  -5.1840  -5.1769  -5.1219  -4.9938  -4.9239
    -4.8349  -4.7326  -4.4712  -3.7800  -2.4983  -2.1916  -0.5671  -0.1838
     0.5183   0.9124

     the Fermi energy is    -3.7485 ev

!    total energy              =    -329.49139490 Ry
     Harris-Foulkes estimate   =    -329.49139490 Ry
     estimated scf accuracy    <          3.6E-11 Ry

     The total energy is the sum of the following terms:

     one-electron contribution =    -610.37299937 Ry
     hartree contribution      =     326.61224132 Ry
     xc contribution           =     -51.40636382 Ry
     ewald contribution        =       5.67983181 Ry
     smearing contrib. (-TS)   =      -0.00410483 Ry

     convergence has been achieved in   9 iterations

     Forces acting on atoms (Ry/au):

     atom    1 type  1   force =    -0.00124039    0.00049216   -0.00065228
     atom    2 type  1   force =    -0.00057533    0.00093511   -0.00001736
     atom    3 type  1   force =     0.00010815   -0.00081420   -0.00013937
     atom    4 type  1   force =     0.00034587   -0.00059225    0.00072914
     atom    5 type  1   force =     0.00136170   -0.00002082    0.00007987

     Total force =     0.002640     Total SCF correction =     0.000022

     number of scf cycles    =  20
     number of bfgs steps    =  19

     energy   old            =    -329.4913837587 Ry
     energy   new            =    -329.4913949021 Ry

     CASE: energy  _new < energy  _old

     new trust radius        =       0.0078050550 bohr
     new conv_thr            =            1.0E-10 Ry


ATOMIC_POSITIONS (bohr)
Au      -1.777196668   1.319724222  -0.556204309
Au      -0.805135538   3.239214268   4.137752512
Au       3.063970416   1.347233579   0.833874908
Au       4.138100543   3.613068011   5.650618488
Au       7.776328247   1.638880921   2.600030400



     Writing output data file pwscf.save
     Check: negative starting charge=   -0.006460
     NEW-OLD atomic charge density approx. for the potential
     Check: negative starting charge=   -0.006455

     negative rho (up, down):  1.799E-06 0.000E+00

     total cpu time spent up to now is       50.2 secs

     per-process dynamical memory:    50.7 Mb

     Self-consistent Calculation

     iteration #  1     ecut=    30.00 Ry     beta=0.70
     Davidson diagonalization with overlap
     ethr =  1.00E-06,  avg # of iterations =  3.0

     Threshold (ethr) on eigenvalues was too large:
     Diagonalizing with lowered threshold

     Davidson diagonalization with overlap
     ethr =  2.01E-08,  avg # of iterations =  2.0

     total cpu time spent up to now is       50.6 secs

     total energy              =    -329.49140421 Ry
     Harris-Foulkes estimate   =    -329.49140956 Ry
     estimated scf accuracy    <       0.00001180 Ry

     iteration #  2     ecut=    30.00 Ry     beta=0.70
     Davidson diagonalization with overlap
     ethr =  2.15E-08,  avg # of iterations =  2.0

     total cpu time spent up to now is       50.9 secs

     total energy              =    -329.49140660 Ry
     Harris-Foulkes estimate   =    -329.49141062 Ry
     estimated scf accuracy    <       0.00000845 Ry

     iteration #  3     ecut=    30.00 Ry     beta=0.70
     Davidson diagonalization with overlap
     ethr =  1.54E-08,  avg # of iterations =  2.0

     total cpu time spent up to now is       51.1 secs

     total energy              =    -329.49140843 Ry
     Harris-Foulkes estimate   =    -329.49140857 Ry
     estimated scf accuracy    <       0.00000060 Ry

     iteration #  4     ecut=    30.00 Ry     beta=0.70
     Davidson diagonalization with overlap
     ethr =  1.09E-09,  avg # of iterations =  3.0

     total cpu time spent up to now is       51.3 secs

     total energy              =    -329.49140905 Ry
     Harris-Foulkes estimate   =    -329.49140891 Ry
     estimated scf accuracy    <       0.00000119 Ry

     iteration #  5     ecut=    30.00 Ry     beta=0.70
     Davidson diagonalization with overlap
     ethr =  1.09E-09,  avg # of iterations =  2.0

     total cpu time spent up to now is       51.5 secs

     total energy              =    -329.49140930 Ry
     Harris-Foulkes estimate   =    -329.49140924 Ry
     estimated scf accuracy    <          8.1E-09 Ry

     iteration #  6     ecut=    30.00 Ry     beta=0.70
     Davidson diagonalization with overlap
     ethr =  1.48E-11,  avg # of iterations =  3.0

     total cpu time spent up to now is       51.8 secs

     total energy              =    -329.49140942 Ry
     Harris-Foulkes estimate   =    -329.49140931 Ry
     estimated scf accuracy    <          2.1E-09 Ry

     iteration #  7     ecut=    30.00 Ry     beta=0.70
     Davidson diagonalization with overlap
     ethr =  3.75E-12,  avg # of iterations =  2.0

     total cpu time spent up to now is       52.0 secs

     total energy              =    -329.49140944 Ry
     Harris-Foulkes estimate   =    -329.49140942 Ry
     estimated scf accuracy    <          5.5E-10 Ry

     iteration #  8     ecut=    30.00 Ry     beta=0.70
     Davidson diagonalization with overlap
     ethr =  1.01E-12,  avg # of iterations =  2.0

     total cpu time spent up to now is       52.2 secs

     total energy              =    -329.49140944 Ry
     Harris-Foulkes estimate   =    -329.49140944 Ry
     estimated scf accuracy    <          1.6E-10 Ry

     iteration #  9     ecut=    30.00 Ry     beta=0.70
     Davidson diagonalization with overlap
     ethr =  2.82E-13,  avg # of iterations =  2.0

     total cpu time spent up to now is       52.4 secs

     End of self-consistent calculation

          k = 0.0000 0.0000 0.0000 ( 22119 PWs)   bands (ev):

    -8.5316  -7.8023  -7.6576  -7.2411  -6.8622  -6.8283  -6.6316  -6.4883
    -6.3046  -6.0833  -5.9654  -5.7764  -5.7381  -5.6905  -5.4605  -5.3657
    -5.3144  -5.2500  -5.1990  -5.1848  -5.1772  -5.1222  -4.9958  -4.9239
    -4.8359  -4.7331  -4.4722  -3.7784  -2.5015  -2.1914  -0.5672  -0.1828
     0.5170   0.9124

     the Fermi energy is    -3.7466 ev

!    total energy              =    -329.49140947 Ry
     Harris-Foulkes estimate   =    -329.49140944 Ry
     estimated scf accuracy    <          2.2E-11 Ry

     The total energy is the sum of the following terms:

     one-electron contribution =    -610.28814683 Ry
     hartree contribution      =     326.56968155 Ry
     xc contribution           =     -51.40585923 Ry
     ewald contribution        =       5.63709944 Ry
     smearing contrib. (-TS)   =      -0.00418439 Ry

     convergence has been achieved in   9 iterations

     Forces acting on atoms (Ry/au):

     atom    1 type  1   force =    -0.00104504    0.00045230   -0.00082928
     atom    2 type  1   force =    -0.00014162    0.00094116    0.00030061
     atom    3 type  1   force =     0.00029798   -0.00080823   -0.00006251
     atom    4 type  1   force =    -0.00016728   -0.00032508    0.00079393
     atom    5 type  1   force =     0.00105595   -0.00026016   -0.00020276

     Total force =     0.002390     Total SCF correction =     0.000015

     number of scf cycles    =  21
     number of bfgs steps    =  20

     energy   old            =    -329.4913949021 Ry
     energy   new            =    -329.4914094688 Ry

     CASE: energy  _new < energy  _old

     new trust radius        =       0.0103181475 bohr
     new conv_thr            =            1.0E-10 Ry


ATOMIC_POSITIONS (bohr)
Au      -1.784385461   1.323378907  -0.555364313
Au      -0.806164024   3.246777655   4.134206845
Au       3.063385347   1.342269527   0.832959976
Au       4.140833438   3.603254630   5.652259527
Au       7.782397700   1.642440281   2.602009965



     Writing output data file pwscf.save
     Check: negative starting charge=   -0.006455
     NEW-OLD atomic charge density approx. for the potential
     Check: negative starting charge=   -0.006446

     negative rho (up, down):  1.109E-05 0.000E+00

     total cpu time spent up to now is       52.6 secs

     per-process dynamical memory:    50.7 Mb

     Self-consistent Calculation

     iteration #  1     ecut=    30.00 Ry     beta=0.70
     Davidson diagonalization with overlap
     ethr =  1.00E-06,  avg # of iterations =  4.0

     Threshold (ethr) on eigenvalues was too large:
     Diagonalizing with lowered threshold

     Davidson diagonalization with overlap
     ethr =  4.19E-08,  avg # of iterations =  1.0

     total cpu time spent up to now is       53.1 secs

     total energy              =    -329.49141865 Ry
     Harris-Foulkes estimate   =    -329.49142541 Ry
     estimated scf accuracy    <       0.00002389 Ry

     iteration #  2     ecut=    30.00 Ry     beta=0.70
     Davidson diagonalization with overlap
     ethr =  4.34E-08,  avg # of iterations =  2.0

     total cpu time spent up to now is       53.3 secs

     total energy              =    -329.49142295 Ry
     Harris-Foulkes estimate   =    -329.49143105 Ry
     estimated scf accuracy    <       0.00001662 Ry

     iteration #  3     ecut=    30.00 Ry     beta=0.70
     Davidson diagonalization with overlap
     ethr =  3.02E-08,  avg # of iterations =  2.0

     total cpu time spent up to now is       53.5 secs

     total energy              =    -329.49142759 Ry
     Harris-Foulkes estimate   =    -329.49142680 Ry
     estimated scf accuracy    <       0.00000074 Ry

     iteration #  4     ecut=    30.00 Ry     beta=0.70
     Davidson diagonalization with overlap
     ethr =  1.34E-09,  avg # of iterations =  3.0

     total cpu time spent up to now is       53.8 secs

     total energy              =    -329.49142799 Ry
     Harris-Foulkes estimate   =    -329.49142806 Ry
     estimated scf accuracy    <       0.00000093 Ry

     iteration #  5     ecut=    30.00 Ry     beta=0.70
     Davidson diagonalization with overlap
     ethr =  1.34E-09,  avg # of iterations =  2.0

     total cpu time spent up to now is       54.0 secs

     total energy              =    -329.49142818 Ry
     Harris-Foulkes estimate   =    -329.49142819 Ry
     estimated scf accuracy    <       0.00000008 Ry

     iteration #  6     ecut=    30.00 Ry     beta=0.70
     Davidson diagonalization with overlap
     ethr =  1.49E-10,  avg # of iterations =  2.0

     total cpu time spent up to now is       54.2 secs

     total energy              =    -329.49142834 Ry
     Harris-Foulkes estimate   =    -329.49142820 Ry
     estimated scf accuracy    <          5.7E-09 Ry

     iteration #  7     ecut=    30.00 Ry     beta=0.70
     Davidson diagonalization with overlap
     ethr =  1.04E-11,  avg # of iterations =  3.0

     total cpu time spent up to now is       54.4 secs

     total energy              =    -329.49142833 Ry
     Harris-Foulkes estimate   =    -329.49142834 Ry
     estimated scf accuracy    <          3.2E-09 Ry

     iteration #  8     ecut=    30.00 Ry     beta=0.70
     Davidson diagonalization with overlap
     ethr =  5.88E-12,  avg # of iterations =  2.0

     total cpu time spent up to now is       54.6 secs

     total energy              =    -329.49142833 Ry
     Harris-Foulkes estimate   =    -329.49142833 Ry
     estimated scf accuracy    <          2.9E-10 Ry

     iteration #  9     ecut=    30.00 Ry     beta=0.70
     Davidson diagonalization with overlap
     ethr =  5.34E-13,  avg # of iterations =  2.0

     total cpu time spent up to now is       54.8 secs

     End of self-consistent calculation

          k = 0.0000 0.0000 0.0000 ( 22119 PWs)   bands (ev):

    -8.5217  -7.7976  -7.6518  -7.2413  -6.8571  -6.8225  -6.6338  -6.4859
    -6.3043  -6.0791  -5.9662  -5.7740  -5.7360  -5.6880  -5.4629  -5.3653
    -5.3141  -5.2504  -5.1980  -5.1855  -5.1774  -5.1229  -4.9998  -4.9238
    -4.8372  -4.7349  -4.4736  -3.7773  -2.5083  -2.1915  -0.5668  -0.1817
     0.5143   0.9123

     the Fermi energy is    -3.7451 ev

!    total energy              =    -329.49142834 Ry
     Harris-Foulkes estimate   =    -329.49142833 Ry
     estimated scf accuracy    <          3.9E-11 Ry

     The total energy is the sum of the following terms:

     one-electron contribution =    -609.96162637 Ry
     hartree contribution      =     326.40769888 Ry
     xc contribution           =     -51.40435220 Ry
     ewald contribution        =       5.47111698 Ry
     smearing contrib. (-TS)   =      -0.00426562 Ry

     convergence has been achieved in   9 iterations

     Forces acting on atoms (Ry/au):

     atom    1 type  1   force =    -0.00040459    0.00044082   -0.00070024
     atom    2 type  1   force =     0.00044571    0.00080104    0.00039874
     atom    3 type  1   force =     0.00041860   -0.00067654    0.00021606
     atom    4 type  1   force =    -0.00064688   -0.00004578    0.00070025
     atom    5 type  1   force =     0.00018716   -0.00051954   -0.00061480

     Total force =     0.002030     Total SCF correction =     0.000024

     bfgs converged in  22 scf cycles and  21 bfgs steps
     (criteria: energy <  1.0E-04, force <  1.0E-03)

     End of BFGS Geometry Optimization

     Final energy   =    -329.4914283406 Ry
Begin final coordinates

ATOMIC_POSITIONS (bohr)
Au      -1.784385461   1.323378907  -0.555364313
Au      -0.806164024   3.246777655   4.134206845
Au       3.063385347   1.342269527   0.832959976
Au       4.140833438   3.603254630   5.652259527
Au       7.782397700   1.642440281   2.602009965
End final coordinates



     Writing output data file pwscf.save
 
     init_run     :      0.15s CPU      0.18s WALL (       1 calls)
     electrons    :     47.65s CPU     50.82s WALL (      22 calls)
     update_pot   :      1.41s CPU      1.69s WALL (      21 calls)
     forces       :      0.91s CPU      0.93s WALL (      22 calls)

     Called by init_run:
     wfcinit      :      0.07s CPU      0.08s WALL (       1 calls)
     potinit      :      0.03s CPU      0.03s WALL (       1 calls)

     Called by electrons:
     c_bands      :     36.39s CPU     36.85s WALL (     220 calls)
     sum_band     :      5.19s CPU      5.31s WALL (     220 calls)
     v_of_rho     :      4.12s CPU      4.18s WALL (     231 calls)
     mix_rho      :      1.58s CPU      3.36s WALL (     220 calls)

     Called by c_bands:
     init_us_2    :      0.67s CPU      0.70s WALL (     441 calls)
     cegterg      :     32.39s CPU     32.68s WALL (     220 calls)

     Called by sum_band:

     Called by *egterg:
     h_psi        :     25.36s CPU     25.55s WALL (     767 calls)
     g_psi        :      0.26s CPU      0.26s WALL (     546 calls)
     cdiaghg      :      1.73s CPU      1.74s WALL (     734 calls)

     Called by h_psi:
     h_psi:pot    :     25.00s CPU     25.19s WALL (     767 calls)
     h_psi:calbec :      1.37s CPU      1.37s WALL (     767 calls)
     vloc_psi     :     22.10s CPU     22.28s WALL (     767 calls)
     add_vuspsi   :      1.53s CPU      1.54s WALL (     767 calls)

     General routines
     calbec       :      1.63s CPU      1.64s WALL (     855 calls)
     fft          :      2.28s CPU      2.33s WALL (    2606 calls)
     fftw         :     23.22s CPU     23.58s WALL (   49062 calls)
     davcio       :      0.25s CPU      1.66s WALL (    2137 calls)
 
     Parallel routines
     fft_scatter  :      5.95s CPU      5.73s WALL (   51668 calls)
 
     PWSCF        :    50.77s CPU        55.01s WALL

 
   This run was terminated on:  17:58:30   3Aug2017            

=------------------------------------------------------------------------------=
   JOB DONE.
=------------------------------------------------------------------------------=
