
     Program PWSCF v.6.0 (svn rev. 13079) starts on  3Aug2017 at 12:39:30 

     This program is part of the open-source Quantum ESPRESSO suite
     for quantum simulation of materials; please cite
         "P. Giannozzi et al., J. Phys.:Condens. Matter 21 395502 (2009);
          URL http://www.quantum-espresso.org", 
     in publications or presentations arising from this work. More details at
     http://www.quantum-espresso.org/quote

     Parallel version (MPI), running on    10 processors
     R & G space division:  proc/nbgrp/npool/nimage =      10
     Reading input from input/multi/minchecks-Gold5-103.in

     Current dimensions of program PWSCF are:
     Max number of different atomic species (ntypx) = 10
     Max number of k-points (npk) =  40000
     Max angular momentum in pseudopotentials (lmaxx) =  3
     Message from routine iosys:
     pot_extrapolation='second-order' not available, using 'atomic'
     Message from routine iosys:
     wfc_extrapolation='second-order' not available, using 'atomic'

     Subspace diagonalization in iterative solution of the eigenvalue problem:
     a serial algorithm will be used

 
     Parallelization info
     --------------------
     sticks:   dense  smooth     PW     G-vecs:    dense   smooth      PW
     Min         380     380     94                17748    17748    2208
     Max         381     381     95                17753    17753    2213
     Sum        3809    3809    949               177509   177509   22119
 


     bravais-lattice index     =            1
     lattice parameter (alat)  =      20.0000  a.u.
     unit-cell volume          =    8000.0000 (a.u.)^3
     number of atoms/cell      =            5
     number of atomic types    =            1
     number of electrons       =        55.00
     number of Kohn-Sham states=           34
     kinetic-energy cutoff     =      30.0000  Ry
     charge density cutoff     =     120.0000  Ry
     convergence threshold     =      1.0E-08
     mixing beta               =       0.7000
     number of iterations used =            8  plain     mixing
     Exchange-correlation      = BLYP ( 1  3  1  3 0 0)
     nstep                     =           50


     celldm(1)=  20.000000  celldm(2)=   0.000000  celldm(3)=   0.000000
     celldm(4)=   0.000000  celldm(5)=   0.000000  celldm(6)=   0.000000

     crystal axes: (cart. coord. in units of alat)
               a(1) = (   1.000000   0.000000   0.000000 )  
               a(2) = (   0.000000   1.000000   0.000000 )  
               a(3) = (   0.000000   0.000000   1.000000 )  

     reciprocal axes: (cart. coord. in units 2 pi/alat)
               b(1) = (  1.000000  0.000000  0.000000 )  
               b(2) = (  0.000000  1.000000  0.000000 )  
               b(3) = (  0.000000  0.000000  1.000000 )  


     PseudoPot. # 1 for Au read from file:
     ./Au.blyp-d-hgh.UPF
     MD5 check sum: c10d8bae01f806c36a1643a1c69a8479
     Pseudo is Norm-conserving, Zval = 11.0
     Generated in analytical, separable form
     Using radial grid of 1279 points,  6 beta functions with: 
                l(1) =   0
                l(2) =   0
                l(3) =   1
                l(4) =   1
                l(5) =   2
                l(6) =   2

     atomic species   valence    mass     pseudopotential
        Au            11.00    28.08600     Au( 1.00)

     No symmetry found



   Cartesian axes

     site n.     atom                  positions (alat units)
         1           Au  tau(   1) = (  -0.0879944   0.0923760  -0.0537230  )
         2           Au  tau(   2) = (  -0.0474758   0.1892248   0.1876603  )
         3           Au  tau(   3) = (   0.1513149   0.0850137   0.0413832  )
         4           Au  tau(   4) = (   0.1980824   0.1679047   0.2819914  )
         5           Au  tau(   5) = (   0.3891167   0.0592378   0.1407248  )

     number of k points=     1  Marzari-Vanderbilt smearing, width (Ry)=  0.0250
                       cart. coord. in units 2pi/alat
        k(    1) = (   0.0000000   0.0000000   0.0000000), wk =   2.0000000

     Dense  grid:   177509 G-vectors     FFT dimensions: (  72,  72,  72)

     Estimated max dynamical RAM per process >      15.04Mb

     Estimated total allocated dynamical RAM >     150.39Mb

     Initial potential from superposition of free atoms
     Check: negative starting charge=   -0.006502

     starting charge   54.99940, renormalised to   55.00000

     negative rho (up, down):  6.502E-03 0.000E+00
     Starting wfc are   45 randomized atomic wfcs

     total cpu time spent up to now is        0.3 secs

     per-process dynamical memory:    41.0 Mb

     Self-consistent Calculation

     iteration #  1     ecut=    30.00 Ry     beta=0.70
     Davidson diagonalization with overlap
     ethr =  1.00E-02,  avg # of iterations =  3.0

     Threshold (ethr) on eigenvalues was too large:
     Diagonalizing with lowered threshold

     Davidson diagonalization with overlap
     ethr =  3.98E-04,  avg # of iterations =  5.0

     negative rho (up, down):  8.940E-04 0.000E+00

     total cpu time spent up to now is        0.8 secs

     total energy              =    -329.38364605 Ry
     Harris-Foulkes estimate   =    -329.54600139 Ry
     estimated scf accuracy    <       0.27252385 Ry

     iteration #  2     ecut=    30.00 Ry     beta=0.70
     Davidson diagonalization with overlap
     ethr =  4.95E-04,  avg # of iterations =  3.0

     negative rho (up, down):  3.683E-04 0.000E+00

     total cpu time spent up to now is        1.1 secs

     total energy              =    -329.43333902 Ry
     Harris-Foulkes estimate   =    -329.54666071 Ry
     estimated scf accuracy    <       0.22445078 Ry

     iteration #  3     ecut=    30.00 Ry     beta=0.70
     Davidson diagonalization with overlap
     ethr =  4.08E-04,  avg # of iterations =  2.0

     negative rho (up, down):  1.376E-04 0.000E+00

     total cpu time spent up to now is        1.3 secs

     total energy              =    -329.47914582 Ry
     Harris-Foulkes estimate   =    -329.49508385 Ry
     estimated scf accuracy    <       0.03767561 Ry

     iteration #  4     ecut=    30.00 Ry     beta=0.70
     Davidson diagonalization with overlap
     ethr =  6.85E-05,  avg # of iterations =  5.0

     negative rho (up, down):  3.817E-06 0.000E+00

     total cpu time spent up to now is        1.6 secs

     total energy              =    -329.48714608 Ry
     Harris-Foulkes estimate   =    -329.48846844 Ry
     estimated scf accuracy    <       0.00347681 Ry

     iteration #  5     ecut=    30.00 Ry     beta=0.70
     Davidson diagonalization with overlap
     ethr =  6.32E-06,  avg # of iterations =  4.0

     total cpu time spent up to now is        1.9 secs

     total energy              =    -329.48776223 Ry
     Harris-Foulkes estimate   =    -329.48846751 Ry
     estimated scf accuracy    <       0.00179015 Ry

     iteration #  6     ecut=    30.00 Ry     beta=0.70
     Davidson diagonalization with overlap
     ethr =  3.25E-06,  avg # of iterations =  3.0

     total cpu time spent up to now is        2.1 secs

     total energy              =    -329.48808718 Ry
     Harris-Foulkes estimate   =    -329.48818131 Ry
     estimated scf accuracy    <       0.00023470 Ry

     iteration #  7     ecut=    30.00 Ry     beta=0.70
     Davidson diagonalization with overlap
     ethr =  4.27E-07,  avg # of iterations =  2.0

     total cpu time spent up to now is        2.4 secs

     total energy              =    -329.48813610 Ry
     Harris-Foulkes estimate   =    -329.48814182 Ry
     estimated scf accuracy    <       0.00001220 Ry

     iteration #  8     ecut=    30.00 Ry     beta=0.70
     Davidson diagonalization with overlap
     ethr =  2.22E-08,  avg # of iterations =  2.0

     total cpu time spent up to now is        2.7 secs

     total energy              =    -329.48813869 Ry
     Harris-Foulkes estimate   =    -329.48814074 Ry
     estimated scf accuracy    <       0.00000409 Ry

     iteration #  9     ecut=    30.00 Ry     beta=0.70
     Davidson diagonalization with overlap
     ethr =  7.44E-09,  avg # of iterations =  2.0

     total cpu time spent up to now is        2.9 secs

     total energy              =    -329.48813935 Ry
     Harris-Foulkes estimate   =    -329.48813972 Ry
     estimated scf accuracy    <       0.00000056 Ry

     iteration # 10     ecut=    30.00 Ry     beta=0.70
     Davidson diagonalization with overlap
     ethr =  1.03E-09,  avg # of iterations =  2.0

     total cpu time spent up to now is        3.2 secs

     total energy              =    -329.48813937 Ry
     Harris-Foulkes estimate   =    -329.48813958 Ry
     estimated scf accuracy    <       0.00000031 Ry

     iteration # 11     ecut=    30.00 Ry     beta=0.70
     Davidson diagonalization with overlap
     ethr =  5.70E-10,  avg # of iterations =  2.0

     total cpu time spent up to now is        3.4 secs

     End of self-consistent calculation

          k = 0.0000 0.0000 0.0000 ( 22119 PWs)   bands (ev):

    -8.4606  -7.7515  -7.7247  -7.1698  -6.7699  -6.6908  -6.5534  -6.5115
    -6.2594  -6.0985  -5.8465  -5.7586  -5.6772  -5.6314  -5.5218  -5.3388
    -5.3007  -5.2819  -5.1931  -5.1781  -5.1647  -5.1085  -5.0378  -4.9687
    -4.8168  -4.7273  -4.5537  -3.7624  -2.5337  -2.2478  -0.5497  -0.1166
     0.4620   0.8466

     the Fermi energy is    -3.7218 ev

!    total energy              =    -329.48813940 Ry
     Harris-Foulkes estimate   =    -329.48813943 Ry
     estimated scf accuracy    <          6.4E-09 Ry

     The total energy is the sum of the following terms:

     one-electron contribution =    -603.78221267 Ry
     hartree contribution      =     323.33944554 Ry
     xc contribution           =     -51.37970964 Ry
     ewald contribution        =       2.34055965 Ry
     smearing contrib. (-TS)   =      -0.00622228 Ry

     convergence has been achieved in  11 iterations

     Forces acting on atoms (Ry/au):

     atom    1 type  1   force =     0.01278741    0.00457042    0.01014772
     atom    2 type  1   force =     0.00344651   -0.00062069   -0.00234950
     atom    3 type  1   force =     0.00070245   -0.00813154   -0.01170097
     atom    4 type  1   force =    -0.00148624    0.00119371    0.00513475
     atom    5 type  1   force =    -0.01545012    0.00298810   -0.00123200

     Total force =     0.028069     Total SCF correction =     0.000361

     BFGS Geometry Optimization

     number of scf cycles    =   1
     number of bfgs steps    =   0

     energy   new            =    -329.4881393991 Ry

     new trust radius        =       0.0169523700 bohr
     new conv_thr            =       0.0000000100 Ry


ATOMIC_POSITIONS (bohr)
Au      -1.747100591   1.852090417  -1.064311276
Au      -0.946069494   3.783875314   3.750856501
Au       3.027000447   1.692142458   0.815962032
Au       3.960161761   3.359288711   5.644961747
Au       7.766882878   1.187744100   2.813264996



     Writing output data file pwscf.save
     Check: negative starting charge=   -0.006502
     NEW-OLD atomic charge density approx. for the potential
     Check: negative starting charge=   -0.006501

     negative rho (up, down):  4.353E-05 0.000E+00

     total cpu time spent up to now is        3.7 secs

     per-process dynamical memory:    42.9 Mb

     Self-consistent Calculation

     iteration #  1     ecut=    30.00 Ry     beta=0.70
     Davidson diagonalization with overlap
     ethr =  1.00E-06,  avg # of iterations =  4.0

     Threshold (ethr) on eigenvalues was too large:
     Diagonalizing with lowered threshold

     Davidson diagonalization with overlap
     ethr =  9.77E-08,  avg # of iterations =  1.0

     negative rho (up, down):  1.926E-07 0.000E+00

     total cpu time spent up to now is        4.2 secs

     total energy              =    -329.48885794 Ry
     Harris-Foulkes estimate   =    -329.48886508 Ry
     estimated scf accuracy    <       0.00005448 Ry

     iteration #  2     ecut=    30.00 Ry     beta=0.70
     Davidson diagonalization with overlap
     ethr =  9.90E-08,  avg # of iterations =  3.0

     negative rho (up, down):  2.385E-08 0.000E+00

     total cpu time spent up to now is        4.5 secs

     total energy              =    -329.48885117 Ry
     Harris-Foulkes estimate   =    -329.48890664 Ry
     estimated scf accuracy    <       0.00013780 Ry

     iteration #  3     ecut=    30.00 Ry     beta=0.70
     Davidson diagonalization with overlap
     ethr =  9.90E-08,  avg # of iterations =  3.0

     total cpu time spent up to now is        4.7 secs

     total energy              =    -329.48887866 Ry
     Harris-Foulkes estimate   =    -329.48888238 Ry
     estimated scf accuracy    <       0.00001069 Ry

     iteration #  4     ecut=    30.00 Ry     beta=0.70
     Davidson diagonalization with overlap
     ethr =  1.94E-08,  avg # of iterations =  2.0

     total cpu time spent up to now is        4.9 secs

     total energy              =    -329.48888027 Ry
     Harris-Foulkes estimate   =    -329.48888145 Ry
     estimated scf accuracy    <       0.00000220 Ry

     iteration #  5     ecut=    30.00 Ry     beta=0.70
     Davidson diagonalization with overlap
     ethr =  4.00E-09,  avg # of iterations =  2.0

     total cpu time spent up to now is        5.2 secs

     total energy              =    -329.48888056 Ry
     Harris-Foulkes estimate   =    -329.48888097 Ry
     estimated scf accuracy    <       0.00000064 Ry

     iteration #  6     ecut=    30.00 Ry     beta=0.70
     Davidson diagonalization with overlap
     ethr =  1.16E-09,  avg # of iterations =  2.0

     total cpu time spent up to now is        5.4 secs

     total energy              =    -329.48888069 Ry
     Harris-Foulkes estimate   =    -329.48888070 Ry
     estimated scf accuracy    <       0.00000002 Ry

     iteration #  7     ecut=    30.00 Ry     beta=0.70
     Davidson diagonalization with overlap
     ethr =  4.52E-11,  avg # of iterations =  3.0

     total cpu time spent up to now is        5.6 secs

     End of self-consistent calculation

          k = 0.0000 0.0000 0.0000 ( 22119 PWs)   bands (ev):

    -8.4720  -7.7610  -7.7142  -7.1777  -6.7784  -6.7053  -6.5480  -6.5234
    -6.2639  -6.1028  -5.8597  -5.7596  -5.6850  -5.6395  -5.5213  -5.3369
    -5.2997  -5.2832  -5.1939  -5.1796  -5.1649  -5.1093  -5.0339  -4.9661
    -4.8144  -4.7291  -4.5488  -3.7605  -2.5263  -2.2435  -0.5503  -0.1218
     0.4654   0.8484

     the Fermi energy is    -3.7201 ev

!    total energy              =    -329.48888064 Ry
     Harris-Foulkes estimate   =    -329.48888070 Ry
     estimated scf accuracy    <          8.9E-09 Ry

     The total energy is the sum of the following terms:

     one-electron contribution =    -604.43006934 Ry
     hartree contribution      =     323.65939240 Ry
     xc contribution           =     -51.38195410 Ry
     ewald contribution        =       2.66993867 Ry
     smearing contrib. (-TS)   =      -0.00618827 Ry

     convergence has been achieved in   7 iterations

     Forces acting on atoms (Ry/au):

     atom    1 type  1   force =     0.01097484    0.00427057    0.00834432
     atom    2 type  1   force =     0.00365886   -0.00026258   -0.00148123
     atom    3 type  1   force =     0.00147840   -0.00765035   -0.01020909
     atom    4 type  1   force =    -0.00212581    0.00105587    0.00451406
     atom    5 type  1   force =    -0.01398629    0.00258649   -0.00116807

     Total force =     0.024871     Total SCF correction =     0.000419

     number of scf cycles    =   2
     number of bfgs steps    =   1

     energy   old            =    -329.4881393991 Ry
     energy   new            =    -329.4888806405 Ry

     CASE: energy  _new < energy  _old


     WARNING: bfgs curvature condition failed, Theta= 0.905
     new trust radius        =       0.0186476070 bohr
     new conv_thr            =       0.0000000007 Ry


ATOMIC_POSITIONS (bohr)
Au      -1.732938768   1.857526850  -1.053465944
Au      -0.941497722   3.783478835   3.748830905
Au       3.028721307   1.682413821   0.802823905
Au       3.957600096   3.360644500   5.650763777
Au       7.748990087   1.191076993   2.811781358



     Writing output data file pwscf.save
     Check: negative starting charge=   -0.006501
     NEW-OLD atomic charge density approx. for the potential
     Check: negative starting charge=   -0.006498

     negative rho (up, down):  6.375E-05 0.000E+00

     total cpu time spent up to now is        5.9 secs

     per-process dynamical memory:    50.6 Mb

     Self-consistent Calculation

     iteration #  1     ecut=    30.00 Ry     beta=0.70
     Davidson diagonalization with overlap
     ethr =  1.00E-06,  avg # of iterations =  4.0

     negative rho (up, down):  4.231E-07 0.000E+00

     total cpu time spent up to now is        6.3 secs

     total energy              =    -329.48958769 Ry
     Harris-Foulkes estimate   =    -329.48959428 Ry
     estimated scf accuracy    <       0.00006799 Ry

     iteration #  2     ecut=    30.00 Ry     beta=0.70
     Davidson diagonalization with overlap
     ethr =  1.24E-07,  avg # of iterations =  3.0

     negative rho (up, down):  5.664E-08 0.000E+00

     total cpu time spent up to now is        6.5 secs

     total energy              =    -329.48958117 Ry
     Harris-Foulkes estimate   =    -329.48964553 Ry
     estimated scf accuracy    <       0.00015672 Ry

     iteration #  3     ecut=    30.00 Ry     beta=0.70
     Davidson diagonalization with overlap
     ethr =  1.24E-07,  avg # of iterations =  2.0

     total cpu time spent up to now is        6.7 secs

     total energy              =    -329.48961411 Ry
     Harris-Foulkes estimate   =    -329.48961824 Ry
     estimated scf accuracy    <       0.00001456 Ry

     iteration #  4     ecut=    30.00 Ry     beta=0.70
     Davidson diagonalization with overlap
     ethr =  2.65E-08,  avg # of iterations =  2.0

     total cpu time spent up to now is        7.0 secs

     total energy              =    -329.48961576 Ry
     Harris-Foulkes estimate   =    -329.48961779 Ry
     estimated scf accuracy    <       0.00000261 Ry

     iteration #  5     ecut=    30.00 Ry     beta=0.70
     Davidson diagonalization with overlap
     ethr =  4.74E-09,  avg # of iterations =  2.0

     total cpu time spent up to now is        7.2 secs

     total energy              =    -329.48961612 Ry
     Harris-Foulkes estimate   =    -329.48961662 Ry
     estimated scf accuracy    <       0.00000085 Ry

     iteration #  6     ecut=    30.00 Ry     beta=0.70
     Davidson diagonalization with overlap
     ethr =  1.55E-09,  avg # of iterations =  2.0

     total cpu time spent up to now is        7.4 secs

     total energy              =    -329.48961614 Ry
     Harris-Foulkes estimate   =    -329.48961631 Ry
     estimated scf accuracy    <       0.00000003 Ry

     iteration #  7     ecut=    30.00 Ry     beta=0.70
     Davidson diagonalization with overlap
     ethr =  5.82E-11,  avg # of iterations =  3.0

     total cpu time spent up to now is        7.7 secs

     total energy              =    -329.48961608 Ry
     Harris-Foulkes estimate   =    -329.48961616 Ry
     estimated scf accuracy    <       0.00000001 Ry

     iteration #  8     ecut=    30.00 Ry     beta=0.70
     Davidson diagonalization with overlap
     ethr =  2.04E-11,  avg # of iterations =  2.0

     total cpu time spent up to now is        7.9 secs

     total energy              =    -329.48961609 Ry
     Harris-Foulkes estimate   =    -329.48961609 Ry
     estimated scf accuracy    <          2.8E-09 Ry

     iteration #  9     ecut=    30.00 Ry     beta=0.70
     Davidson diagonalization with overlap
     ethr =  5.16E-12,  avg # of iterations =  2.0

     total cpu time spent up to now is        8.1 secs

     End of self-consistent calculation

          k = 0.0000 0.0000 0.0000 ( 22119 PWs)   bands (ev):

    -8.4854  -7.7712  -7.7036  -7.1868  -6.7888  -6.7219  -6.5478  -6.5306
    -6.2687  -6.1067  -5.8740  -5.7612  -5.6937  -5.6482  -5.5194  -5.3356
    -5.2982  -5.2842  -5.1948  -5.1811  -5.1652  -5.1100  -5.0292  -4.9628
    -4.8134  -4.7298  -4.5427  -3.7590  -2.5175  -2.2385  -0.5510  -0.1280
     0.4697   0.8507

     the Fermi energy is    -3.7189 ev

!    total energy              =    -329.48961609 Ry
     Harris-Foulkes estimate   =    -329.48961609 Ry
     estimated scf accuracy    <          2.7E-10 Ry

     The total energy is the sum of the following terms:

     one-electron contribution =    -605.15915403 Ry
     hartree contribution      =     324.01990243 Ry
     xc contribution           =     -51.38459774 Ry
     ewald contribution        =       3.04035799 Ry
     smearing contrib. (-TS)   =      -0.00612474 Ry

     convergence has been achieved in   9 iterations

     Forces acting on atoms (Ry/au):

     atom    1 type  1   force =     0.00881414    0.00398628    0.00646576
     atom    2 type  1   force =     0.00387751    0.00014283   -0.00061013
     atom    3 type  1   force =     0.00222161   -0.00710169   -0.00870454
     atom    4 type  1   force =    -0.00276862    0.00095147    0.00390158
     atom    5 type  1   force =    -0.01214465    0.00202111   -0.00105266

     Total force =     0.021411     Total SCF correction =     0.000068

     number of scf cycles    =   3
     number of bfgs steps    =   2

     energy   old            =    -329.4888806405 Ry
     energy   new            =    -329.4896160876 Ry

     CASE: energy  _new < energy  _old

     new trust radius        =       0.0279714106 bohr
     new conv_thr            =       0.0000000007 Ry


ATOMIC_POSITIONS (bohr)
Au      -1.712387882   1.866339602  -1.038103378
Au      -0.933313019   3.783487068   3.746840835
Au       3.032918745   1.666712048   0.782908876
Au       3.952134557   3.362786111   5.659646621
Au       7.721522598   1.195816171   2.809441046



     Writing output data file pwscf.save
     Check: negative starting charge=   -0.006498
     NEW-OLD atomic charge density approx. for the potential
     Check: negative starting charge=   -0.006492

     negative rho (up, down):  1.914E-04 0.000E+00

     total cpu time spent up to now is        8.3 secs

     per-process dynamical memory:    50.6 Mb

     Self-consistent Calculation

     iteration #  1     ecut=    30.00 Ry     beta=0.70
     Davidson diagonalization with overlap
     ethr =  1.00E-06,  avg # of iterations =  4.0

     negative rho (up, down):  3.597E-06 0.000E+00

     total cpu time spent up to now is        8.7 secs

     total energy              =    -329.49046166 Ry
     Harris-Foulkes estimate   =    -329.49045639 Ry
     estimated scf accuracy    <       0.00015178 Ry

     iteration #  2     ecut=    30.00 Ry     beta=0.70
     Davidson diagonalization with overlap
     ethr =  2.76E-07,  avg # of iterations =  3.0

     negative rho (up, down):  7.110E-07 0.000E+00

     total cpu time spent up to now is        9.0 secs

     total energy              =    -329.49045165 Ry
     Harris-Foulkes estimate   =    -329.49058321 Ry
     estimated scf accuracy    <       0.00031238 Ry

     iteration #  3     ecut=    30.00 Ry     beta=0.70
     Davidson diagonalization with overlap
     ethr =  2.76E-07,  avg # of iterations =  2.0

     total cpu time spent up to now is        9.2 secs

     total energy              =    -329.49051817 Ry
     Harris-Foulkes estimate   =    -329.49052921 Ry
     estimated scf accuracy    <       0.00003584 Ry

     iteration #  4     ecut=    30.00 Ry     beta=0.70
     Davidson diagonalization with overlap
     ethr =  6.52E-08,  avg # of iterations =  2.0

     total cpu time spent up to now is        9.4 secs

     total energy              =    -329.49052462 Ry
     Harris-Foulkes estimate   =    -329.49052716 Ry
     estimated scf accuracy    <       0.00000608 Ry

     iteration #  5     ecut=    30.00 Ry     beta=0.70
     Davidson diagonalization with overlap
     ethr =  1.11E-08,  avg # of iterations =  2.0

     total cpu time spent up to now is        9.6 secs

     total energy              =    -329.49052534 Ry
     Harris-Foulkes estimate   =    -329.49052661 Ry
     estimated scf accuracy    <       0.00000196 Ry

     iteration #  6     ecut=    30.00 Ry     beta=0.70
     Davidson diagonalization with overlap
     ethr =  3.56E-09,  avg # of iterations =  2.0

     total cpu time spent up to now is        9.9 secs

     total energy              =    -329.49052568 Ry
     Harris-Foulkes estimate   =    -329.49052576 Ry
     estimated scf accuracy    <       0.00000008 Ry

     iteration #  7     ecut=    30.00 Ry     beta=0.70
     Davidson diagonalization with overlap
     ethr =  1.44E-10,  avg # of iterations =  2.0

     total cpu time spent up to now is       10.1 secs

     total energy              =    -329.49052562 Ry
     Harris-Foulkes estimate   =    -329.49052571 Ry
     estimated scf accuracy    <       0.00000002 Ry

     iteration #  8     ecut=    30.00 Ry     beta=0.70
     Davidson diagonalization with overlap
     ethr =  4.49E-11,  avg # of iterations =  2.0

     total cpu time spent up to now is       10.4 secs

     total energy              =    -329.49052558 Ry
     Harris-Foulkes estimate   =    -329.49052563 Ry
     estimated scf accuracy    <          7.0E-09 Ry

     iteration #  9     ecut=    30.00 Ry     beta=0.70
     Davidson diagonalization with overlap
     ethr =  1.28E-11,  avg # of iterations =  2.0

     total cpu time spent up to now is       10.5 secs

     End of self-consistent calculation

          k = 0.0000 0.0000 0.0000 ( 22119 PWs)   bands (ev):

    -8.5053  -7.7851  -7.6899  -7.2002  -6.8046  -6.7474  -6.5628  -6.5249
    -6.2756  -6.1109  -5.8944  -5.7645  -5.7065  -5.6604  -5.5140  -5.3357
    -5.2964  -5.2837  -5.1964  -5.1831  -5.1658  -5.1113  -5.0210  -4.9575
    -4.8150  -4.7287  -4.5326  -3.7582  -2.5038  -2.2309  -0.5519  -0.1378
     0.4767   0.8546

     the Fermi energy is    -3.7187 ev

!    total energy              =    -329.49052554 Ry
     Harris-Foulkes estimate   =    -329.49052558 Ry
     estimated scf accuracy    <          7.2E-10 Ry

     The total energy is the sum of the following terms:

     one-electron contribution =    -606.22922421 Ry
     hartree contribution      =     324.54915066 Ry
     xc contribution           =     -51.38878433 Ry
     ewald contribution        =       3.58430988 Ry
     smearing contrib. (-TS)   =      -0.00597754 Ry

     convergence has been achieved in   9 iterations

     Forces acting on atoms (Ry/au):

     atom    1 type  1   force =     0.00538703    0.00358476    0.00387578
     atom    2 type  1   force =     0.00404877    0.00073908    0.00042616
     atom    3 type  1   force =     0.00305883   -0.00621623   -0.00666556
     atom    4 type  1   force =    -0.00345403    0.00081618    0.00315624
     atom    5 type  1   force =    -0.00904060    0.00107622   -0.00079262

     Total force =     0.016508     Total SCF correction =     0.000110

     number of scf cycles    =   4
     number of bfgs steps    =   3

     energy   old            =    -329.4896160876 Ry
     energy   new            =    -329.4905255423 Ry

     CASE: energy  _new < energy  _old

     new trust radius        =       0.0419571159 bohr
     new conv_thr            =       0.0000000009 Ry


ATOMIC_POSITIONS (bohr)
Au      -1.683594463   1.880742567  -1.016631832
Au      -0.918889930   3.784648384   3.745407229
Au       3.041756536   1.641377938   0.752537991
Au       3.941404852   3.366213928   5.673508928
Au       7.680198004   1.202158184   2.805911684



     Writing output data file pwscf.save
     Check: negative starting charge=   -0.006492
     NEW-OLD atomic charge density approx. for the potential
     Check: negative starting charge=   -0.006478

     negative rho (up, down):  4.701E-04 0.000E+00

     total cpu time spent up to now is       10.8 secs

     per-process dynamical memory:    50.7 Mb

     Self-consistent Calculation

     iteration #  1     ecut=    30.00 Ry     beta=0.70
     Davidson diagonalization with overlap
     ethr =  1.00E-06,  avg # of iterations =  5.0

     negative rho (up, down):  1.814E-05 0.000E+00

     total cpu time spent up to now is       11.2 secs

     total energy              =    -329.49129214 Ry
     Harris-Foulkes estimate   =    -329.49115004 Ry
     estimated scf accuracy    <       0.00034227 Ry

     iteration #  2     ecut=    30.00 Ry     beta=0.70
     Davidson diagonalization with overlap
     ethr =  6.22E-07,  avg # of iterations = 12.0

     negative rho (up, down):  4.802E-06 0.000E+00

     total cpu time spent up to now is       11.6 secs

     total energy              =    -329.49127901 Ry
     Harris-Foulkes estimate   =    -329.49155364 Ry
     estimated scf accuracy    <       0.00064268 Ry

     iteration #  3     ecut=    30.00 Ry     beta=0.70
     Davidson diagonalization with overlap
     ethr =  6.22E-07,  avg # of iterations =  2.0

     negative rho (up, down):  8.956E-08 0.000E+00

     total cpu time spent up to now is       11.8 secs

     total energy              =    -329.49141774 Ry
     Harris-Foulkes estimate   =    -329.49144546 Ry
     estimated scf accuracy    <       0.00008900 Ry

     iteration #  4     ecut=    30.00 Ry     beta=0.70
     Davidson diagonalization with overlap
     ethr =  1.62E-07,  avg # of iterations =  2.0

     total cpu time spent up to now is       12.1 secs

     total energy              =    -329.49143476 Ry
     Harris-Foulkes estimate   =    -329.49143973 Ry
     estimated scf accuracy    <       0.00001391 Ry

     iteration #  5     ecut=    30.00 Ry     beta=0.70
     Davidson diagonalization with overlap
     ethr =  2.53E-08,  avg # of iterations =  3.0

     total cpu time spent up to now is       12.3 secs

     total energy              =    -329.49143730 Ry
     Harris-Foulkes estimate   =    -329.49143931 Ry
     estimated scf accuracy    <       0.00000464 Ry

     iteration #  6     ecut=    30.00 Ry     beta=0.70
     Davidson diagonalization with overlap
     ethr =  8.44E-09,  avg # of iterations =  2.0

     total cpu time spent up to now is       12.5 secs

     total energy              =    -329.49143819 Ry
     Harris-Foulkes estimate   =    -329.49143827 Ry
     estimated scf accuracy    <       0.00000017 Ry

     iteration #  7     ecut=    30.00 Ry     beta=0.70
     Davidson diagonalization with overlap
     ethr =  3.11E-10,  avg # of iterations =  3.0

     total cpu time spent up to now is       12.8 secs

     total energy              =    -329.49143812 Ry
     Harris-Foulkes estimate   =    -329.49143826 Ry
     estimated scf accuracy    <       0.00000006 Ry

     iteration #  8     ecut=    30.00 Ry     beta=0.70
     Davidson diagonalization with overlap
     ethr =  1.08E-10,  avg # of iterations =  2.0

     total cpu time spent up to now is       13.1 secs

     total energy              =    -329.49143809 Ry
     Harris-Foulkes estimate   =    -329.49143814 Ry
     estimated scf accuracy    <       0.00000002 Ry

     iteration #  9     ecut=    30.00 Ry     beta=0.70
     Davidson diagonalization with overlap
     ethr =  2.96E-11,  avg # of iterations =  2.0

     total cpu time spent up to now is       13.3 secs

     total energy              =    -329.49143809 Ry
     Harris-Foulkes estimate   =    -329.49143810 Ry
     estimated scf accuracy    <          1.4E-09 Ry

     iteration # 10     ecut=    30.00 Ry     beta=0.70
     Davidson diagonalization with overlap
     ethr =  2.54E-12,  avg # of iterations =  2.0

     total cpu time spent up to now is       13.6 secs

     End of self-consistent calculation

          k = 0.0000 0.0000 0.0000 ( 22119 PWs)   bands (ev):

    -8.5336  -7.8027  -7.6740  -7.2175  -6.8277  -6.7865  -6.5883  -6.5123
    -6.2849  -6.1136  -5.9226  -5.7715  -5.7246  -5.6757  -5.4998  -5.3394
    -5.2982  -5.2756  -5.1988  -5.1853  -5.1670  -5.1132  -5.0072  -4.9487
    -4.8223  -4.7245  -4.5156  -3.7596  -2.4826  -2.2194  -0.5532  -0.1532
     0.4882   0.8503

     the Fermi energy is    -3.7215 ev

!    total energy              =    -329.49143811 Ry
     Harris-Foulkes estimate   =    -329.49143809 Ry
     estimated scf accuracy    <          1.9E-10 Ry

     The total energy is the sum of the following terms:

     one-electron contribution =    -607.73640882 Ry
     hartree contribution      =     325.29553140 Ry
     xc contribution           =     -51.39531777 Ry
     ewald contribution        =       4.35039351 Ry
     smearing contrib. (-TS)   =      -0.00563643 Ry

     convergence has been achieved in  10 iterations

     Forces acting on atoms (Ry/au):

     atom    1 type  1   force =     0.00033566    0.00288846    0.00018725
     atom    2 type  1   force =     0.00416329    0.00133927    0.00128051
     atom    3 type  1   force =     0.00383386   -0.00445883   -0.00326770
     atom    4 type  1   force =    -0.00370904    0.00034657    0.00207149
     atom    5 type  1   force =    -0.00462376   -0.00011548   -0.00027155

     Total force =     0.010684     Total SCF correction =     0.000063

     number of scf cycles    =   5
     number of bfgs steps    =   4

     energy   old            =    -329.4905255423 Ry
     energy   new            =    -329.4914381104 Ry

     CASE: energy  _new < energy  _old

     new trust radius        =       0.0486287830 bohr
     new conv_thr            =       0.0000000005 Ry


ATOMIC_POSITIONS (bohr)
Au      -1.655438233   1.899194804  -0.995509564
Au      -0.898465649   3.787775766   3.745653523
Au       3.056067455   1.610097947   0.718164770
Au       3.925602663   3.369956738   5.690242602
Au       7.633108764   1.208115744   2.802182669



     Writing output data file pwscf.save
     Check: negative starting charge=   -0.006478
     NEW-OLD atomic charge density approx. for the potential
     Check: negative starting charge=   -0.006456

     negative rho (up, down):  6.190E-04 0.000E+00

     total cpu time spent up to now is       13.8 secs

     per-process dynamical memory:    50.7 Mb

     Self-consistent Calculation

     iteration #  1     ecut=    30.00 Ry     beta=0.70
     Davidson diagonalization with overlap
     ethr =  1.00E-06,  avg # of iterations =  5.0

     negative rho (up, down):  2.909E-05 0.000E+00

     total cpu time spent up to now is       14.2 secs

     total energy              =    -329.49168969 Ry
     Harris-Foulkes estimate   =    -329.49142284 Ry
     estimated scf accuracy    <       0.00043899 Ry

     iteration #  2     ecut=    30.00 Ry     beta=0.70
     Davidson diagonalization with overlap
     ethr =  7.98E-07,  avg # of iterations =  4.0

     negative rho (up, down):  7.558E-06 0.000E+00

     total cpu time spent up to now is       14.5 secs

     total energy              =    -329.49168983 Ry
     Harris-Foulkes estimate   =    -329.49199400 Ry
     estimated scf accuracy    <       0.00069311 Ry

     iteration #  3     ecut=    30.00 Ry     beta=0.70
     Davidson diagonalization with overlap
     ethr =  7.98E-07,  avg # of iterations =  2.0

     negative rho (up, down):  1.914E-07 0.000E+00

     total cpu time spent up to now is       14.8 secs

     total energy              =    -329.49184213 Ry
     Harris-Foulkes estimate   =    -329.49188263 Ry
     estimated scf accuracy    <       0.00012394 Ry

     iteration #  4     ecut=    30.00 Ry     beta=0.70
     Davidson diagonalization with overlap
     ethr =  2.25E-07,  avg # of iterations =  2.0

     total cpu time spent up to now is       15.0 secs

     total energy              =    -329.49186620 Ry
     Harris-Foulkes estimate   =    -329.49187254 Ry
     estimated scf accuracy    <       0.00001816 Ry

     iteration #  5     ecut=    30.00 Ry     beta=0.70
     Davidson diagonalization with overlap
     ethr =  3.30E-08,  avg # of iterations =  3.0

     total cpu time spent up to now is       15.2 secs

     total energy              =    -329.49186953 Ry
     Harris-Foulkes estimate   =    -329.49187187 Ry
     estimated scf accuracy    <       0.00000522 Ry

     iteration #  6     ecut=    30.00 Ry     beta=0.70
     Davidson diagonalization with overlap
     ethr =  9.49E-09,  avg # of iterations =  2.0

     total cpu time spent up to now is       15.5 secs

     total energy              =    -329.49186996 Ry
     Harris-Foulkes estimate   =    -329.49187065 Ry
     estimated scf accuracy    <       0.00000021 Ry

     iteration #  7     ecut=    30.00 Ry     beta=0.70
     Davidson diagonalization with overlap
     ethr =  3.73E-10,  avg # of iterations =  3.0

     total cpu time spent up to now is       15.7 secs

     total energy              =    -329.49186989 Ry
     Harris-Foulkes estimate   =    -329.49187005 Ry
     estimated scf accuracy    <       0.00000006 Ry

     iteration #  8     ecut=    30.00 Ry     beta=0.70
     Davidson diagonalization with overlap
     ethr =  1.06E-10,  avg # of iterations =  2.0

     total cpu time spent up to now is       16.0 secs

     total energy              =    -329.49186981 Ry
     Harris-Foulkes estimate   =    -329.49186991 Ry
     estimated scf accuracy    <       0.00000002 Ry

     iteration #  9     ecut=    30.00 Ry     beta=0.70
     Davidson diagonalization with overlap
     ethr =  2.78E-11,  avg # of iterations =  2.0

     total cpu time spent up to now is       16.3 secs

     total energy              =    -329.49186980 Ry
     Harris-Foulkes estimate   =    -329.49186981 Ry
     estimated scf accuracy    <          2.7E-09 Ry

     iteration # 10     ecut=    30.00 Ry     beta=0.70
     Davidson diagonalization with overlap
     ethr =  4.94E-12,  avg # of iterations =  2.0

     total cpu time spent up to now is       16.5 secs

     End of self-consistent calculation

          k = 0.0000 0.0000 0.0000 ( 22119 PWs)   bands (ev):

    -8.5612  -7.8171  -7.6651  -7.2306  -6.8514  -6.8318  -6.6128  -6.5005
    -6.2943  -6.1123  -5.9496  -5.7820  -5.7420  -5.6885  -5.4751  -5.3471
    -5.3039  -5.2606  -5.2017  -5.1858  -5.1686  -5.1161  -4.9896  -4.9369
    -4.8331  -4.7188  -4.4934  -3.7654  -2.4580  -2.2060  -0.5542  -0.1714
     0.5019   0.8564

     the Fermi energy is    -3.7298 ev

!    total energy              =    -329.49186980 Ry
     Harris-Foulkes estimate   =    -329.49186980 Ry
     estimated scf accuracy    <          1.8E-10 Ry

     The total energy is the sum of the following terms:

     one-electron contribution =    -609.27983010 Ry
     hartree contribution      =     326.06205730 Ry
     xc contribution           =     -51.40311895 Ry
     ewald contribution        =       5.13404615 Ry
     smearing contrib. (-TS)   =      -0.00502420 Ry

     convergence has been achieved in  10 iterations

     Forces acting on atoms (Ry/au):

     atom    1 type  1   force =    -0.00424324    0.00198081   -0.00309235
     atom    2 type  1   force =     0.00403630    0.00170572    0.00153612
     atom    3 type  1   force =     0.00254740   -0.00203972   -0.00077058
     atom    4 type  1   force =    -0.00250641   -0.00042384    0.00141211
     atom    5 type  1   force =     0.00016595   -0.00122297    0.00091470

     Total force =     0.008667     Total SCF correction =     0.000060

     number of scf cycles    =   6
     number of bfgs steps    =   5

     energy   old            =    -329.4914381104 Ry
     energy   new            =    -329.4918698029 Ry

     CASE: energy  _new < energy  _old

     new trust radius        =       0.0121089926 bohr
     new conv_thr            =       0.0000000004 Ry


ATOMIC_POSITIONS (bohr)
Au      -1.654316549   1.904776520  -0.994482808
Au      -0.890424699   3.790069987   3.747073715
Au       3.061079320   1.602089193   0.710590553
Au       3.920293772   3.370179289   5.695029196
Au       7.624243156   1.208026011   2.802523343



     Writing output data file pwscf.save
     Check: negative starting charge=   -0.006456
     NEW-OLD atomic charge density approx. for the potential
     Check: negative starting charge=   -0.006448

     negative rho (up, down):  1.269E-05 0.000E+00

     total cpu time spent up to now is       16.8 secs

     per-process dynamical memory:    50.7 Mb

     Self-consistent Calculation

     iteration #  1     ecut=    30.00 Ry     beta=0.70
     Davidson diagonalization with overlap
     ethr =  1.00E-06,  avg # of iterations =  4.0

     Threshold (ethr) on eigenvalues was too large:
     Diagonalizing with lowered threshold

     Davidson diagonalization with overlap
     ethr =  4.09E-08,  avg # of iterations =  2.0

     negative rho (up, down):  1.156E-08 0.000E+00

     total cpu time spent up to now is       17.3 secs

     total energy              =    -329.49194307 Ry
     Harris-Foulkes estimate   =    -329.49194492 Ry
     estimated scf accuracy    <       0.00002313 Ry

     iteration #  2     ecut=    30.00 Ry     beta=0.70
     Davidson diagonalization with overlap
     ethr =  4.21E-08,  avg # of iterations =  2.0

     total cpu time spent up to now is       17.6 secs

     total energy              =    -329.49194372 Ry
     Harris-Foulkes estimate   =    -329.49195656 Ry
     estimated scf accuracy    <       0.00002659 Ry

     iteration #  3     ecut=    30.00 Ry     beta=0.70
     Davidson diagonalization with overlap
     ethr =  4.21E-08,  avg # of iterations =  2.0

     total cpu time spent up to now is       17.8 secs

     total energy              =    -329.49194904 Ry
     Harris-Foulkes estimate   =    -329.49195188 Ry
     estimated scf accuracy    <       0.00000671 Ry

     iteration #  4     ecut=    30.00 Ry     beta=0.70
     Davidson diagonalization with overlap
     ethr =  1.22E-08,  avg # of iterations =  2.0

     total cpu time spent up to now is       18.0 secs

     total energy              =    -329.49195059 Ry
     Harris-Foulkes estimate   =    -329.49195088 Ry
     estimated scf accuracy    <       0.00000126 Ry

     iteration #  5     ecut=    30.00 Ry     beta=0.70
     Davidson diagonalization with overlap
     ethr =  2.30E-09,  avg # of iterations =  2.0

     total cpu time spent up to now is       18.3 secs

     total energy              =    -329.49195072 Ry
     Harris-Foulkes estimate   =    -329.49195090 Ry
     estimated scf accuracy    <       0.00000016 Ry

     iteration #  6     ecut=    30.00 Ry     beta=0.70
     Davidson diagonalization with overlap
     ethr =  2.82E-10,  avg # of iterations =  2.0

     total cpu time spent up to now is       18.5 secs

     total energy              =    -329.49195080 Ry
     Harris-Foulkes estimate   =    -329.49195076 Ry
     estimated scf accuracy    <       0.00000002 Ry

     iteration #  7     ecut=    30.00 Ry     beta=0.70
     Davidson diagonalization with overlap
     ethr =  2.84E-11,  avg # of iterations =  2.0

     total cpu time spent up to now is       18.8 secs

     total energy              =    -329.49195083 Ry
     Harris-Foulkes estimate   =    -329.49195081 Ry
     estimated scf accuracy    <          4.6E-09 Ry

     iteration #  8     ecut=    30.00 Ry     beta=0.70
     Davidson diagonalization with overlap
     ethr =  8.44E-12,  avg # of iterations =  2.0

     total cpu time spent up to now is       19.0 secs

     total energy              =    -329.49195084 Ry
     Harris-Foulkes estimate   =    -329.49195083 Ry
     estimated scf accuracy    <          7.7E-10 Ry

     iteration #  9     ecut=    30.00 Ry     beta=0.70
     Davidson diagonalization with overlap
     ethr =  1.41E-12,  avg # of iterations =  3.0

     total cpu time spent up to now is       19.2 secs

     End of self-consistent calculation

          k = 0.0000 0.0000 0.0000 ( 22119 PWs)   bands (ev):

    -8.5600  -7.8138  -7.6652  -7.2308  -6.8519  -6.8407  -6.6124  -6.4969
    -6.2971  -6.1089  -5.9510  -5.7834  -5.7434  -5.6898  -5.4683  -5.3498
    -5.3062  -5.2569  -5.2031  -5.1841  -5.1696  -5.1169  -4.9871  -4.9337
    -4.8343  -4.7200  -4.4884  -3.7690  -2.4542  -2.2037  -0.5538  -0.1758
     0.5034   0.8580

     the Fermi energy is    -3.7344 ev

!    total energy              =    -329.49195084 Ry
     Harris-Foulkes estimate   =    -329.49195084 Ry
     estimated scf accuracy    <          1.3E-10 Ry

     The total energy is the sum of the following terms:

     one-electron contribution =    -609.36221512 Ry
     hartree contribution      =     326.10402859 Ry
     xc contribution           =     -51.40396210 Ry
     ewald contribution        =       5.17500918 Ry
     smearing contrib. (-TS)   =      -0.00481140 Ry

     convergence has been achieved in   9 iterations

     Forces acting on atoms (Ry/au):

     atom    1 type  1   force =    -0.00404421    0.00188892   -0.00293048
     atom    2 type  1   force =     0.00359226    0.00163668    0.00097444
     atom    3 type  1   force =     0.00104720   -0.00149480   -0.00076703
     atom    4 type  1   force =    -0.00167881   -0.00066640    0.00138273
     atom    5 type  1   force =     0.00108357   -0.00136440    0.00134035

     Total force =     0.007679     Total SCF correction =     0.000044

     number of scf cycles    =   7
     number of bfgs steps    =   6

     energy   old            =    -329.4918698029 Ry
     energy   new            =    -329.4919508423 Ry

     CASE: energy  _new < energy  _old

     new trust radius        =       0.0133198919 bohr
     new conv_thr            =            1.0E-10 Ry


ATOMIC_POSITIONS (bohr)
Au      -1.657504102   1.912200646  -0.996525789
Au      -0.878959563   3.794015488   3.749158848
Au       3.066270608   1.592984821   0.702369819
Au       3.913809504   3.369542570   5.701194549
Au       7.617258552   1.206397475   2.804536572



     Writing output data file pwscf.save
     Check: negative starting charge=   -0.006448
     NEW-OLD atomic charge density approx. for the potential
     Check: negative starting charge=   -0.006436

     negative rho (up, down):  2.453E-05 0.000E+00

     total cpu time spent up to now is       19.5 secs

     per-process dynamical memory:    50.7 Mb

     Self-consistent Calculation

     iteration #  1     ecut=    30.00 Ry     beta=0.70
     Davidson diagonalization with overlap
     ethr =  1.00E-06,  avg # of iterations =  4.0

     Threshold (ethr) on eigenvalues was too large:
     Diagonalizing with lowered threshold

     Davidson diagonalization with overlap
     ethr =  6.39E-08,  avg # of iterations =  1.0

     negative rho (up, down):  4.381E-08 0.000E+00

     total cpu time spent up to now is       20.0 secs

     total energy              =    -329.49204083 Ry
     Harris-Foulkes estimate   =    -329.49204655 Ry
     estimated scf accuracy    <       0.00003518 Ry

     iteration #  2     ecut=    30.00 Ry     beta=0.70
     Davidson diagonalization with overlap
     ethr =  6.40E-08,  avg # of iterations =  3.0

     total cpu time spent up to now is       20.3 secs

     total energy              =    -329.49204201 Ry
     Harris-Foulkes estimate   =    -329.49206291 Ry
     estimated scf accuracy    <       0.00004591 Ry

     iteration #  3     ecut=    30.00 Ry     beta=0.70
     Davidson diagonalization with overlap
     ethr =  6.40E-08,  avg # of iterations =  2.0

     total cpu time spent up to now is       20.5 secs

     total energy              =    -329.49205184 Ry
     Harris-Foulkes estimate   =    -329.49205524 Ry
     estimated scf accuracy    <       0.00001011 Ry

     iteration #  4     ecut=    30.00 Ry     beta=0.70
     Davidson diagonalization with overlap
     ethr =  1.84E-08,  avg # of iterations =  2.0

     total cpu time spent up to now is       20.8 secs

     total energy              =    -329.49205401 Ry
     Harris-Foulkes estimate   =    -329.49205466 Ry
     estimated scf accuracy    <       0.00000201 Ry

     iteration #  5     ecut=    30.00 Ry     beta=0.70
     Davidson diagonalization with overlap
     ethr =  3.66E-09,  avg # of iterations =  2.0

     total cpu time spent up to now is       21.0 secs

     total energy              =    -329.49205449 Ry
     Harris-Foulkes estimate   =    -329.49205447 Ry
     estimated scf accuracy    <       0.00000017 Ry

     iteration #  6     ecut=    30.00 Ry     beta=0.70
     Davidson diagonalization with overlap
     ethr =  3.10E-10,  avg # of iterations =  2.0

     total cpu time spent up to now is       21.3 secs

     total energy              =    -329.49205455 Ry
     Harris-Foulkes estimate   =    -329.49205453 Ry
     estimated scf accuracy    <          8.9E-09 Ry

     iteration #  7     ecut=    30.00 Ry     beta=0.70
     Davidson diagonalization with overlap
     ethr =  1.62E-11,  avg # of iterations =  3.0

     total cpu time spent up to now is       21.6 secs

     total energy              =    -329.49205458 Ry
     Harris-Foulkes estimate   =    -329.49205456 Ry
     estimated scf accuracy    <          8.3E-09 Ry

     iteration #  8     ecut=    30.00 Ry     beta=0.70
     Davidson diagonalization with overlap
     ethr =  1.51E-11,  avg # of iterations =  2.0

     total cpu time spent up to now is       21.8 secs

     total energy              =    -329.49205454 Ry
     Harris-Foulkes estimate   =    -329.49205458 Ry
     estimated scf accuracy    <          4.4E-10 Ry

     iteration #  9     ecut=    30.00 Ry     beta=0.70
     Davidson diagonalization with overlap
     ethr =  7.92E-13,  avg # of iterations =  3.0

     total cpu time spent up to now is       22.1 secs

     total energy              =    -329.49205453 Ry
     Harris-Foulkes estimate   =    -329.49205454 Ry
     estimated scf accuracy    <          1.8E-10 Ry

     iteration # 10     ecut=    30.00 Ry     beta=0.70
     Davidson diagonalization with overlap
     ethr =  3.28E-13,  avg # of iterations =  2.0

     total cpu time spent up to now is       22.3 secs

     End of self-consistent calculation

          k = 0.0000 0.0000 0.0000 ( 22119 PWs)   bands (ev):

    -8.5521  -7.8047  -7.6660  -7.2292  -6.8518  -6.8446  -6.6071  -6.4919
    -6.3009  -6.1025  -5.9488  -5.7835  -5.7425  -5.6901  -5.4613  -5.3531
    -5.3094  -5.2530  -5.2051  -5.1811  -5.1709  -5.1178  -4.9864  -4.9299
    -4.8341  -4.7240  -4.4832  -3.7745  -2.4525  -2.2018  -0.5530  -0.1805
     0.5030   0.8596

     the Fermi energy is    -3.7410 ev

!    total energy              =    -329.49205453 Ry
     Harris-Foulkes estimate   =    -329.49205453 Ry
     estimated scf accuracy    <          2.2E-11 Ry

     The total energy is the sum of the following terms:

     one-electron contribution =    -609.20185503 Ry
     hartree contribution      =     326.02635787 Ry
     xc contribution           =     -51.40391420 Ry
     ewald contribution        =       5.09189939 Ry
     smearing contrib. (-TS)   =      -0.00454255 Ry

     convergence has been achieved in  10 iterations

     Forces acting on atoms (Ry/au):

     atom    1 type  1   force =    -0.00300865    0.00185668   -0.00217329
     atom    2 type  1   force =     0.00273883    0.00146208   -0.00007757
     atom    3 type  1   force =    -0.00089687   -0.00091273   -0.00083195
     atom    4 type  1   force =    -0.00040756   -0.00100329    0.00133657
     atom    5 type  1   force =     0.00157425   -0.00140274    0.00174624

     Total force =     0.006297     Total SCF correction =     0.000019

     number of scf cycles    =   8
     number of bfgs steps    =   7

     energy   old            =    -329.4919508423 Ry
     energy   new            =    -329.4920545288 Ry

     CASE: energy  _new < energy  _old

     new trust radius        =       0.0199798378 bohr
     new conv_thr            =       0.0000000001 Ry


ATOMIC_POSITIONS (bohr)
Au      -1.666296239   1.924392179  -1.002530157
Au      -0.860478056   3.801254840   3.751443500
Au       3.071177165   1.580340673   0.691010182
Au       3.905306962   3.367061214   5.710945083
Au       7.611165168   1.202092095   2.809865392



     Writing output data file pwscf.save
     Check: negative starting charge=   -0.006436
     NEW-OLD atomic charge density approx. for the potential
     Check: negative starting charge=   -0.006418

     negative rho (up, down):  9.197E-05 0.000E+00

     total cpu time spent up to now is       22.5 secs

     per-process dynamical memory:    50.7 Mb

     Self-consistent Calculation

     iteration #  1     ecut=    30.00 Ry     beta=0.70
     Davidson diagonalization with overlap
     ethr =  1.00E-06,  avg # of iterations =  4.0

     negative rho (up, down):  6.838E-07 0.000E+00

     total cpu time spent up to now is       22.9 secs

     total energy              =    -329.49213547 Ry
     Harris-Foulkes estimate   =    -329.49215011 Ry
     estimated scf accuracy    <       0.00008721 Ry

     iteration #  2     ecut=    30.00 Ry     beta=0.70
     Davidson diagonalization with overlap
     ethr =  1.59E-07,  avg # of iterations =  3.0

     negative rho (up, down):  6.400E-08 0.000E+00

     total cpu time spent up to now is       23.2 secs

     total energy              =    -329.49213990 Ry
     Harris-Foulkes estimate   =    -329.49219369 Ry
     estimated scf accuracy    <       0.00012143 Ry

     iteration #  3     ecut=    30.00 Ry     beta=0.70
     Davidson diagonalization with overlap
     ethr =  1.59E-07,  avg # of iterations =  2.0

     total cpu time spent up to now is       23.4 secs

     total energy              =    -329.49216449 Ry
     Harris-Foulkes estimate   =    -329.49217318 Ry
     estimated scf accuracy    <       0.00002325 Ry

     iteration #  4     ecut=    30.00 Ry     beta=0.70
     Davidson diagonalization with overlap
     ethr =  4.23E-08,  avg # of iterations =  2.0

     total cpu time spent up to now is       23.6 secs

     total energy              =    -329.49216999 Ry
     Harris-Foulkes estimate   =    -329.49217121 Ry
     estimated scf accuracy    <       0.00000526 Ry

     iteration #  5     ecut=    30.00 Ry     beta=0.70
     Davidson diagonalization with overlap
     ethr =  9.56E-09,  avg # of iterations =  2.0

     total cpu time spent up to now is       23.9 secs

     total energy              =    -329.49217121 Ry
     Harris-Foulkes estimate   =    -329.49217114 Ry
     estimated scf accuracy    <       0.00000038 Ry

     iteration #  6     ecut=    30.00 Ry     beta=0.70
     Davidson diagonalization with overlap
     ethr =  6.98E-10,  avg # of iterations =  2.0

     total cpu time spent up to now is       24.2 secs

     total energy              =    -329.49217117 Ry
     Harris-Foulkes estimate   =    -329.49217130 Ry
     estimated scf accuracy    <       0.00000002 Ry

     iteration #  7     ecut=    30.00 Ry     beta=0.70
     Davidson diagonalization with overlap
     ethr =  4.07E-11,  avg # of iterations =  3.0

     total cpu time spent up to now is       24.4 secs

     total energy              =    -329.49217117 Ry
     Harris-Foulkes estimate   =    -329.49217119 Ry
     estimated scf accuracy    <       0.00000002 Ry

     iteration #  8     ecut=    30.00 Ry     beta=0.70
     Davidson diagonalization with overlap
     ethr =  3.69E-11,  avg # of iterations =  2.0

     total cpu time spent up to now is       24.7 secs

     total energy              =    -329.49217116 Ry
     Harris-Foulkes estimate   =    -329.49217118 Ry
     estimated scf accuracy    <          8.2E-10 Ry

     iteration #  9     ecut=    30.00 Ry     beta=0.70
     Davidson diagonalization with overlap
     ethr =  1.49E-12,  avg # of iterations =  3.0

     total cpu time spent up to now is       25.0 secs

     total energy              =    -329.49217119 Ry
     Harris-Foulkes estimate   =    -329.49217116 Ry
     estimated scf accuracy    <          4.3E-10 Ry

     iteration # 10     ecut=    30.00 Ry     beta=0.70
     Davidson diagonalization with overlap
     ethr =  7.85E-13,  avg # of iterations =  2.0

     total cpu time spent up to now is       25.2 secs

     End of self-consistent calculation

          k = 0.0000 0.0000 0.0000 ( 22119 PWs)   bands (ev):

    -8.5342  -7.7873  -7.6672  -7.2261  -6.8589  -6.8348  -6.5961  -6.4842
    -6.3065  -6.0912  -5.9427  -5.7816  -5.7382  -5.6889  -5.4527  -5.3578
    -5.3141  -5.2480  -5.2080  -5.1763  -5.1725  -5.1190  -4.9877  -4.9245
    -4.8321  -4.7319  -4.4768  -3.7827  -2.4535  -2.1997  -0.5514  -0.1862
     0.5001   0.8611

     the Fermi energy is    -3.7510 ev

!    total energy              =    -329.49217120 Ry
     Harris-Foulkes estimate   =    -329.49217119 Ry
     estimated scf accuracy    <          5.1E-11 Ry

     The total energy is the sum of the following terms:

     one-electron contribution =    -608.72247283 Ry
     hartree contribution      =     325.79160701 Ry
     xc contribution           =     -51.40284523 Ry
     ewald contribution        =       4.84569211 Ry
     smearing contrib. (-TS)   =      -0.00415226 Ry

     convergence has been achieved in  10 iterations

     Forces acting on atoms (Ry/au):

     atom    1 type  1   force =    -0.00103554    0.00180151   -0.00072536
     atom    2 type  1   force =     0.00115112    0.00118536   -0.00181298
     atom    3 type  1   force =    -0.00315433   -0.00021169   -0.00073396
     atom    4 type  1   force =     0.00163567   -0.00147718    0.00122558
     atom    5 type  1   force =     0.00140308   -0.00129801    0.00204672

     Total force =     0.005966     Total SCF correction =     0.000030

     number of scf cycles    =   9
     number of bfgs steps    =   8

     energy   old            =    -329.4920545288 Ry
     energy   new            =    -329.4921712041 Ry

     CASE: energy  _new < energy  _old

     new trust radius        =       0.0166753170 bohr
     new conv_thr            =       0.0000000001 Ry


ATOMIC_POSITIONS (bohr)
Au      -1.675587336   1.935517904  -1.009003431
Au      -0.845394925   3.808352060   3.751002143
Au       3.071140691   1.571239847   0.682777684
Au       3.901184418   3.363138505   5.719403850
Au       7.609532152   1.196892683   2.816553754



     Writing output data file pwscf.save
     Check: negative starting charge=   -0.006418
     NEW-OLD atomic charge density approx. for the potential
     Check: negative starting charge=   -0.006402

     negative rho (up, down):  5.724E-05 0.000E+00

     total cpu time spent up to now is       25.5 secs

     per-process dynamical memory:    50.7 Mb

     Self-consistent Calculation

     iteration #  1     ecut=    30.00 Ry     beta=0.70
     Davidson diagonalization with overlap
     ethr =  1.00E-06,  avg # of iterations =  4.0

     negative rho (up, down):  2.778E-07 0.000E+00

     total cpu time spent up to now is       25.9 secs

     total energy              =    -329.49221510 Ry
     Harris-Foulkes estimate   =    -329.49222968 Ry
     estimated scf accuracy    <       0.00006386 Ry

     iteration #  2     ecut=    30.00 Ry     beta=0.70
     Davidson diagonalization with overlap
     ethr =  1.16E-07,  avg # of iterations =  3.0

     negative rho (up, down):  1.671E-08 0.000E+00

     total cpu time spent up to now is       26.2 secs

     total energy              =    -329.49221955 Ry
     Harris-Foulkes estimate   =    -329.49225692 Ry
     estimated scf accuracy    <       0.00008293 Ry

     iteration #  3     ecut=    30.00 Ry     beta=0.70
     Davidson diagonalization with overlap
     ethr =  1.16E-07,  avg # of iterations =  2.0

     total cpu time spent up to now is       26.4 secs

     total energy              =    -329.49223709 Ry
     Harris-Foulkes estimate   =    -329.49224156 Ry
     estimated scf accuracy    <       0.00001368 Ry

     iteration #  4     ecut=    30.00 Ry     beta=0.70
     Davidson diagonalization with overlap
     ethr =  2.49E-08,  avg # of iterations =  2.0

     total cpu time spent up to now is       26.7 secs

     total energy              =    -329.49224077 Ry
     Harris-Foulkes estimate   =    -329.49224171 Ry
     estimated scf accuracy    <       0.00000486 Ry

     iteration #  5     ecut=    30.00 Ry     beta=0.70
     Davidson diagonalization with overlap
     ethr =  8.83E-09,  avg # of iterations =  2.0

     total cpu time spent up to now is       26.9 secs

     total energy              =    -329.49224158 Ry
     Harris-Foulkes estimate   =    -329.49224173 Ry
     estimated scf accuracy    <       0.00000025 Ry

     iteration #  6     ecut=    30.00 Ry     beta=0.70
     Davidson diagonalization with overlap
     ethr =  4.58E-10,  avg # of iterations =  3.0

     total cpu time spent up to now is       27.1 secs

     total energy              =    -329.49224155 Ry
     Harris-Foulkes estimate   =    -329.49224166 Ry
     estimated scf accuracy    <       0.00000003 Ry

     iteration #  7     ecut=    30.00 Ry     beta=0.70
     Davidson diagonalization with overlap
     ethr =  5.47E-11,  avg # of iterations =  3.0

     total cpu time spent up to now is       27.4 secs

     total energy              =    -329.49224158 Ry
     Harris-Foulkes estimate   =    -329.49224156 Ry
     estimated scf accuracy    <       0.00000002 Ry

     iteration #  8     ecut=    30.00 Ry     beta=0.70
     Davidson diagonalization with overlap
     ethr =  3.06E-11,  avg # of iterations =  2.0

     total cpu time spent up to now is       27.6 secs

     total energy              =    -329.49224158 Ry
     Harris-Foulkes estimate   =    -329.49224158 Ry
     estimated scf accuracy    <          1.1E-09 Ry

     iteration #  9     ecut=    30.00 Ry     beta=0.70
     Davidson diagonalization with overlap
     ethr =  2.03E-12,  avg # of iterations =  3.0

     total cpu time spent up to now is       27.9 secs

     total energy              =    -329.49224158 Ry
     Harris-Foulkes estimate   =    -329.49224158 Ry
     estimated scf accuracy    <          3.9E-10 Ry

     iteration # 10     ecut=    30.00 Ry     beta=0.70
     Davidson diagonalization with overlap
     ethr =  7.15E-13,  avg # of iterations =  2.0

     total cpu time spent up to now is       28.1 secs

     End of self-consistent calculation

          k = 0.0000 0.0000 0.0000 ( 22119 PWs)   bands (ev):

    -8.5170  -7.7728  -7.6669  -7.2240  -6.8617  -6.8236  -6.5880  -6.4785
    -6.3103  -6.0818  -5.9375  -5.7786  -5.7333  -5.6871  -5.4486  -5.3608
    -5.3173  -5.2451  -5.2098  -5.1745  -5.1721  -5.1199  -4.9909  -4.9210
    -4.8299  -4.7389  -4.4735  -3.7880  -2.4572  -2.1986  -0.5498  -0.1892
     0.4956   0.8609

     the Fermi energy is    -3.7573 ev

!    total energy              =    -329.49224158 Ry
     Harris-Foulkes estimate   =    -329.49224158 Ry
     estimated scf accuracy    <          2.2E-11 Ry

     The total energy is the sum of the following terms:

     one-electron contribution =    -608.20322358 Ry
     hartree contribution      =     325.53618716 Ry
     xc contribution           =     -51.40130418 Ry
     ewald contribution        =       4.58001347 Ry
     smearing contrib. (-TS)   =      -0.00391446 Ry

     convergence has been achieved in  10 iterations

     Forces acting on atoms (Ry/au):

     atom    1 type  1   force =     0.00048145    0.00168412    0.00038398
     atom    2 type  1   force =    -0.00008902    0.00101083   -0.00301302
     atom    3 type  1   force =    -0.00382172    0.00016683   -0.00031198
     atom    4 type  1   force =     0.00299515   -0.00173506    0.00105264
     atom    5 type  1   force =     0.00043415   -0.00112672    0.00188838

     Total force =     0.006795     Total SCF correction =     0.000020

     number of scf cycles    =  10
     number of bfgs steps    =   9

     energy   old            =    -329.4921712041 Ry
     energy   new            =    -329.4922415848 Ry

     CASE: energy  _new < energy  _old

     new trust radius        =       0.0166574851 bohr
     new conv_thr            =            1.0E-10 Ry


ATOMIC_POSITIONS (bohr)
Au      -1.684672557   1.947942531  -1.015369043
Au      -0.831458008   3.816495670   3.746889263
Au       3.066852964   1.563243409   0.675632616
Au       3.901152486   3.357117507   5.728393140
Au       7.609000115   1.190341883   2.825188024



     Writing output data file pwscf.save
     Check: negative starting charge=   -0.006402
     NEW-OLD atomic charge density approx. for the potential
     Check: negative starting charge=   -0.006388

     negative rho (up, down):  6.658E-05 0.000E+00

     total cpu time spent up to now is       28.3 secs

     per-process dynamical memory:    50.7 Mb

     Self-consistent Calculation

     iteration #  1     ecut=    30.00 Ry     beta=0.70
     Davidson diagonalization with overlap
     ethr =  1.00E-06,  avg # of iterations =  4.0

     negative rho (up, down):  3.963E-07 0.000E+00

     total cpu time spent up to now is       28.7 secs

     total energy              =    -329.49228733 Ry
     Harris-Foulkes estimate   =    -329.49230294 Ry
     estimated scf accuracy    <       0.00006986 Ry

     iteration #  2     ecut=    30.00 Ry     beta=0.70
     Davidson diagonalization with overlap
     ethr =  1.27E-07,  avg # of iterations =  3.0

     negative rho (up, down):  2.221E-08 0.000E+00

     total cpu time spent up to now is       29.0 secs

     total energy              =    -329.49229554 Ry
     Harris-Foulkes estimate   =    -329.49233050 Ry
     estimated scf accuracy    <       0.00007753 Ry

     iteration #  3     ecut=    30.00 Ry     beta=0.70
     Davidson diagonalization with overlap
     ethr =  1.27E-07,  avg # of iterations =  2.0

     total cpu time spent up to now is       29.2 secs

     total energy              =    -329.49231269 Ry
     Harris-Foulkes estimate   =    -329.49231509 Ry
     estimated scf accuracy    <       0.00000874 Ry

     iteration #  4     ecut=    30.00 Ry     beta=0.70
     Davidson diagonalization with overlap
     ethr =  1.59E-08,  avg # of iterations =  2.0

     total cpu time spent up to now is       29.5 secs

     total energy              =    -329.49231527 Ry
     Harris-Foulkes estimate   =    -329.49231685 Ry
     estimated scf accuracy    <       0.00000719 Ry

     iteration #  5     ecut=    30.00 Ry     beta=0.70
     Davidson diagonalization with overlap
     ethr =  1.31E-08,  avg # of iterations =  2.0

     total cpu time spent up to now is       29.7 secs

     total energy              =    -329.49231646 Ry
     Harris-Foulkes estimate   =    -329.49231660 Ry
     estimated scf accuracy    <       0.00000028 Ry

     iteration #  6     ecut=    30.00 Ry     beta=0.70
     Davidson diagonalization with overlap
     ethr =  5.18E-10,  avg # of iterations =  3.0

     total cpu time spent up to now is       30.0 secs

     total energy              =    -329.49231644 Ry
     Harris-Foulkes estimate   =    -329.49231656 Ry
     estimated scf accuracy    <       0.00000004 Ry

     iteration #  7     ecut=    30.00 Ry     beta=0.70
     Davidson diagonalization with overlap
     ethr =  7.33E-11,  avg # of iterations =  3.0

     total cpu time spent up to now is       30.2 secs

     total energy              =    -329.49231645 Ry
     Harris-Foulkes estimate   =    -329.49231646 Ry
     estimated scf accuracy    <       0.00000002 Ry

     iteration #  8     ecut=    30.00 Ry     beta=0.70
     Davidson diagonalization with overlap
     ethr =  2.78E-11,  avg # of iterations =  2.0

     total cpu time spent up to now is       30.5 secs

     total energy              =    -329.49231643 Ry
     Harris-Foulkes estimate   =    -329.49231645 Ry
     estimated scf accuracy    <          1.3E-09 Ry

     iteration #  9     ecut=    30.00 Ry     beta=0.70
     Davidson diagonalization with overlap
     ethr =  2.33E-12,  avg # of iterations =  3.0

     total cpu time spent up to now is       30.8 secs

     total energy              =    -329.49231643 Ry
     Harris-Foulkes estimate   =    -329.49231643 Ry
     estimated scf accuracy    <          4.3E-10 Ry

     iteration # 10     ecut=    30.00 Ry     beta=0.70
     Davidson diagonalization with overlap
     ethr =  7.79E-13,  avg # of iterations =  2.0

     total cpu time spent up to now is       31.0 secs

     End of self-consistent calculation

          k = 0.0000 0.0000 0.0000 ( 22119 PWs)   bands (ev):

    -8.5014  -7.7617  -7.6643  -7.2232  -6.8614  -6.8129  -6.5848  -6.4740
    -6.3126  -6.0739  -5.9349  -5.7752  -5.7289  -5.6851  -5.4474  -5.3626
    -5.3191  -5.2435  -5.2104  -5.1746  -5.1709  -5.1209  -4.9952  -4.9190
    -4.8286  -4.7443  -4.4721  -3.7904  -2.4621  -2.1982  -0.5484  -0.1904
     0.4899   0.8589

     the Fermi energy is    -3.7602 ev

!    total energy              =    -329.49231643 Ry
     Harris-Foulkes estimate   =    -329.49231643 Ry
     estimated scf accuracy    <          4.3E-11 Ry

     The total energy is the sum of the following terms:

     one-electron contribution =    -607.71150510 Ry
     hartree contribution      =     325.29337183 Ry
     xc contribution           =     -51.39961951 Ry
     ewald contribution        =       4.32925210 Ry
     smearing contrib. (-TS)   =      -0.00381575 Ry

     convergence has been achieved in  10 iterations

     Forces acting on atoms (Ry/au):

     atom    1 type  1   force =     0.00144780    0.00145429    0.00101637
     atom    2 type  1   force =    -0.00088514    0.00094121   -0.00361422
     atom    3 type  1   force =    -0.00320812    0.00033493    0.00043493
     atom    4 type  1   force =     0.00359243   -0.00175023    0.00079035
     atom    5 type  1   force =    -0.00094697   -0.00098019    0.00137256

     Total force =     0.007135     Total SCF correction =     0.000023

     number of scf cycles    =  11
     number of bfgs steps    =  10

     energy   old            =    -329.4922415848 Ry
     energy   new            =    -329.4923164296 Ry

     CASE: energy  _new < energy  _old

     new trust radius        =       0.0183232336 bohr
     new conv_thr            =            1.0E-10 Ry


ATOMIC_POSITIONS (bohr)
Au      -1.692403201   1.962322257  -1.020865360
Au      -0.817965401   3.825974709   3.738899379
Au       3.059688987   1.555169380   0.668927428
Au       3.904719132   3.349111828   5.738458828
Au       7.606835483   1.182562826   2.835313725



     Writing output data file pwscf.save
     Check: negative starting charge=   -0.006388
     NEW-OLD atomic charge density approx. for the potential
     Check: negative starting charge=   -0.006376

     negative rho (up, down):  9.240E-05 0.000E+00

     total cpu time spent up to now is       31.2 secs

     per-process dynamical memory:    50.7 Mb

     Self-consistent Calculation

     iteration #  1     ecut=    30.00 Ry     beta=0.70
     Davidson diagonalization with overlap
     ethr =  1.00E-06,  avg # of iterations =  4.0

     negative rho (up, down):  7.907E-07 0.000E+00

     total cpu time spent up to now is       31.6 secs

     total energy              =    -329.49236833 Ry
     Harris-Foulkes estimate   =    -329.49238669 Ry
     estimated scf accuracy    <       0.00008849 Ry

     iteration #  2     ecut=    30.00 Ry     beta=0.70
     Davidson diagonalization with overlap
     ethr =  1.61E-07,  avg # of iterations =  3.0

     negative rho (up, down):  5.050E-08 0.000E+00

     total cpu time spent up to now is       31.9 secs

     total energy              =    -329.49237978 Ry
     Harris-Foulkes estimate   =    -329.49242208 Ry
     estimated scf accuracy    <       0.00009239 Ry

     iteration #  3     ecut=    30.00 Ry     beta=0.70
     Davidson diagonalization with overlap
     ethr =  1.61E-07,  avg # of iterations =  2.0

     total cpu time spent up to now is       32.1 secs

     total energy              =    -329.49240077 Ry
     Harris-Foulkes estimate   =    -329.49240197 Ry
     estimated scf accuracy    <       0.00000649 Ry

     iteration #  4     ecut=    30.00 Ry     beta=0.70
     Davidson diagonalization with overlap
     ethr =  1.18E-08,  avg # of iterations =  2.0

     total cpu time spent up to now is       32.4 secs

     total energy              =    -329.49240216 Ry
     Harris-Foulkes estimate   =    -329.49240445 Ry
     estimated scf accuracy    <       0.00000789 Ry

     iteration #  5     ecut=    30.00 Ry     beta=0.70
     Davidson diagonalization with overlap
     ethr =  1.18E-08,  avg # of iterations =  2.0

     total cpu time spent up to now is       32.6 secs

     total energy              =    -329.49240353 Ry
     Harris-Foulkes estimate   =    -329.49240371 Ry
     estimated scf accuracy    <       0.00000042 Ry

     iteration #  6     ecut=    30.00 Ry     beta=0.70
     Davidson diagonalization with overlap
     ethr =  7.61E-10,  avg # of iterations =  3.0

     total cpu time spent up to now is       32.8 secs

     total energy              =    -329.49240364 Ry
     Harris-Foulkes estimate   =    -329.49240365 Ry
     estimated scf accuracy    <       0.00000004 Ry

     iteration #  7     ecut=    30.00 Ry     beta=0.70
     Davidson diagonalization with overlap
     ethr =  7.64E-11,  avg # of iterations =  3.0

     total cpu time spent up to now is       33.1 secs

     total energy              =    -329.49240373 Ry
     Harris-Foulkes estimate   =    -329.49240366 Ry
     estimated scf accuracy    <       0.00000002 Ry

     iteration #  8     ecut=    30.00 Ry     beta=0.70
     Davidson diagonalization with overlap
     ethr =  3.71E-11,  avg # of iterations =  2.0

     total cpu time spent up to now is       33.4 secs

     total energy              =    -329.49240377 Ry
     Harris-Foulkes estimate   =    -329.49240373 Ry
     estimated scf accuracy    <          1.5E-09 Ry

     iteration #  9     ecut=    30.00 Ry     beta=0.70
     Davidson diagonalization with overlap
     ethr =  2.70E-12,  avg # of iterations =  3.0

     total cpu time spent up to now is       33.7 secs

     total energy              =    -329.49240378 Ry
     Harris-Foulkes estimate   =    -329.49240377 Ry
     estimated scf accuracy    <          2.7E-10 Ry

     iteration # 10     ecut=    30.00 Ry     beta=0.70
     Davidson diagonalization with overlap
     ethr =  4.83E-13,  avg # of iterations =  2.0

     total cpu time spent up to now is       33.9 secs

     End of self-consistent calculation

          k = 0.0000 0.0000 0.0000 ( 22119 PWs)   bands (ev):

    -8.4895  -7.7556  -7.6596  -7.2242  -6.8604  -6.8046  -6.5879  -6.4708
    -6.3135  -6.0677  -5.9364  -5.7723  -5.7258  -5.6836  -5.4479  -5.3635
    -5.3198  -5.2428  -5.2098  -5.1747  -5.1711  -5.1221  -4.9996  -4.9183
    -4.8293  -4.7469  -4.4718  -3.7901  -2.4668  -2.1980  -0.5471  -0.1904
     0.4839   0.8551

     the Fermi energy is    -3.7598 ev

!    total energy              =    -329.49240381 Ry
     Harris-Foulkes estimate   =    -329.49240378 Ry
     estimated scf accuracy    <          5.9E-11 Ry

     The total energy is the sum of the following terms:

     one-electron contribution =    -607.34224042 Ry
     hartree contribution      =     325.11029455 Ry
     xc contribution           =     -51.39826574 Ry
     ewald contribution        =       4.14164261 Ry
     smearing contrib. (-TS)   =      -0.00383481 Ry

     convergence has been achieved in  10 iterations

     Forces acting on atoms (Ry/au):

     atom    1 type  1   force =     0.00184113    0.00110826    0.00104369
     atom    2 type  1   force =    -0.00120604    0.00096381   -0.00355682
     atom    3 type  1   force =    -0.00181533    0.00034187    0.00136125
     atom    4 type  1   force =     0.00343039   -0.00149335    0.00045827
     atom    5 type  1   force =    -0.00225016   -0.00092059    0.00069361

     Total force =     0.006827     Total SCF correction =     0.000029

     number of scf cycles    =  12
     number of bfgs steps    =  11

     energy   old            =    -329.4923164296 Ry
     energy   new            =    -329.4924038050 Ry

     CASE: energy  _new < energy  _old

     new trust radius        =       0.0274848504 bohr
     new conv_thr            =            1.0E-10 Ry


ATOMIC_POSITIONS (bohr)
Au      -1.700083483   1.983906483  -1.026854312
Au      -0.800312331   3.840426833   3.723572205
Au       3.048253480   1.543683200   0.660883628
Au       3.913349901   3.336391778   5.753213049
Au       7.599667434   1.170732705   2.849919430



     Writing output data file pwscf.save
     Check: negative starting charge=   -0.006376
     NEW-OLD atomic charge density approx. for the potential
     Check: negative starting charge=   -0.006363

     negative rho (up, down):  2.489E-04 0.000E+00

     total cpu time spent up to now is       34.1 secs

     per-process dynamical memory:    50.7 Mb

     Self-consistent Calculation

     iteration #  1     ecut=    30.00 Ry     beta=0.70
     Davidson diagonalization with overlap
     ethr =  1.00E-06,  avg # of iterations =  5.0

     negative rho (up, down):  5.233E-06 0.000E+00

     total cpu time spent up to now is       34.5 secs

     total energy              =    -329.49243389 Ry
     Harris-Foulkes estimate   =    -329.49244929 Ry
     estimated scf accuracy    <       0.00020174 Ry

     iteration #  2     ecut=    30.00 Ry     beta=0.70
     Davidson diagonalization with overlap
     ethr =  3.67E-07,  avg # of iterations =  2.0

     negative rho (up, down):  6.765E-07 0.000E+00

     total cpu time spent up to now is       34.8 secs

     total energy              =    -329.49246015 Ry
     Harris-Foulkes estimate   =    -329.49255974 Ry
     estimated scf accuracy    <       0.00021871 Ry

     iteration #  3     ecut=    30.00 Ry     beta=0.70
     Davidson diagonalization with overlap
     ethr =  3.67E-07,  avg # of iterations =  2.0

     total cpu time spent up to now is       35.1 secs

     total energy              =    -329.49250827 Ry
     Harris-Foulkes estimate   =    -329.49251219 Ry
     estimated scf accuracy    <       0.00001515 Ry

     iteration #  4     ecut=    30.00 Ry     beta=0.70
     Davidson diagonalization with overlap
     ethr =  2.75E-08,  avg # of iterations =  3.0

     total cpu time spent up to now is       35.3 secs

     total energy              =    -329.49251079 Ry
     Harris-Foulkes estimate   =    -329.49251715 Ry
     estimated scf accuracy    <       0.00001954 Ry

     iteration #  5     ecut=    30.00 Ry     beta=0.70
     Davidson diagonalization with overlap
     ethr =  2.75E-08,  avg # of iterations =  9.0

     total cpu time spent up to now is       35.6 secs

     total energy              =    -329.49251390 Ry
     Harris-Foulkes estimate   =    -329.49251448 Ry
     estimated scf accuracy    <       0.00000083 Ry

     iteration #  6     ecut=    30.00 Ry     beta=0.70
     Davidson diagonalization with overlap
     ethr =  1.50E-09,  avg # of iterations =  2.0

     total cpu time spent up to now is       35.9 secs

     total energy              =    -329.49251426 Ry
     Harris-Foulkes estimate   =    -329.49251412 Ry
     estimated scf accuracy    <       0.00000007 Ry

     iteration #  7     ecut=    30.00 Ry     beta=0.70
     Davidson diagonalization with overlap
     ethr =  1.34E-10,  avg # of iterations =  3.0

     total cpu time spent up to now is       36.1 secs

     total energy              =    -329.49251430 Ry
     Harris-Foulkes estimate   =    -329.49251429 Ry
     estimated scf accuracy    <       0.00000005 Ry

     iteration #  8     ecut=    30.00 Ry     beta=0.70
     Davidson diagonalization with overlap
     ethr =  9.47E-11,  avg # of iterations =  2.0

     total cpu time spent up to now is       36.4 secs

     total energy              =    -329.49251436 Ry
     Harris-Foulkes estimate   =    -329.49251431 Ry
     estimated scf accuracy    <          2.5E-09 Ry

[...]

     total cpu time spent up to now is       77.2 secs

     per-process dynamical memory:    50.7 Mb

     Self-consistent Calculation

     iteration #  1     ecut=    30.00 Ry     beta=0.70
     Davidson diagonalization with overlap
     ethr =  1.00E-06,  avg # of iterations =  4.0

     negative rho (up, down):  1.003E-06 0.000E+00

     total cpu time spent up to now is       77.6 secs

     total energy              =    -329.49308210 Ry
     Harris-Foulkes estimate   =    -329.49309729 Ry
     estimated scf accuracy    <       0.00010622 Ry

     iteration #  2     ecut=    30.00 Ry     beta=0.70
     Davidson diagonalization with overlap
     ethr =  1.93E-07,  avg # of iterations =  2.0

     negative rho (up, down):  6.639E-08 0.000E+00

     total cpu time spent up to now is       77.9 secs

     total energy              =    -329.49309721 Ry
     Harris-Foulkes estimate   =    -329.49314196 Ry
     estimated scf accuracy    <       0.00009526 Ry

     iteration #  3     ecut=    30.00 Ry     beta=0.70
     Davidson diagonalization with overlap
     ethr =  1.73E-07,  avg # of iterations =  2.0

     total cpu time spent up to now is       78.1 secs

     total energy              =    -329.49311639 Ry
     Harris-Foulkes estimate   =    -329.49312517 Ry
     estimated scf accuracy    <       0.00002230 Ry

     iteration #  4     ecut=    30.00 Ry     beta=0.70
     Davidson diagonalization with overlap
     ethr =  4.05E-08,  avg # of iterations =  2.0

     total cpu time spent up to now is       78.4 secs

     total energy              =    -329.49312229 Ry
     Harris-Foulkes estimate   =    -329.49312358 Ry
     estimated scf accuracy    <       0.00000649 Ry

     iteration #  5     ecut=    30.00 Ry     beta=0.70
     Davidson diagonalization with overlap
     ethr =  1.18E-08,  avg # of iterations =  2.0

     total cpu time spent up to now is       78.6 secs

     total energy              =    -329.49312351 Ry
     Harris-Foulkes estimate   =    -329.49312366 Ry
     estimated scf accuracy    <       0.00000070 Ry

     iteration #  6     ecut=    30.00 Ry     beta=0.70
     Davidson diagonalization with overlap
     ethr =  1.27E-09,  avg # of iterations =  2.0

     total cpu time spent up to now is       78.8 secs

     total energy              =    -329.49312382 Ry
     Harris-Foulkes estimate   =    -329.49312369 Ry
     estimated scf accuracy    <       0.00000005 Ry

     iteration #  7     ecut=    30.00 Ry     beta=0.70
     Davidson diagonalization with overlap
     ethr =  8.41E-11,  avg # of iterations =  3.0

     total cpu time spent up to now is       79.1 secs

     total energy              =    -329.49312377 Ry
     Harris-Foulkes estimate   =    -329.49312384 Ry
     estimated scf accuracy    <       0.00000001 Ry

     iteration #  8     ecut=    30.00 Ry     beta=0.70
     Davidson diagonalization with overlap
     ethr =  2.21E-11,  avg # of iterations =  2.0

     total cpu time spent up to now is       79.3 secs

     total energy              =    -329.49312375 Ry
     Harris-Foulkes estimate   =    -329.49312378 Ry
     estimated scf accuracy    <          1.3E-09 Ry

     iteration #  9     ecut=    30.00 Ry     beta=0.70
     Davidson diagonalization with overlap
     ethr =  2.29E-12,  avg # of iterations =  3.0

     total cpu time spent up to now is       79.6 secs

     total energy              =    -329.49312375 Ry
     Harris-Foulkes estimate   =    -329.49312375 Ry
     estimated scf accuracy    <          5.9E-10 Ry

     iteration # 10     ecut=    30.00 Ry     beta=0.70
     Davidson diagonalization with overlap
     ethr =  1.07E-12,  avg # of iterations =  2.0

     total cpu time spent up to now is       79.8 secs

     End of self-consistent calculation

          k = 0.0000 0.0000 0.0000 ( 22119 PWs)   bands (ev):

    -8.5113  -7.7855  -7.6536  -7.2404  -6.8605  -6.8169  -6.6223  -6.4814
    -6.3105  -6.0761  -5.9585  -5.7722  -5.7336  -5.6837  -5.4598  -5.3576
    -5.3131  -5.2482  -5.2007  -5.1816  -5.1700  -5.1233  -5.0031  -4.9236
    -4.8425  -4.7273  -4.4786  -3.7709  -2.4489  -2.2018  -0.5418  -0.1808
     0.4707   0.8071

     the Fermi energy is    -3.7374 ev

!    total energy              =    -329.49312373 Ry
     Harris-Foulkes estimate   =    -329.49312375 Ry
     estimated scf accuracy    <          5.8E-11 Ry

     The total energy is the sum of the following terms:

     one-electron contribution =    -607.63110387 Ry
     hartree contribution      =     325.24522840 Ry
     xc contribution           =     -51.40048577 Ry
     ewald contribution        =       4.29779917 Ry
     smearing contrib. (-TS)   =      -0.00456165 Ry

     convergence has been achieved in  10 iterations

     Forces acting on atoms (Ry/au):

     atom    1 type  1   force =    -0.00174124   -0.00022554   -0.00127776
     atom    2 type  1   force =     0.00013296    0.00053445    0.00070445
     atom    3 type  1   force =     0.00278992    0.00017388    0.00104337
     atom    4 type  1   force =     0.00013749   -0.00012057   -0.00121925
     atom    5 type  1   force =    -0.00131913   -0.00036222    0.00074919

     Total force =     0.004286     Total SCF correction =     0.000033

     number of scf cycles    =  28
     number of bfgs steps    =  27

     energy   old            =    -329.4930827144 Ry
     energy   new            =    -329.4931237283 Ry

     CASE: energy  _new < energy  _old

     new trust radius        =       0.0146436037 bohr
     new conv_thr            =            1.0E-10 Ry


ATOMIC_POSITIONS (bohr)
Au      -1.625683738   2.146778186  -1.133802104
Au      -0.771904161   3.940373917   3.629448310
Au       3.007306642   1.391125896   0.752913359
Au       3.904913152   3.337993846   5.776981132
Au       7.546243104   1.058869156   2.935193303



     Writing output data file pwscf.save
     Check: negative starting charge=   -0.006440
     NEW-OLD atomic charge density approx. for the potential
     Check: negative starting charge=   -0.006442

     negative rho (up, down):  2.404E-05 0.000E+00

     total cpu time spent up to now is       80.0 secs

     per-process dynamical memory:    50.7 Mb

     Self-consistent Calculation

     iteration #  1     ecut=    30.00 Ry     beta=0.70
     Davidson diagonalization with overlap
     ethr =  1.00E-06,  avg # of iterations =  4.0

     Threshold (ethr) on eigenvalues was too large:
     Diagonalizing with lowered threshold

     Davidson diagonalization with overlap
     ethr =  7.90E-08,  avg # of iterations =  1.0

     negative rho (up, down):  5.403E-08 0.000E+00

     total cpu time spent up to now is       80.6 secs

     total energy              =    -329.49312564 Ry
     Harris-Foulkes estimate   =    -329.49313515 Ry
     estimated scf accuracy    <       0.00004372 Ry

     iteration #  2     ecut=    30.00 Ry     beta=0.70
     Davidson diagonalization with overlap
     ethr =  7.95E-08,  avg # of iterations =  2.0

     total cpu time spent up to now is       80.8 secs

     total energy              =    -329.49313306 Ry
     Harris-Foulkes estimate   =    -329.49315022 Ry
     estimated scf accuracy    <       0.00003777 Ry

     iteration #  3     ecut=    30.00 Ry     beta=0.70
     Davidson diagonalization with overlap
     ethr =  6.87E-08,  avg # of iterations =  2.0

     total cpu time spent up to now is       81.1 secs

     total energy              =    -329.49314186 Ry
     Harris-Foulkes estimate   =    -329.49314301 Ry
     estimated scf accuracy    <       0.00000525 Ry

     iteration #  4     ecut=    30.00 Ry     beta=0.70
     Davidson diagonalization with overlap
     ethr =  9.54E-09,  avg # of iterations =  2.0

     total cpu time spent up to now is       81.4 secs

     total energy              =    -329.49314367 Ry
     Harris-Foulkes estimate   =    -329.49314413 Ry
     estimated scf accuracy    <       0.00000306 Ry

     iteration #  5     ecut=    30.00 Ry     beta=0.70
     Davidson diagonalization with overlap
     ethr =  5.57E-09,  avg # of iterations =  2.0

     total cpu time spent up to now is       81.6 secs

     total energy              =    -329.49314407 Ry
     Harris-Foulkes estimate   =    -329.49314429 Ry
     estimated scf accuracy    <       0.00000026 Ry

     iteration #  6     ecut=    30.00 Ry     beta=0.70
     Davidson diagonalization with overlap
     ethr =  4.78E-10,  avg # of iterations =  3.0

     total cpu time spent up to now is       81.9 secs

     total energy              =    -329.49314410 Ry
     Harris-Foulkes estimate   =    -329.49314414 Ry
     estimated scf accuracy    <       0.00000003 Ry

     iteration #  7     ecut=    30.00 Ry     beta=0.70
     Davidson diagonalization with overlap
     ethr =  5.50E-11,  avg # of iterations =  2.0

     total cpu time spent up to now is       82.1 secs

     total energy              =    -329.49314413 Ry
     Harris-Foulkes estimate   =    -329.49314410 Ry
     estimated scf accuracy    <          4.8E-09 Ry

     iteration #  8     ecut=    30.00 Ry     beta=0.70
     Davidson diagonalization with overlap
     ethr =  8.67E-12,  avg # of iterations =  3.0

     total cpu time spent up to now is       82.4 secs

     total energy              =    -329.49314412 Ry
     Harris-Foulkes estimate   =    -329.49314413 Ry
     estimated scf accuracy    <          1.4E-09 Ry

     iteration #  9     ecut=    30.00 Ry     beta=0.70
     Davidson diagonalization with overlap
     ethr =  2.57E-12,  avg # of iterations =  2.0

     total cpu time spent up to now is       82.6 secs

     total energy              =    -329.49314412 Ry
     Harris-Foulkes estimate   =    -329.49314412 Ry
     estimated scf accuracy    <          2.8E-10 Ry

     iteration # 10     ecut=    30.00 Ry     beta=0.70
     Davidson diagonalization with overlap
     ethr =  5.04E-13,  avg # of iterations =  2.0

     total cpu time spent up to now is       82.9 secs

     End of self-consistent calculation

          k = 0.0000 0.0000 0.0000 ( 22119 PWs)   bands (ev):

    -8.5110  -7.7869  -7.6555  -7.2421  -6.8558  -6.8166  -6.6229  -6.4832
    -6.3112  -6.0773  -5.9566  -5.7716  -5.7335  -5.6826  -5.4636  -5.3567
    -5.3123  -5.2500  -5.2004  -5.1818  -5.1696  -5.1221  -5.0044  -4.9242
    -4.8382  -4.7306  -4.4796  -3.7698  -2.4500  -2.2020  -0.5419  -0.1787
     0.4701   0.8061

     the Fermi energy is    -3.7360 ev

!    total energy              =    -329.49314411 Ry
     Harris-Foulkes estimate   =    -329.49314412 Ry
     estimated scf accuracy    <          1.3E-11 Ry

     The total energy is the sum of the following terms:

     one-electron contribution =    -607.62038938 Ry
     hartree contribution      =     325.23954187 Ry
     xc contribution           =     -51.40028733 Ry
     ewald contribution        =       4.29262101 Ry
     smearing contrib. (-TS)   =      -0.00463028 Ry

     convergence has been achieved in  10 iterations

     Forces acting on atoms (Ry/au):

     atom    1 type  1   force =    -0.00064477   -0.00042035   -0.00035471
     atom    2 type  1   force =     0.00034704    0.00053185    0.00041633
     atom    3 type  1   force =     0.00105135    0.00045485   -0.00034222
     atom    4 type  1   force =    -0.00020224    0.00008591   -0.00068073
     atom    5 type  1   force =    -0.00055137   -0.00065227    0.00096133

     Total force =     0.002211     Total SCF correction =     0.000016

     number of scf cycles    =  29
     number of bfgs steps    =  28

     energy   old            =    -329.4931237283 Ry
     energy   new            =    -329.4931441060 Ry

     CASE: energy  _new < energy  _old

     new trust radius        =       0.0043103963 bohr
     new conv_thr            =            1.0E-10 Ry


ATOMIC_POSITIONS (bohr)
Au      -1.629833351   2.145727095  -1.134307506
Au      -0.768505040   3.942272426   3.629541418
Au       3.009283925   1.393752558   0.750783617
Au       3.906196123   3.335913641   5.778252892
Au       7.543733343   1.057475280   2.936463579



     Writing output data file pwscf.save
     Check: negative starting charge=   -0.006442
     NEW-OLD atomic charge density approx. for the potential
     Check: negative starting charge=   -0.006442

     negative rho (up, down):  1.458E-07 0.000E+00

     total cpu time spent up to now is       83.1 secs

     per-process dynamical memory:    50.7 Mb

     Self-consistent Calculation

     iteration #  1     ecut=    30.00 Ry     beta=0.70
     Davidson diagonalization with overlap
     ethr =  1.00E-06,  avg # of iterations =  3.0

     Threshold (ethr) on eigenvalues was too large:
     Diagonalizing with lowered threshold

     Davidson diagonalization with overlap
     ethr =  1.21E-08,  avg # of iterations =  1.0

     total cpu time spent up to now is       83.6 secs

     total energy              =    -329.49314953 Ry
     Harris-Foulkes estimate   =    -329.49315162 Ry
     estimated scf accuracy    <       0.00000703 Ry

     iteration #  2     ecut=    30.00 Ry     beta=0.70
     Davidson diagonalization with overlap
     ethr =  1.28E-08,  avg # of iterations =  2.0

     total cpu time spent up to now is       83.8 secs

     total energy              =    -329.49314935 Ry
     Harris-Foulkes estimate   =    -329.49315569 Ry
     estimated scf accuracy    <       0.00001587 Ry

     iteration #  3     ecut=    30.00 Ry     beta=0.70
     Davidson diagonalization with overlap
     ethr =  1.28E-08,  avg # of iterations =  2.0

     total cpu time spent up to now is       84.1 secs

     total energy              =    -329.49315229 Ry
     Harris-Foulkes estimate   =    -329.49315321 Ry
     estimated scf accuracy    <       0.00000205 Ry

     iteration #  4     ecut=    30.00 Ry     beta=0.70
     Davidson diagonalization with overlap
     ethr =  3.73E-09,  avg # of iterations =  2.0

     total cpu time spent up to now is       84.3 secs

     total energy              =    -329.49315288 Ry
     Harris-Foulkes estimate   =    -329.49315273 Ry
     estimated scf accuracy    <       0.00000011 Ry

     iteration #  5     ecut=    30.00 Ry     beta=0.70
     Davidson diagonalization with overlap
     ethr =  1.94E-10,  avg # of iterations =  2.0

     total cpu time spent up to now is       84.6 secs

     total energy              =    -329.49315285 Ry
     Harris-Foulkes estimate   =    -329.49315292 Ry
     estimated scf accuracy    <       0.00000002 Ry

     iteration #  6     ecut=    30.00 Ry     beta=0.70
     Davidson diagonalization with overlap
     ethr =  3.19E-11,  avg # of iterations =  2.0

     total cpu time spent up to now is       84.8 secs

     total energy              =    -329.49315288 Ry
     Harris-Foulkes estimate   =    -329.49315286 Ry
     estimated scf accuracy    <          2.5E-09 Ry

     iteration #  7     ecut=    30.00 Ry     beta=0.70
     Davidson diagonalization with overlap
     ethr =  4.60E-12,  avg # of iterations =  2.0

     total cpu time spent up to now is       85.1 secs

     total energy              =    -329.49315288 Ry
     Harris-Foulkes estimate   =    -329.49315288 Ry
     estimated scf accuracy    <          9.9E-10 Ry

     iteration #  8     ecut=    30.00 Ry     beta=0.70
     Davidson diagonalization with overlap
     ethr =  1.81E-12,  avg # of iterations =  2.0

     total cpu time spent up to now is       85.3 secs

     total energy              =    -329.49315288 Ry
     Harris-Foulkes estimate   =    -329.49315288 Ry
     estimated scf accuracy    <          2.0E-10 Ry

     iteration #  9     ecut=    30.00 Ry     beta=0.70
     Davidson diagonalization with overlap
     ethr =  3.59E-13,  avg # of iterations =  2.0

     total cpu time spent up to now is       85.5 secs

     End of self-consistent calculation

          k = 0.0000 0.0000 0.0000 ( 22119 PWs)   bands (ev):

    -8.5093  -7.7861  -7.6555  -7.2426  -6.8567  -6.8152  -6.6228  -6.4831
    -6.3118  -6.0762  -5.9569  -5.7708  -5.7325  -5.6828  -5.4634  -5.3568
    -5.3126  -5.2497  -5.2006  -5.1826  -5.1689  -5.1223  -5.0051  -4.9239
    -4.8385  -4.7308  -4.4795  -3.7699  -2.4506  -2.2018  -0.5417  -0.1789
     0.4689   0.8058

     the Fermi energy is    -3.7362 ev

!    total energy              =    -329.49315288 Ry
     Harris-Foulkes estimate   =    -329.49315288 Ry
     estimated scf accuracy    <          3.6E-11 Ry

     The total energy is the sum of the following terms:

     one-electron contribution =    -607.57077303 Ry
     hartree contribution      =     325.21485788 Ry
     xc contribution           =     -51.40011999 Ry
     ewald contribution        =       4.26750784 Ry
     smearing contrib. (-TS)   =      -0.00462558 Ry

     convergence has been achieved in   9 iterations

     Forces acting on atoms (Ry/au):

     atom    1 type  1   force =    -0.00001384   -0.00038067    0.00007438
     atom    2 type  1   force =     0.00013226    0.00030687    0.00007458
     atom    3 type  1   force =     0.00022638    0.00051916   -0.00059867
     atom    4 type  1   force =    -0.00030758    0.00025338   -0.00050083
     atom    5 type  1   force =    -0.00003722   -0.00069874    0.00095054

     Total force =     0.001658     Total SCF correction =     0.000026

     bfgs converged in  30 scf cycles and  29 bfgs steps
     (criteria: energy <  1.0E-04, force <  1.0E-03)

     End of BFGS Geometry Optimization

     Final energy   =    -329.4931528803 Ry
Begin final coordinates

ATOMIC_POSITIONS (bohr)
Au      -1.629833351   2.145727095  -1.134307506
Au      -0.768505040   3.942272426   3.629541418
Au       3.009283925   1.393752558   0.750783617
Au       3.906196123   3.335913641   5.778252892
Au       7.543733343   1.057475280   2.936463579
End final coordinates



     Writing output data file pwscf.save
 
     init_run     :      0.17s CPU      0.22s WALL (       1 calls)
     electrons    :     71.89s CPU     79.19s WALL (      30 calls)
     update_pot   :      2.13s CPU      2.70s WALL (      29 calls)
     forces       :      1.33s CPU      1.39s WALL (      30 calls)

     Called by init_run:
     wfcinit      :      0.07s CPU      0.10s WALL (       1 calls)
     potinit      :      0.03s CPU      0.04s WALL (       1 calls)

     Called by electrons:
     c_bands      :     54.89s CPU     57.36s WALL (     303 calls)
     sum_band     :      7.82s CPU      8.24s WALL (     303 calls)
     v_of_rho     :      6.28s CPU      6.56s WALL (     322 calls)
     mix_rho      :      2.50s CPU      5.36s WALL (     303 calls)

     Called by c_bands:
     init_us_2    :      1.04s CPU      1.14s WALL (     607 calls)
     cegterg      :     48.80s CPU     50.76s WALL (     303 calls)

     Called by sum_band:

     Called by *egterg:
     h_psi        :     38.24s CPU     39.67s WALL (    1054 calls)
     g_psi        :      0.38s CPU      0.40s WALL (     750 calls)
     cdiaghg      :      2.58s CPU      2.68s WALL (    1013 calls)

     Called by h_psi:
     h_psi:pot    :     37.68s CPU     39.08s WALL (    1054 calls)
     h_psi:calbec :      2.08s CPU      2.14s WALL (    1054 calls)
     vloc_psi     :     33.18s CPU     34.43s WALL (    1054 calls)
     add_vuspsi   :      2.42s CPU      2.50s WALL (    1054 calls)

     General routines
     calbec       :      2.45s CPU      2.54s WALL (    1174 calls)
     fft          :      3.43s CPU      3.62s WALL (    3623 calls)
     fftw         :     35.32s CPU     36.49s WALL (   67258 calls)
     davcio       :      0.36s CPU      2.68s WALL (    3057 calls)
 
     Parallel routines
     fft_scatter  :      8.76s CPU      8.82s WALL (   70881 calls)
 
     PWSCF        :  1m16.42s CPU     1m25.69s WALL

 
   This run was terminated on:  12:40:56   3Aug2017            

=------------------------------------------------------------------------------=
   JOB DONE.
=------------------------------------------------------------------------------=
