
     Program PWSCF v.6.0 (svn rev. 13079) starts on  3Aug2017 at 20:59:36 

     This program is part of the open-source Quantum ESPRESSO suite
     for quantum simulation of materials; please cite
         "P. Giannozzi et al., J. Phys.:Condens. Matter 21 395502 (2009);
          URL http://www.quantum-espresso.org", 
     in publications or presentations arising from this work. More details at
     http://www.quantum-espresso.org/quote

     Parallel version (MPI), running on    10 processors
     R & G space division:  proc/nbgrp/npool/nimage =      10
     Reading input from input/multi/minchecks-Gold5-464.in

     Current dimensions of program PWSCF are:
     Max number of different atomic species (ntypx) = 10
     Max number of k-points (npk) =  40000
     Max angular momentum in pseudopotentials (lmaxx) =  3
     Message from routine iosys:
     pot_extrapolation='second-order' not available, using 'atomic'
     Message from routine iosys:
     wfc_extrapolation='second-order' not available, using 'atomic'

     Subspace diagonalization in iterative solution of the eigenvalue problem:
     a serial algorithm will be used

 
     Parallelization info
     --------------------
     sticks:   dense  smooth     PW     G-vecs:    dense   smooth      PW
     Min         380     380     94                17748    17748    2208
     Max         381     381     95                17753    17753    2213
     Sum        3809    3809    949               177509   177509   22119
 


     bravais-lattice index     =            1
     lattice parameter (alat)  =      20.0000  a.u.
     unit-cell volume          =    8000.0000 (a.u.)^3
     number of atoms/cell      =            5
     number of atomic types    =            1
     number of electrons       =        55.00
     number of Kohn-Sham states=           34
     kinetic-energy cutoff     =      30.0000  Ry
     charge density cutoff     =     120.0000  Ry
     convergence threshold     =      1.0E-08
     mixing beta               =       0.7000
     number of iterations used =            8  plain     mixing
     Exchange-correlation      = BLYP ( 1  3  1  3 0 0)
     nstep                     =           50


     celldm(1)=  20.000000  celldm(2)=   0.000000  celldm(3)=   0.000000
     celldm(4)=   0.000000  celldm(5)=   0.000000  celldm(6)=   0.000000

     crystal axes: (cart. coord. in units of alat)
               a(1) = (   1.000000   0.000000   0.000000 )  
               a(2) = (   0.000000   1.000000   0.000000 )  
               a(3) = (   0.000000   0.000000   1.000000 )  

     reciprocal axes: (cart. coord. in units 2 pi/alat)
               b(1) = (  1.000000  0.000000  0.000000 )  
               b(2) = (  0.000000  1.000000  0.000000 )  
               b(3) = (  0.000000  0.000000  1.000000 )  


     PseudoPot. # 1 for Au read from file:
     ./Au.blyp-d-hgh.UPF
     MD5 check sum: c10d8bae01f806c36a1643a1c69a8479
     Pseudo is Norm-conserving, Zval = 11.0
     Generated in analytical, separable form
     Using radial grid of 1279 points,  6 beta functions with: 
                l(1) =   0
                l(2) =   0
                l(3) =   1
                l(4) =   1
                l(5) =   2
                l(6) =   2

     atomic species   valence    mass     pseudopotential
        Au            11.00    28.08600     Au( 1.00)

     No symmetry found



   Cartesian axes

     site n.     atom                  positions (alat units)
         1           Au  tau(   1) = (  -0.0925055   0.1222932  -0.0289768  )
         2           Au  tau(   2) = (  -0.0317930   0.1638820   0.2143374  )
         3           Au  tau(   3) = (   0.1525506   0.0897033   0.0185369  )
         4           Au  tau(   4) = (   0.2145345   0.1915808   0.2756687  )
         5           Au  tau(   5) = (   0.3814329   0.0756177   0.1221902  )

     number of k points=     1  Marzari-Vanderbilt smearing, width (Ry)=  0.0250
                       cart. coord. in units 2pi/alat
        k(    1) = (   0.0000000   0.0000000   0.0000000), wk =   2.0000000

     Dense  grid:   177509 G-vectors     FFT dimensions: (  72,  72,  72)

     Estimated max dynamical RAM per process >      15.04Mb

     Estimated total allocated dynamical RAM >     150.39Mb

     Initial potential from superposition of free atoms
     Check: negative starting charge=   -0.006387

     starting charge   54.99940, renormalised to   55.00000

     negative rho (up, down):  6.387E-03 0.000E+00
     Starting wfc are   45 randomized atomic wfcs

     total cpu time spent up to now is        0.3 secs

     per-process dynamical memory:    41.0 Mb

     Self-consistent Calculation

     iteration #  1     ecut=    30.00 Ry     beta=0.70
     Davidson diagonalization with overlap
     ethr =  1.00E-02,  avg # of iterations =  3.0

     Threshold (ethr) on eigenvalues was too large:
     Diagonalizing with lowered threshold

     Davidson diagonalization with overlap
     ethr =  3.96E-04,  avg # of iterations =  6.0

     negative rho (up, down):  8.770E-04 0.000E+00

     total cpu time spent up to now is        0.7 secs

     total energy              =    -329.37819354 Ry
     Harris-Foulkes estimate   =    -329.54404798 Ry
     estimated scf accuracy    <       0.27620666 Ry

     iteration #  2     ecut=    30.00 Ry     beta=0.70
     Davidson diagonalization with overlap
     ethr =  5.02E-04,  avg # of iterations =  2.0

     negative rho (up, down):  3.910E-04 0.000E+00

     total cpu time spent up to now is        0.9 secs

     total energy              =    -329.41327404 Ry
     Harris-Foulkes estimate   =    -329.55690648 Ry
     estimated scf accuracy    <       0.29323451 Ry

     iteration #  3     ecut=    30.00 Ry     beta=0.70
     Davidson diagonalization with overlap
     ethr =  5.02E-04,  avg # of iterations =  5.0

     negative rho (up, down):  1.487E-04 0.000E+00

     total cpu time spent up to now is        1.2 secs

     total energy              =    -329.47378180 Ry
     Harris-Foulkes estimate   =    -329.50109261 Ry
     estimated scf accuracy    <       0.07224950 Ry

     iteration #  4     ecut=    30.00 Ry     beta=0.70
     Davidson diagonalization with overlap
     ethr =  1.31E-04,  avg # of iterations =  2.0

     negative rho (up, down):  1.610E-06 0.000E+00

     total cpu time spent up to now is        1.4 secs

     total energy              =    -329.48648858 Ry
     Harris-Foulkes estimate   =    -329.48715523 Ry
     estimated scf accuracy    <       0.00197860 Ry

     iteration #  5     ecut=    30.00 Ry     beta=0.70
     Davidson diagonalization with overlap
     ethr =  3.60E-06,  avg # of iterations =  5.0

     total cpu time spent up to now is        1.7 secs

     total energy              =    -329.48697278 Ry
     Harris-Foulkes estimate   =    -329.48773214 Ry
     estimated scf accuracy    <       0.00197904 Ry

     iteration #  6     ecut=    30.00 Ry     beta=0.70
     Davidson diagonalization with overlap
     ethr =  3.60E-06,  avg # of iterations =  2.0

     total cpu time spent up to now is        1.9 secs

     total energy              =    -329.48727197 Ry
     Harris-Foulkes estimate   =    -329.48736203 Ry
     estimated scf accuracy    <       0.00021548 Ry

     iteration #  7     ecut=    30.00 Ry     beta=0.70
     Davidson diagonalization with overlap
     ethr =  3.92E-07,  avg # of iterations =  2.0

     total cpu time spent up to now is        2.1 secs

     total energy              =    -329.48731841 Ry
     Harris-Foulkes estimate   =    -329.48733474 Ry
     estimated scf accuracy    <       0.00004250 Ry

     iteration #  8     ecut=    30.00 Ry     beta=0.70
     Davidson diagonalization with overlap
     ethr =  7.73E-08,  avg # of iterations =  2.0

     total cpu time spent up to now is        2.3 secs

     total energy              =    -329.48732604 Ry
     Harris-Foulkes estimate   =    -329.48733097 Ry
     estimated scf accuracy    <       0.00001201 Ry

     iteration #  9     ecut=    30.00 Ry     beta=0.70
     Davidson diagonalization with overlap
     ethr =  2.18E-08,  avg # of iterations =  2.0

     total cpu time spent up to now is        2.5 secs

     total energy              =    -329.48732838 Ry
     Harris-Foulkes estimate   =    -329.48732881 Ry
     estimated scf accuracy    <       0.00000077 Ry

     iteration # 10     ecut=    30.00 Ry     beta=0.70
     Davidson diagonalization with overlap
     ethr =  1.40E-09,  avg # of iterations =  3.0

     total cpu time spent up to now is        2.8 secs

     total energy              =    -329.48732859 Ry
     Harris-Foulkes estimate   =    -329.48732867 Ry
     estimated scf accuracy    <       0.00000023 Ry

     iteration # 11     ecut=    30.00 Ry     beta=0.70
     Davidson diagonalization with overlap
     ethr =  4.23E-10,  avg # of iterations =  2.0

     total cpu time spent up to now is        3.0 secs

     End of self-consistent calculation

          k = 0.0000 0.0000 0.0000 ( 22119 PWs)   bands (ev):

    -8.4040  -7.7296  -7.6279  -7.1792  -6.9786  -6.7661  -6.7551  -6.4418
    -6.2487  -6.0598  -5.9761  -5.7591  -5.7137  -5.6736  -5.4476  -5.3299
    -5.3115  -5.2315  -5.1889  -5.1759  -5.1723  -5.1328  -4.9785  -4.9172
    -4.8408  -4.6719  -4.3943  -3.7883  -2.4977  -2.1740  -0.5208  -0.2311
     0.5334   0.7740

     the Fermi energy is    -3.7710 ev

!    total energy              =    -329.48732859 Ry
     Harris-Foulkes estimate   =    -329.48732864 Ry
     estimated scf accuracy    <          9.4E-09 Ry

     The total energy is the sum of the following terms:

     one-electron contribution =    -609.66886775 Ry
     hartree contribution      =     326.30238622 Ry
     xc contribution           =     -51.41373788 Ry
     ewald contribution        =       5.29398653 Ry
     smearing contrib. (-TS)   =      -0.00109570 Ry

     convergence has been achieved in  11 iterations

     Forces acting on atoms (Ry/au):

     atom    1 type  1   force =    -0.00518714   -0.00115389   -0.00756987
     atom    2 type  1   force =     0.00000437    0.00198962   -0.00204758
     atom    3 type  1   force =    -0.00217592    0.00338174    0.01074144
     atom    4 type  1   force =     0.00266268   -0.00137503    0.00082336
     atom    5 type  1   force =     0.00469601   -0.00284244   -0.00194735

     Total force =     0.016396     Total SCF correction =     0.000438

     BFGS Geometry Optimization

     number of scf cycles    =   1
     number of bfgs steps    =   0

     energy   new            =    -329.4873285873 Ry

     new trust radius        =       0.0114695011 bohr
     new conv_thr            =       0.0000000100 Ry


ATOMIC_POSITIONS (bohr)
Au      -1.855297141   2.444709109  -0.587106871
Au      -0.635855627   3.279629617   4.284700420
Au       3.048835078   1.797447743   0.381480445
Au       4.293353676   3.830240967   5.514197361
Au       7.633355013   1.509511564   2.441856645



     Writing output data file pwscf.save
     Check: negative starting charge=   -0.006387
     NEW-OLD atomic charge density approx. for the potential
     Check: negative starting charge=   -0.006380

     negative rho (up, down):  6.339E-06 0.000E+00

     total cpu time spent up to now is        3.2 secs

     per-process dynamical memory:    42.9 Mb

     Self-consistent Calculation

     iteration #  1     ecut=    30.00 Ry     beta=0.70
     Davidson diagonalization with overlap
     ethr =  1.00E-06,  avg # of iterations =  4.0

     Threshold (ethr) on eigenvalues was too large:
     Diagonalizing with lowered threshold

     Davidson diagonalization with overlap
     ethr =  3.76E-08,  avg # of iterations =  1.0

     total cpu time spent up to now is        3.7 secs

     total energy              =    -329.48757919 Ry
     Harris-Foulkes estimate   =    -329.48758178 Ry
     estimated scf accuracy    <       0.00002136 Ry

     iteration #  2     ecut=    30.00 Ry     beta=0.70
     Davidson diagonalization with overlap
     ethr =  3.88E-08,  avg # of iterations =  3.0

     total cpu time spent up to now is        3.9 secs

     total energy              =    -329.48757858 Ry
     Harris-Foulkes estimate   =    -329.48759430 Ry
     estimated scf accuracy    <       0.00003689 Ry

     iteration #  3     ecut=    30.00 Ry     beta=0.70
     Davidson diagonalization with overlap
     ethr =  3.88E-08,  avg # of iterations =  2.0

     total cpu time spent up to now is        4.1 secs

     total energy              =    -329.48758683 Ry
     Harris-Foulkes estimate   =    -329.48758900 Ry
     estimated scf accuracy    <       0.00000736 Ry

     iteration #  4     ecut=    30.00 Ry     beta=0.70
     Davidson diagonalization with overlap
     ethr =  1.34E-08,  avg # of iterations =  2.0

     total cpu time spent up to now is        4.3 secs

     total energy              =    -329.48758841 Ry
     Harris-Foulkes estimate   =    -329.48758829 Ry
     estimated scf accuracy    <       0.00000045 Ry

     iteration #  5     ecut=    30.00 Ry     beta=0.70
     Davidson diagonalization with overlap
     ethr =  8.09E-10,  avg # of iterations =  3.0

     total cpu time spent up to now is        4.6 secs

     total energy              =    -329.48758856 Ry
     Harris-Foulkes estimate   =    -329.48758859 Ry
     estimated scf accuracy    <       0.00000020 Ry

     iteration #  6     ecut=    30.00 Ry     beta=0.70
     Davidson diagonalization with overlap
     ethr =  3.64E-10,  avg # of iterations =  2.0

     total cpu time spent up to now is        4.8 secs

     total energy              =    -329.48758856 Ry
     Harris-Foulkes estimate   =    -329.48758861 Ry
     estimated scf accuracy    <       0.00000002 Ry

     iteration #  7     ecut=    30.00 Ry     beta=0.70
     Davidson diagonalization with overlap
     ethr =  3.88E-11,  avg # of iterations =  2.0

     total cpu time spent up to now is        4.9 secs

     End of self-consistent calculation

          k = 0.0000 0.0000 0.0000 ( 22119 PWs)   bands (ev):

    -8.4050  -7.7290  -7.6252  -7.1829  -6.9732  -6.7581  -6.7538  -6.4413
    -6.2497  -6.0535  -5.9772  -5.7585  -5.7127  -5.6749  -5.4471  -5.3296
    -5.3201  -5.2304  -5.1921  -5.1770  -5.1719  -5.1325  -4.9814  -4.9203
    -4.8416  -4.6736  -4.3996  -3.7872  -2.4999  -2.1769  -0.5211  -0.2288
     0.5302   0.7735

     the Fermi energy is    -3.7687 ev

!    total energy              =    -329.48758859 Ry
     Harris-Foulkes estimate   =    -329.48758857 Ry
     estimated scf accuracy    <          5.6E-09 Ry

     The total energy is the sum of the following terms:

     one-electron contribution =    -609.50123133 Ry
     hartree contribution      =     326.21701287 Ry
     xc contribution           =     -51.41198245 Ry
     ewald contribution        =       5.20994157 Ry
     smearing contrib. (-TS)   =      -0.00132926 Ry

     convergence has been achieved in   7 iterations

     Forces acting on atoms (Ry/au):

     atom    1 type  1   force =    -0.00434528   -0.00117552   -0.00659036
     atom    2 type  1   force =     0.00005053    0.00199830   -0.00251446
     atom    3 type  1   force =    -0.00255579    0.00338528    0.01026467
     atom    4 type  1   force =     0.00252390   -0.00143222    0.00072592
     atom    5 type  1   force =     0.00432663   -0.00277584   -0.00188576

     Total force =     0.015372     Total SCF correction =     0.000285

     number of scf cycles    =   2
     number of bfgs steps    =   1

     energy   old            =    -329.4873285873 Ry
     energy   new            =    -329.4875885904 Ry

     CASE: energy  _new < energy  _old


     WARNING: bfgs curvature condition failed, Theta= 0.856
     new trust radius        =       0.0126164513 bohr
     new conv_thr            =       0.0000000003 Ry


ATOMIC_POSITIONS (bohr)
Au      -1.860500632   2.443396356  -0.594885670
Au      -0.635816413   3.281871896   4.282052540
Au       3.046107630   1.801250598   0.393196850
Au       4.296242738   3.828653287   5.515050206
Au       7.638357676   1.506366863   2.439714074



     Writing output data file pwscf.save
     Check: negative starting charge=   -0.006380
     NEW-OLD atomic charge density approx. for the potential
     Check: negative starting charge=   -0.006374

     negative rho (up, down):  8.706E-06 0.000E+00

     total cpu time spent up to now is        5.1 secs

     per-process dynamical memory:    50.6 Mb

     Self-consistent Calculation

     iteration #  1     ecut=    30.00 Ry     beta=0.70
     Davidson diagonalization with overlap
     ethr =  1.00E-06,  avg # of iterations =  4.0

     Threshold (ethr) on eigenvalues was too large:
     Diagonalizing with lowered threshold

     Davidson diagonalization with overlap
     ethr =  4.44E-08,  avg # of iterations =  1.0

     total cpu time spent up to now is        5.6 secs

     total energy              =    -329.48784045 Ry
     Harris-Foulkes estimate   =    -329.48784396 Ry
     estimated scf accuracy    <       0.00002509 Ry

     iteration #  2     ecut=    30.00 Ry     beta=0.70
     Davidson diagonalization with overlap
     ethr =  4.56E-08,  avg # of iterations =  3.0

     total cpu time spent up to now is        5.9 secs

     total energy              =    -329.48783955 Ry
     Harris-Foulkes estimate   =    -329.48785830 Ry
     estimated scf accuracy    <       0.00004355 Ry

     iteration #  3     ecut=    30.00 Ry     beta=0.70
     Davidson diagonalization with overlap
     ethr =  4.56E-08,  avg # of iterations =  2.0

     total cpu time spent up to now is        6.1 secs

     total energy              =    -329.48784942 Ry
     Harris-Foulkes estimate   =    -329.48785186 Ry
     estimated scf accuracy    <       0.00000863 Ry

     iteration #  4     ecut=    30.00 Ry     beta=0.70
     Davidson diagonalization with overlap
     ethr =  1.57E-08,  avg # of iterations =  2.0

     total cpu time spent up to now is        6.3 secs

     total energy              =    -329.48785119 Ry
     Harris-Foulkes estimate   =    -329.48785110 Ry
     estimated scf accuracy    <       0.00000042 Ry

     iteration #  5     ecut=    30.00 Ry     beta=0.70
     Davidson diagonalization with overlap
     ethr =  7.71E-10,  avg # of iterations =  3.0

     total cpu time spent up to now is        6.5 secs

     total energy              =    -329.48785125 Ry
     Harris-Foulkes estimate   =    -329.48785135 Ry
     estimated scf accuracy    <       0.00000012 Ry

     iteration #  6     ecut=    30.00 Ry     beta=0.70
     Davidson diagonalization with overlap
     ethr =  2.25E-10,  avg # of iterations =  2.0

     total cpu time spent up to now is        6.7 secs

     total energy              =    -329.48785125 Ry
     Harris-Foulkes estimate   =    -329.48785128 Ry
     estimated scf accuracy    <       0.00000001 Ry

     iteration #  7     ecut=    30.00 Ry     beta=0.70
     Davidson diagonalization with overlap
     ethr =  2.48E-11,  avg # of iterations =  2.0

     total cpu time spent up to now is        6.9 secs

     total energy              =    -329.48785129 Ry
     Harris-Foulkes estimate   =    -329.48785126 Ry
     estimated scf accuracy    <          3.0E-09 Ry

     iteration #  8     ecut=    30.00 Ry     beta=0.70
     Davidson diagonalization with overlap
     ethr =  5.43E-12,  avg # of iterations =  2.0

     total cpu time spent up to now is        7.2 secs

     total energy              =    -329.48785131 Ry
     Harris-Foulkes estimate   =    -329.48785129 Ry
     estimated scf accuracy    <          1.4E-09 Ry

     iteration #  9     ecut=    30.00 Ry     beta=0.70
     Davidson diagonalization with overlap
     ethr =  2.60E-12,  avg # of iterations =  2.0

     total cpu time spent up to now is        7.3 secs

     End of self-consistent calculation

          k = 0.0000 0.0000 0.0000 ( 22119 PWs)   bands (ev):

    -8.4067  -7.7292  -7.6230  -7.1874  -6.9678  -6.7549  -6.7479  -6.4415
    -6.2510  -6.0472  -5.9789  -5.7578  -5.7120  -5.6763  -5.4461  -5.3299
    -5.3287  -5.2293  -5.1956  -5.1783  -5.1714  -5.1322  -4.9844  -4.9236
    -4.8424  -4.6753  -4.4054  -3.7858  -2.5021  -2.1800  -0.5216  -0.2262
     0.5270   0.7728

     the Fermi energy is    -3.7661 ev

!    total energy              =    -329.48785132 Ry
     Harris-Foulkes estimate   =    -329.48785131 Ry
     estimated scf accuracy    <          1.2E-10 Ry

     The total energy is the sum of the following terms:

     one-electron contribution =    -609.36042469 Ry
     hartree contribution      =     326.14457597 Ry
     xc contribution           =     -51.41030179 Ry
     ewald contribution        =       5.13988785 Ry
     smearing contrib. (-TS)   =      -0.00158866 Ry

     convergence has been achieved in   9 iterations

     Forces acting on atoms (Ry/au):

     atom    1 type  1   force =    -0.00358930   -0.00118570   -0.00570526
     atom    2 type  1   force =     0.00009858    0.00202856   -0.00288867
     atom    3 type  1   force =    -0.00279949    0.00335344    0.00979835
     atom    4 type  1   force =     0.00237550   -0.00149845    0.00063668
     atom    5 type  1   force =     0.00391471   -0.00269786   -0.00184110

     Total force =     0.014446     Total SCF correction =     0.000034

     number of scf cycles    =   3
     number of bfgs steps    =   2

     energy   old            =    -329.4875885904 Ry
     energy   new            =    -329.4878513197 Ry

     CASE: energy  _new < energy  _old

     new trust radius        =       0.0189246769 bohr
     new conv_thr            =       0.0000000003 Ry


ATOMIC_POSITIONS (bohr)
Au      -1.867440985   2.441354428  -0.605615976
Au      -0.635686047   3.285379272   4.277421843
Au       3.041544533   1.807076665   0.410614614
Au       4.300488861   3.826104907   5.516237923
Au       7.645484637   1.501623728   2.436469596



     Writing output data file pwscf.save
     Check: negative starting charge=   -0.006374
     NEW-OLD atomic charge density approx. for the potential
     Check: negative starting charge=   -0.006368

     negative rho (up, down):  3.605E-05 0.000E+00

     total cpu time spent up to now is        7.6 secs

     per-process dynamical memory:    50.6 Mb

     Self-consistent Calculation

     iteration #  1     ecut=    30.00 Ry     beta=0.70
     Davidson diagonalization with overlap
     ethr =  1.00E-06,  avg # of iterations =  4.0

     Threshold (ethr) on eigenvalues was too large:
     Diagonalizing with lowered threshold

     Davidson diagonalization with overlap
     ethr =  9.38E-08,  avg # of iterations =  1.0

     negative rho (up, down):  9.754E-08 0.000E+00

     total cpu time spent up to now is        8.0 secs

     total energy              =    -329.48818740 Ry
     Harris-Foulkes estimate   =    -329.48819301 Ry
     estimated scf accuracy    <       0.00005187 Ry

     iteration #  2     ecut=    30.00 Ry     beta=0.70
     Davidson diagonalization with overlap
     ethr =  9.43E-08,  avg # of iterations =  3.0

     total cpu time spent up to now is        8.3 secs

     total energy              =    -329.48818635 Ry
     Harris-Foulkes estimate   =    -329.48822222 Ry
     estimated scf accuracy    <       0.00008101 Ry

     iteration #  3     ecut=    30.00 Ry     beta=0.70
     Davidson diagonalization with overlap
     ethr =  9.43E-08,  avg # of iterations =  2.0

     total cpu time spent up to now is        8.5 secs

     total energy              =    -329.48820540 Ry
     Harris-Foulkes estimate   =    -329.48821027 Ry
     estimated scf accuracy    <       0.00001849 Ry

     iteration #  4     ecut=    30.00 Ry     beta=0.70
     Davidson diagonalization with overlap
     ethr =  3.36E-08,  avg # of iterations =  2.0

     total cpu time spent up to now is        8.7 secs

     total energy              =    -329.48820851 Ry
     Harris-Foulkes estimate   =    -329.48820908 Ry
     estimated scf accuracy    <       0.00000103 Ry

     iteration #  5     ecut=    30.00 Ry     beta=0.70
     Davidson diagonalization with overlap
     ethr =  1.88E-09,  avg # of iterations =  3.0

     total cpu time spent up to now is        8.9 secs

     total energy              =    -329.48820895 Ry
     Harris-Foulkes estimate   =    -329.48820888 Ry
     estimated scf accuracy    <       0.00000031 Ry

     iteration #  6     ecut=    30.00 Ry     beta=0.70
     Davidson diagonalization with overlap
     ethr =  5.68E-10,  avg # of iterations =  2.0

     total cpu time spent up to now is        9.1 secs

     total energy              =    -329.48820912 Ry
     Harris-Foulkes estimate   =    -329.48820902 Ry
     estimated scf accuracy    <       0.00000003 Ry

     iteration #  7     ecut=    30.00 Ry     beta=0.70
     Davidson diagonalization with overlap
     ethr =  5.08E-11,  avg # of iterations =  2.0

     total cpu time spent up to now is        9.4 secs

     total energy              =    -329.48820909 Ry
     Harris-Foulkes estimate   =    -329.48820912 Ry
     estimated scf accuracy    <          6.2E-09 Ry

     iteration #  8     ecut=    30.00 Ry     beta=0.70
     Davidson diagonalization with overlap
     ethr =  1.12E-11,  avg # of iterations =  2.0

     total cpu time spent up to now is        9.6 secs

     total energy              =    -329.48820903 Ry
     Harris-Foulkes estimate   =    -329.48820909 Ry
     estimated scf accuracy    <          3.0E-09 Ry

     iteration #  9     ecut=    30.00 Ry     beta=0.70
     Davidson diagonalization with overlap
     ethr =  5.40E-12,  avg # of iterations =  2.0

     total cpu time spent up to now is        9.8 secs

     total energy              =    -329.48820905 Ry
     Harris-Foulkes estimate   =    -329.48820903 Ry
     estimated scf accuracy    <          2.7E-10 Ry

     iteration # 10     ecut=    30.00 Ry     beta=0.70
     Davidson diagonalization with overlap
     ethr =  4.86E-13,  avg # of iterations =  2.0

     total cpu time spent up to now is       10.0 secs

     End of self-consistent calculation

          k = 0.0000 0.0000 0.0000 ( 22119 PWs)   bands (ev):

    -8.4107  -7.7310  -7.6213  -7.1947  -6.9603  -6.7549  -6.7367  -6.4432
    -6.2533  -6.0386  -5.9822  -5.7571  -5.7112  -5.6789  -5.4444  -5.3434
    -5.3282  -5.2279  -5.2009  -5.1799  -5.1707  -5.1316  -4.9885  -4.9283
    -4.8433  -4.6776  -4.4138  -3.7834  -2.5048  -2.1840  -0.5226  -0.2223
     0.5228   0.7720

     the Fermi energy is    -3.7618 ev

!    total energy              =    -329.48820907 Ry
     Harris-Foulkes estimate   =    -329.48820905 Ry
     estimated scf accuracy    <          3.3E-11 Ry

     The total energy is the sum of the following terms:

     one-electron contribution =    -609.22712935 Ry
     hartree contribution      =     326.07463964 Ry
     xc contribution           =     -51.40817423 Ry
     ewald contribution        =       5.07442757 Ry
     smearing contrib. (-TS)   =      -0.00197270 Ry

     convergence has been achieved in  10 iterations

     Forces acting on atoms (Ry/au):

     atom    1 type  1   force =    -0.00270809   -0.00118352   -0.00468521
     atom    2 type  1   force =     0.00014341    0.00210997   -0.00323170
     atom    3 type  1   force =    -0.00289280    0.00323979    0.00916827
     atom    4 type  1   force =     0.00216889   -0.00156641    0.00055199
     atom    5 type  1   force =     0.00328859   -0.00259982   -0.00180335

     Total force =     0.013297     Total SCF correction =     0.000025

     number of scf cycles    =   4
     number of bfgs steps    =   3

     energy   old            =    -329.4878513197 Ry
     energy   new            =    -329.4882090661 Ry

     CASE: energy  _new < energy  _old

     new trust radius        =       0.0283870153 bohr
     new conv_thr            =       0.0000000004 Ry


ATOMIC_POSITIONS (bohr)
Au      -1.876872777   2.438200341  -0.620705440
Au      -0.635418794   3.290928496   4.269759033
Au       3.034363413   1.815914281   0.436617512
Au       4.306748371   3.822063024   5.517951178
Au       7.655570787   1.494432858   2.431505718



     Writing output data file pwscf.save
     Check: negative starting charge=   -0.006368
     NEW-OLD atomic charge density approx. for the potential
     Check: negative starting charge=   -0.006364

     negative rho (up, down):  1.128E-04 0.000E+00

     total cpu time spent up to now is       10.2 secs

     per-process dynamical memory:    50.6 Mb

     Self-consistent Calculation

     iteration #  1     ecut=    30.00 Ry     beta=0.70
     Davidson diagonalization with overlap
     ethr =  1.00E-06,  avg # of iterations =  4.0

     negative rho (up, down):  1.031E-06 0.000E+00

     total cpu time spent up to now is       10.6 secs

     total energy              =    -329.48863808 Ry
     Harris-Foulkes estimate   =    -329.48864796 Ry
     estimated scf accuracy    <       0.00011144 Ry

     iteration #  2     ecut=    30.00 Ry     beta=0.70
     Davidson diagonalization with overlap
     ethr =  2.03E-07,  avg # of iterations =  3.0

     negative rho (up, down):  1.116E-07 0.000E+00

     total cpu time spent up to now is       10.9 secs

     total energy              =    -329.48863708 Ry
     Harris-Foulkes estimate   =    -329.48871192 Ry
     estimated scf accuracy    <       0.00016418 Ry

     iteration #  3     ecut=    30.00 Ry     beta=0.70
     Davidson diagonalization with overlap
     ethr =  2.03E-07,  avg # of iterations =  2.0

     total cpu time spent up to now is       11.1 secs

     total energy              =    -329.48867475 Ry
     Harris-Foulkes estimate   =    -329.48868655 Ry
     estimated scf accuracy    <       0.00003993 Ry

     iteration #  4     ecut=    30.00 Ry     beta=0.70
     Davidson diagonalization with overlap
     ethr =  7.26E-08,  avg # of iterations =  2.0

     total cpu time spent up to now is       11.3 secs

     total energy              =    -329.48868270 Ry
     Harris-Foulkes estimate   =    -329.48868278 Ry
     estimated scf accuracy    <       0.00000228 Ry

     iteration #  5     ecut=    30.00 Ry     beta=0.70
     Davidson diagonalization with overlap
     ethr =  4.14E-09,  avg # of iterations =  3.0

     total cpu time spent up to now is       11.5 secs

     total energy              =    -329.48868317 Ry
     Harris-Foulkes estimate   =    -329.48868352 Ry
     estimated scf accuracy    <       0.00000069 Ry

     iteration #  6     ecut=    30.00 Ry     beta=0.70
     Davidson diagonalization with overlap
     ethr =  1.25E-09,  avg # of iterations =  2.0

     total cpu time spent up to now is       11.7 secs

     total energy              =    -329.48868335 Ry
     Harris-Foulkes estimate   =    -329.48868333 Ry
     estimated scf accuracy    <       0.00000005 Ry

     iteration #  7     ecut=    30.00 Ry     beta=0.70
     Davidson diagonalization with overlap
     ethr =  9.45E-11,  avg # of iterations =  3.0

     total cpu time spent up to now is       12.0 secs

     total energy              =    -329.48868341 Ry
     Harris-Foulkes estimate   =    -329.48868336 Ry
     estimated scf accuracy    <          5.6E-09 Ry

     iteration #  8     ecut=    30.00 Ry     beta=0.70
     Davidson diagonalization with overlap
     ethr =  1.02E-11,  avg # of iterations =  2.0

     total cpu time spent up to now is       12.2 secs

     total energy              =    -329.48868342 Ry
     Harris-Foulkes estimate   =    -329.48868341 Ry
     estimated scf accuracy    <          1.2E-09 Ry

     iteration #  9     ecut=    30.00 Ry     beta=0.70
     Davidson diagonalization with overlap
     ethr =  2.26E-12,  avg # of iterations =  2.0

     total cpu time spent up to now is       12.4 secs

     total energy              =    -329.48868342 Ry
     Harris-Foulkes estimate   =    -329.48868342 Ry
     estimated scf accuracy    <          8.2E-10 Ry

     iteration # 10     ecut=    30.00 Ry     beta=0.70
     Davidson diagonalization with overlap
     ethr =  1.49E-12,  avg # of iterations =  2.0

     total cpu time spent up to now is       12.6 secs

     End of self-consistent calculation

          k = 0.0000 0.0000 0.0000 ( 22119 PWs)   bands (ev):

    -8.4180  -7.7355  -7.6213  -7.2058  -6.9498  -6.7560  -6.7211  -6.4478
    -6.2568  -6.0266  -5.9883  -5.7559  -5.7107  -5.6829  -5.4411  -5.3635
    -5.3267  -5.2259  -5.2088  -5.1821  -5.1694  -5.1303  -4.9943  -4.9348
    -4.8437  -4.6805  -4.4259  -3.7797  -2.5083  -2.1894  -0.5243  -0.2164
     0.5172   0.7708

     the Fermi energy is    -3.7554 ev

!    total energy              =    -329.48868344 Ry
     Harris-Foulkes estimate   =    -329.48868342 Ry
     estimated scf accuracy    <          1.0E-10 Ry

     The total energy is the sum of the following terms:

     one-electron contribution =    -609.11506264 Ry
     hartree contribution      =     326.01344494 Ry
     xc contribution           =     -51.40553255 Ry
     ewald contribution        =       5.02099317 Ry
     smearing contrib. (-TS)   =      -0.00252636 Ry

     convergence has been achieved in  10 iterations

     Forces acting on atoms (Ry/au):

     atom    1 type  1   force =    -0.00161883   -0.00113816   -0.00349823
     atom    2 type  1   force =     0.00014340    0.00224641   -0.00347415
     atom    3 type  1   force =    -0.00279394    0.00299818    0.00821286
     atom    4 type  1   force =     0.00189387   -0.00163914    0.00050175
     atom    5 type  1   force =     0.00237549   -0.00246730   -0.00174223

     Total force =     0.011783     Total SCF correction =     0.000034

     number of scf cycles    =   5
     number of bfgs steps    =   4

     energy   old            =    -329.4882090661 Ry
     energy   new            =    -329.4886834421 Ry

     CASE: energy  _new < energy  _old

     new trust radius        =       0.0425805230 bohr
     new conv_thr            =       0.0000000005 Ry


ATOMIC_POSITIONS (bohr)
Au      -1.889775878   2.433366668  -0.642257775
Au      -0.635004772   3.299791877   4.257444990
Au       3.023361866   1.829269647   0.475523824
Au       4.316040489   3.815653919   5.520538250
Au       7.669769294   1.483456890   2.423878712



     Writing output data file pwscf.save
     Check: negative starting charge=   -0.006364
     NEW-OLD atomic charge density approx. for the potential
     Check: negative starting charge=   -0.006373

     negative rho (up, down):  2.888E-04 0.000E+00

     total cpu time spent up to now is       12.8 secs

     per-process dynamical memory:    50.7 Mb

     Self-consistent Calculation

     iteration #  1     ecut=    30.00 Ry     beta=0.70
     Davidson diagonalization with overlap
     ethr =  1.00E-06,  avg # of iterations =  5.0

     negative rho (up, down):  6.959E-06 0.000E+00

     total cpu time spent up to now is       13.2 secs

     total energy              =    -329.48916806 Ry
     Harris-Foulkes estimate   =    -329.48915292 Ry
     estimated scf accuracy    <       0.00024201 Ry

     iteration #  2     ecut=    30.00 Ry     beta=0.70
     Davidson diagonalization with overlap
     ethr =  4.40E-07,  avg # of iterations =  3.0

     negative rho (up, down):  1.138E-06 0.000E+00

     total cpu time spent up to now is       13.4 secs

     total energy              =    -329.48916755 Ry
     Harris-Foulkes estimate   =    -329.48932855 Ry
     estimated scf accuracy    <       0.00035221 Ry

     iteration #  3     ecut=    30.00 Ry     beta=0.70
     Davidson diagonalization with overlap
     ethr =  4.40E-07,  avg # of iterations =  2.0

     negative rho (up, down):  1.931E-08 0.000E+00

     total cpu time spent up to now is       13.6 secs

     total energy              =    -329.48924601 Ry
     Harris-Foulkes estimate   =    -329.48927392 Ry
     estimated scf accuracy    <       0.00008628 Ry

     iteration #  4     ecut=    30.00 Ry     beta=0.70
     Davidson diagonalization with overlap
     ethr =  1.57E-07,  avg # of iterations =  2.0

     total cpu time spent up to now is       13.8 secs

     total energy              =    -329.48926416 Ry
     Harris-Foulkes estimate   =    -329.48926346 Ry
     estimated scf accuracy    <       0.00000494 Ry

     iteration #  5     ecut=    30.00 Ry     beta=0.70
     Davidson diagonalization with overlap
     ethr =  8.98E-09,  avg # of iterations =  3.0

     total cpu time spent up to now is       14.1 secs

     total energy              =    -329.48926573 Ry
     Harris-Foulkes estimate   =    -329.48926593 Ry
     estimated scf accuracy    <       0.00000156 Ry

     iteration #  6     ecut=    30.00 Ry     beta=0.70
     Davidson diagonalization with overlap
     ethr =  2.84E-09,  avg # of iterations =  2.0

     total cpu time spent up to now is       14.3 secs

     total energy              =    -329.48926604 Ry
     Harris-Foulkes estimate   =    -329.48926609 Ry
     estimated scf accuracy    <       0.00000013 Ry

     iteration #  7     ecut=    30.00 Ry     beta=0.70
     Davidson diagonalization with overlap
     ethr =  2.31E-10,  avg # of iterations =  2.0

     total cpu time spent up to now is       14.5 secs

     total energy              =    -329.48926613 Ry
     Harris-Foulkes estimate   =    -329.48926607 Ry
     estimated scf accuracy    <       0.00000002 Ry

     iteration #  8     ecut=    30.00 Ry     beta=0.70
     Davidson diagonalization with overlap
     ethr =  3.08E-11,  avg # of iterations =  2.0

     total cpu time spent up to now is       14.7 secs

     total energy              =    -329.48926608 Ry
     Harris-Foulkes estimate   =    -329.48926613 Ry
     estimated scf accuracy    <          9.6E-09 Ry

     iteration #  9     ecut=    30.00 Ry     beta=0.70
     Davidson diagonalization with overlap
     ethr =  1.74E-11,  avg # of iterations =  2.0

     total cpu time spent up to now is       14.9 secs

     total energy              =    -329.48926611 Ry
     Harris-Foulkes estimate   =    -329.48926608 Ry
     estimated scf accuracy    <          2.2E-09 Ry

     iteration # 10     ecut=    30.00 Ry     beta=0.70
     Davidson diagonalization with overlap
     ethr =  4.02E-12,  avg # of iterations =  2.0

     total cpu time spent up to now is       15.1 secs

     End of self-consistent calculation

          k = 0.0000 0.0000 0.0000 ( 22119 PWs)   bands (ev):

    -8.4305  -7.7440  -7.6261  -7.2212  -6.9343  -6.7583  -6.6997  -6.4582
    -6.2613  -6.0097  -5.9990  -5.7538  -5.7103  -5.6887  -5.4348  -5.3920
    -5.3240  -5.2234  -5.2203  -5.1847  -5.1671  -5.1275  -5.0023  -4.9435
    -4.8425  -4.6843  -4.4432  -3.7741  -2.5122  -2.1968  -0.5270  -0.2073
     0.5100   0.7696

     the Fermi energy is    -3.7462 ev

!    total energy              =    -329.48926612 Ry
     Harris-Foulkes estimate   =    -329.48926611 Ry
     estimated scf accuracy    <          1.5E-10 Ry

     The total energy is the sum of the following terms:

     one-electron contribution =    -609.04824737 Ry
     hartree contribution      =     325.97251305 Ry
     xc contribution           =     -51.40242188 Ry
     ewald contribution        =       4.99217655 Ry
     smearing contrib. (-TS)   =      -0.00328646 Ry

     convergence has been achieved in  10 iterations

     Forces acting on atoms (Ry/au):

     atom    1 type  1   force =    -0.00014548   -0.00101475   -0.00207849
     atom    2 type  1   force =    -0.00005683    0.00243287   -0.00333521
     atom    3 type  1   force =    -0.00238252    0.00253175    0.00629771
     atom    4 type  1   force =     0.00154845   -0.00169724    0.00064412
     atom    5 type  1   force =     0.00103637   -0.00225263   -0.00152813

     Total force =     0.009399     Total SCF correction =     0.000060

     number of scf cycles    =   6
     number of bfgs steps    =   5

     energy   old            =    -329.4886834421 Ry
     energy   new            =    -329.4892661207 Ry

     CASE: energy  _new < energy  _old

     new trust radius        =       0.0638707845 bohr
     new conv_thr            =       0.0000000006 Ry


ATOMIC_POSITIONS (bohr)
Au      -1.907180375   2.425892289  -0.673545117
Au      -0.634725159   3.314352493   4.237935160
Au       3.006580033   1.849639799   0.533686561
Au       4.330131735   3.805277480   5.524924438
Au       7.689584767   1.466376938   2.412126958



     Writing output data file pwscf.save
     Check: negative starting charge=   -0.006373
     NEW-OLD atomic charge density approx. for the potential
     Check: negative starting charge=   -0.006408

     negative rho (up, down):  6.413E-04 0.000E+00

     total cpu time spent up to now is       15.4 secs

     per-process dynamical memory:    50.7 Mb

     Self-consistent Calculation

     iteration #  1     ecut=    30.00 Ry     beta=0.70
     Davidson diagonalization with overlap
     ethr =  1.00E-06,  avg # of iterations =  6.0

     negative rho (up, down):  3.051E-05 0.000E+00

     total cpu time spent up to now is       15.8 secs

     total energy              =    -329.48958281 Ry
     Harris-Foulkes estimate   =    -329.48937463 Ry
     estimated scf accuracy    <       0.00052894 Ry

     iteration #  2     ecut=    30.00 Ry     beta=0.70
     Davidson diagonalization with overlap
     ethr =  9.62E-07,  avg # of iterations =  4.0

     negative rho (up, down):  7.435E-06 0.000E+00

     total cpu time spent up to now is       16.0 secs

     total energy              =    -329.48958577 Ry
     Harris-Foulkes estimate   =    -329.48993532 Ry
     estimated scf accuracy    <       0.00076802 Ry

     iteration #  3     ecut=    30.00 Ry     beta=0.70
     Davidson diagonalization with overlap
     ethr =  9.62E-07,  avg # of iterations =  2.0

     negative rho (up, down):  2.907E-07 0.000E+00

     total cpu time spent up to now is       16.2 secs

     total energy              =    -329.48975479 Ry
     Harris-Foulkes estimate   =    -329.48981624 Ry
     estimated scf accuracy    <       0.00018415 Ry

     iteration #  4     ecut=    30.00 Ry     beta=0.70
     Davidson diagonalization with overlap
     ethr =  3.35E-07,  avg # of iterations =  2.0

     total cpu time spent up to now is       16.4 secs

     total energy              =    -329.48979220 Ry
     Harris-Foulkes estimate   =    -329.48979266 Ry
     estimated scf accuracy    <       0.00001125 Ry

     iteration #  5     ecut=    30.00 Ry     beta=0.70
     Davidson diagonalization with overlap
     ethr =  2.05E-08,  avg # of iterations =  3.0

     total cpu time spent up to now is       16.7 secs

     total energy              =    -329.48979487 Ry
     Harris-Foulkes estimate   =    -329.48979626 Ry
     estimated scf accuracy    <       0.00000403 Ry

     iteration #  6     ecut=    30.00 Ry     beta=0.70
     Davidson diagonalization with overlap
     ethr =  7.32E-09,  avg # of iterations =  2.0

     total cpu time spent up to now is       16.9 secs

     total energy              =    -329.48979587 Ry
     Harris-Foulkes estimate   =    -329.48979575 Ry
     estimated scf accuracy    <       0.00000028 Ry

     iteration #  7     ecut=    30.00 Ry     beta=0.70
     Davidson diagonalization with overlap
     ethr =  5.01E-10,  avg # of iterations =  2.0

     total cpu time spent up to now is       17.1 secs

     total energy              =    -329.48979586 Ry
     Harris-Foulkes estimate   =    -329.48979595 Ry
     estimated scf accuracy    <       0.00000005 Ry

     iteration #  8     ecut=    30.00 Ry     beta=0.70
     Davidson diagonalization with overlap
     ethr =  9.79E-11,  avg # of iterations =  2.0

     total cpu time spent up to now is       17.3 secs

     total energy              =    -329.48979587 Ry
     Harris-Foulkes estimate   =    -329.48979588 Ry
     estimated scf accuracy    <       0.00000003 Ry

     iteration #  9     ecut=    30.00 Ry     beta=0.70
     Davidson diagonalization with overlap
     ethr =  5.00E-11,  avg # of iterations =  2.0

     total cpu time spent up to now is       17.5 secs

     total energy              =    -329.48979593 Ry
     Harris-Foulkes estimate   =    -329.48979588 Ry
     estimated scf accuracy    <          3.0E-09 Ry

     iteration # 10     ecut=    30.00 Ry     beta=0.70
     Davidson diagonalization with overlap
     ethr =  5.44E-12,  avg # of iterations =  2.0

     total cpu time spent up to now is       17.7 secs

     End of self-consistent calculation

          k = 0.0000 0.0000 0.0000 ( 22119 PWs)   bands (ev):

    -8.4504  -7.7590  -7.6430  -7.2382  -6.9105  -6.7613  -6.6707  -6.4802
    -6.2656  -6.0187  -5.9844  -5.7508  -5.7102  -5.6946  -5.4302  -5.4221
    -5.3195  -5.2371  -5.2196  -5.1868  -5.1635  -5.1219  -5.0126  -4.9544
    -4.8362  -4.6889  -4.4673  -3.7660  -2.5156  -2.2071  -0.5313  -0.1934
     0.5008   0.7688

     the Fermi energy is    -3.7338 ev

!    total energy              =    -329.48979591 Ry
     Harris-Foulkes estimate   =    -329.48979593 Ry
     estimated scf accuracy    <          3.5E-10 Ry

     The total energy is the sum of the following terms:

     one-electron contribution =    -609.05311689 Ry
     hartree contribution      =     325.96516579 Ry
     xc contribution           =     -51.39914868 Ry
     ewald contribution        =       5.00155059 Ry
     smearing contrib. (-TS)   =      -0.00424672 Ry

     convergence has been achieved in  10 iterations

     Forces acting on atoms (Ry/au):

     atom    1 type  1   force =     0.00206405   -0.00072672   -0.00040990
     atom    2 type  1   force =    -0.00079059    0.00274532   -0.00202934
     atom    3 type  1   force =    -0.00158751    0.00132053    0.00185219
     atom    4 type  1   force =     0.00124003   -0.00163085    0.00138814
     atom    5 type  1   force =    -0.00092597   -0.00170828   -0.00080108

     Total force =     0.005956     Total SCF correction =     0.000098

     number of scf cycles    =   7
     number of bfgs steps    =   6

     energy   old            =    -329.4892661207 Ry
     energy   new            =    -329.4897959065 Ry

     CASE: energy  _new < energy  _old

     new trust radius        =       0.0401661838 bohr
     new conv_thr            =       0.0000000003 Ry


ATOMIC_POSITIONS (bohr)
Au      -1.915170957   2.420641298  -0.693118471
Au      -0.635796595   3.326403038   4.224612467
Au       2.995009941   1.863074379   0.569727751
Au       4.340134026   3.797201395   5.529554023
Au       7.700214585   1.454218890   2.404352230



     Writing output data file pwscf.save
     Check: negative starting charge=   -0.006408
     NEW-OLD atomic charge density approx. for the potential
     Check: negative starting charge=   -0.006438

     negative rho (up, down):  2.621E-04 0.000E+00

     total cpu time spent up to now is       17.9 secs

     per-process dynamical memory:    50.7 Mb

     Self-consistent Calculation

     iteration #  1     ecut=    30.00 Ry     beta=0.70
     Davidson diagonalization with overlap
     ethr =  1.00E-06,  avg # of iterations =  4.0

     negative rho (up, down):  5.733E-06 0.000E+00

     total cpu time spent up to now is       18.3 secs

     total energy              =    -329.48982609 Ry
     Harris-Foulkes estimate   =    -329.48981744 Ry
     estimated scf accuracy    <       0.00021038 Ry

     iteration #  2     ecut=    30.00 Ry     beta=0.70
     Davidson diagonalization with overlap
     ethr =  3.83E-07,  avg # of iterations =  3.0

     negative rho (up, down):  8.168E-07 0.000E+00

     total cpu time spent up to now is       18.5 secs

     total energy              =    -329.48983315 Ry
     Harris-Foulkes estimate   =    -329.48995928 Ry
     estimated scf accuracy    <       0.00027046 Ry

     iteration #  3     ecut=    30.00 Ry     beta=0.70
     Davidson diagonalization with overlap
     ethr =  3.83E-07,  avg # of iterations =  2.0

     total cpu time spent up to now is       18.7 secs

     total energy              =    -329.48989303 Ry
     Harris-Foulkes estimate   =    -329.48991695 Ry
     estimated scf accuracy    <       0.00007173 Ry

     iteration #  4     ecut=    30.00 Ry     beta=0.70
     Davidson diagonalization with overlap
     ethr =  1.30E-07,  avg # of iterations =  2.0

     total cpu time spent up to now is       18.9 secs

     total energy              =    -329.48990801 Ry
     Harris-Foulkes estimate   =    -329.48990842 Ry
     estimated scf accuracy    <       0.00000513 Ry

     iteration #  5     ecut=    30.00 Ry     beta=0.70
     Davidson diagonalization with overlap
     ethr =  9.32E-09,  avg # of iterations =  3.0

     total cpu time spent up to now is       19.1 secs

     total energy              =    -329.48990904 Ry
     Harris-Foulkes estimate   =    -329.48990976 Ry
     estimated scf accuracy    <       0.00000161 Ry

     iteration #  6     ecut=    30.00 Ry     beta=0.70
     Davidson diagonalization with overlap
     ethr =  2.93E-09,  avg # of iterations =  2.0

     total cpu time spent up to now is       19.3 secs

     total energy              =    -329.48990929 Ry
     Harris-Foulkes estimate   =    -329.48990940 Ry
     estimated scf accuracy    <       0.00000011 Ry

     iteration #  7     ecut=    30.00 Ry     beta=0.70
     Davidson diagonalization with overlap
     ethr =  2.00E-10,  avg # of iterations =  3.0

     total cpu time spent up to now is       19.6 secs

     total energy              =    -329.48990937 Ry
     Harris-Foulkes estimate   =    -329.48990932 Ry
     estimated scf accuracy    <       0.00000003 Ry

     iteration #  8     ecut=    30.00 Ry     beta=0.70
     Davidson diagonalization with overlap
     ethr =  4.55E-11,  avg # of iterations =  2.0

     total cpu time spent up to now is       19.8 secs

     total energy              =    -329.48990931 Ry
     Harris-Foulkes estimate   =    -329.48990938 Ry
     estimated scf accuracy    <          9.9E-09 Ry

     iteration #  9     ecut=    30.00 Ry     beta=0.70
     Davidson diagonalization with overlap
     ethr =  1.79E-11,  avg # of iterations =  2.0

     total cpu time spent up to now is       20.0 secs

     total energy              =    -329.48990929 Ry
     Harris-Foulkes estimate   =    -329.48990932 Ry
     estimated scf accuracy    <          1.5E-09 Ry

     iteration # 10     ecut=    30.00 Ry     beta=0.70
     Davidson diagonalization with overlap
     ethr =  2.67E-12,  avg # of iterations =  2.0

     total cpu time spent up to now is       20.2 secs

     End of self-consistent calculation

          k = 0.0000 0.0000 0.0000 ( 22119 PWs)   bands (ev):

    -8.4647  -7.7699  -7.6579  -7.2430  -6.8951  -6.7634  -6.6542  -6.4966
    -6.2660  -6.0328  -5.9698  -5.7506  -5.7108  -5.6954  -5.4502  -5.4128
    -5.3164  -5.2469  -5.2170  -5.1867  -5.1618  -5.1184  -5.0175  -4.9602
    -4.8307  -4.6907  -4.4816  -3.7612  -2.5154  -2.2140  -0.5341  -0.1846
     0.4963   0.7688

     the Fermi energy is    -3.7268 ev

!    total energy              =    -329.48990927 Ry
     Harris-Foulkes estimate   =    -329.48990929 Ry
     estimated scf accuracy    <          1.2E-10 Ry

     The total energy is the sum of the following terms:

     one-electron contribution =    -609.08960407 Ry
     hartree contribution      =     325.97839540 Ry
     xc contribution           =     -51.39783545 Ry
     ewald contribution        =       5.02388278 Ry
     smearing contrib. (-TS)   =      -0.00474792 Ry

     convergence has been achieved in  10 iterations

     Forces acting on atoms (Ry/au):

     atom    1 type  1   force =     0.00311127   -0.00052613    0.00021851
     atom    2 type  1   force =    -0.00131591    0.00294462   -0.00064825
     atom    3 type  1   force =    -0.00073116    0.00039562   -0.00117556
     atom    4 type  1   force =     0.00103809   -0.00159031    0.00188550
     atom    5 type  1   force =    -0.00210229   -0.00122380   -0.00028020

     Total force =     0.006005     Total SCF correction =     0.000057

     number of scf cycles    =   8
     number of bfgs steps    =   7

     energy   old            =    -329.4897959065 Ry
     energy   new            =    -329.4899092670 Ry

     CASE: energy  _new < energy  _old

     new trust radius        =       0.0056080564 bohr
     new conv_thr            =       0.0000000001 Ry


ATOMIC_POSITIONS (bohr)
Au      -1.913129229   2.419362718  -0.695854047
Au      -0.637402740   3.331232377   4.222257032
Au       2.992732232   1.865329216   0.573458284
Au       4.342677585   3.794398680   5.532278964
Au       7.699513152   1.451216009   2.402987767



     Writing output data file pwscf.save
     Check: negative starting charge=   -0.006438
     NEW-OLD atomic charge density approx. for the potential
     Check: negative starting charge=   -0.006442

     negative rho (up, down):  5.836E-07 0.000E+00

     total cpu time spent up to now is       20.4 secs

     per-process dynamical memory:    50.7 Mb

     Self-consistent Calculation

     iteration #  1     ecut=    30.00 Ry     beta=0.70
     Davidson diagonalization with overlap
     ethr =  1.00E-06,  avg # of iterations =  3.0

     Threshold (ethr) on eigenvalues was too large:
     Diagonalizing with lowered threshold

     Davidson diagonalization with overlap
     ethr =  1.28E-08,  avg # of iterations =  2.0

     total cpu time spent up to now is       20.8 secs

     total energy              =    -329.48994467 Ry
     Harris-Foulkes estimate   =    -329.48994720 Ry
     estimated scf accuracy    <       0.00000758 Ry

     iteration #  2     ecut=    30.00 Ry     beta=0.70
     Davidson diagonalization with overlap
     ethr =  1.38E-08,  avg # of iterations =  3.0

     total cpu time spent up to now is       21.1 secs

     total energy              =    -329.48994621 Ry
     Harris-Foulkes estimate   =    -329.48994867 Ry
     estimated scf accuracy    <       0.00000539 Ry

     iteration #  3     ecut=    30.00 Ry     beta=0.70
     Davidson diagonalization with overlap
     ethr =  9.80E-09,  avg # of iterations =  2.0

     total cpu time spent up to now is       21.3 secs

     total energy              =    -329.48994748 Ry
     Harris-Foulkes estimate   =    -329.48994753 Ry
     estimated scf accuracy    <       0.00000047 Ry

     iteration #  4     ecut=    30.00 Ry     beta=0.70
     Davidson diagonalization with overlap
     ethr =  8.57E-10,  avg # of iterations =  3.0

     total cpu time spent up to now is       21.5 secs

     total energy              =    -329.48994777 Ry
     Harris-Foulkes estimate   =    -329.48994777 Ry
     estimated scf accuracy    <       0.00000058 Ry

     iteration #  5     ecut=    30.00 Ry     beta=0.70
     Davidson diagonalization with overlap
     ethr =  8.57E-10,  avg # of iterations =  2.0

     total cpu time spent up to now is       21.7 secs

     total energy              =    -329.48994784 Ry
     Harris-Foulkes estimate   =    -329.48994789 Ry
     estimated scf accuracy    <       0.00000005 Ry

     iteration #  6     ecut=    30.00 Ry     beta=0.70
     Davidson diagonalization with overlap
     ethr =  8.77E-11,  avg # of iterations =  2.0

     total cpu time spent up to now is       21.9 secs

     total energy              =    -329.48994779 Ry
     Harris-Foulkes estimate   =    -329.48994785 Ry
     estimated scf accuracy    <          1.4E-09 Ry

     iteration #  7     ecut=    30.00 Ry     beta=0.70
     Davidson diagonalization with overlap
     ethr =  2.56E-12,  avg # of iterations =  3.0

     total cpu time spent up to now is       22.2 secs

     total energy              =    -329.48994780 Ry
     Harris-Foulkes estimate   =    -329.48994779 Ry
     estimated scf accuracy    <          5.7E-10 Ry

     iteration #  8     ecut=    30.00 Ry     beta=0.70
     Davidson diagonalization with overlap
     ethr =  1.03E-12,  avg # of iterations =  3.0

     total cpu time spent up to now is       22.4 secs

     total energy              =    -329.48994779 Ry
     Harris-Foulkes estimate   =    -329.48994780 Ry
     estimated scf accuracy    <          1.8E-10 Ry

     iteration #  9     ecut=    30.00 Ry     beta=0.70
     Davidson diagonalization with overlap
     ethr =  3.18E-13,  avg # of iterations =  2.0

     total cpu time spent up to now is       22.6 secs

     End of self-consistent calculation

          k = 0.0000 0.0000 0.0000 ( 22119 PWs)   bands (ev):

    -8.4686  -7.7722  -7.6574  -7.2417  -6.8930  -6.7652  -6.6527  -6.4975
    -6.2652  -6.0359  -5.9692  -5.7512  -5.7118  -5.6956  -5.4518  -5.4110
    -5.3156  -5.2479  -5.2163  -5.1863  -5.1622  -5.1183  -5.0169  -4.9609
    -4.8313  -4.6903  -4.4835  -3.7605  -2.5135  -2.2158  -0.5345  -0.1839
     0.4964   0.7689

     the Fermi energy is    -3.7258 ev

!    total energy              =    -329.48994777 Ry
     Harris-Foulkes estimate   =    -329.48994779 Ry
     estimated scf accuracy    <          9.3E-12 Ry

     The total energy is the sum of the following terms:

     one-electron contribution =    -609.09788272 Ry
     hartree contribution      =     325.98202928 Ry
     xc contribution           =     -51.39781634 Ry
     ewald contribution        =       5.02853310 Ry
     smearing contrib. (-TS)   =      -0.00481109 Ry

     convergence has been achieved in   9 iterations

     Forces acting on atoms (Ry/au):

     atom    1 type  1   force =     0.00276382   -0.00046182    0.00011297
     atom    2 type  1   force =    -0.00108838    0.00292479   -0.00035749
     atom    3 type  1   force =    -0.00032432    0.00030354   -0.00134409
     atom    4 type  1   force =     0.00077123   -0.00161795    0.00178251
     atom    5 type  1   force =    -0.00212235   -0.00114856   -0.00019391

     Total force =     0.005656     Total SCF correction =     0.000012

     number of scf cycles    =   9
     number of bfgs steps    =   8

     energy   old            =    -329.4899092670 Ry
     energy   new            =    -329.4899477722 Ry

     CASE: energy  _new < energy  _old


     WARNING: bfgs curvature condition failed, Theta= 0.904
     new trust radius        =       0.0061688621 bohr
     new conv_thr            =            1.0E-10 Ry


ATOMIC_POSITIONS (bohr)
Au      -1.910035188   2.418103278  -0.698045263
Au      -0.639247266   3.336789692   4.220315683
Au       2.990909396   1.867258632   0.575560064
Au       4.345061816   3.791212971   5.535473878
Au       7.697702243   1.448174427   2.401823639



     Writing output data file pwscf.save
     Check: negative starting charge=   -0.006442
     NEW-OLD atomic charge density approx. for the potential
     Check: negative starting charge=   -0.006444

     negative rho (up, down):  6.491E-07 0.000E+00

     total cpu time spent up to now is       22.8 secs

     per-process dynamical memory:    50.7 Mb

     Self-consistent Calculation

     iteration #  1     ecut=    30.00 Ry     beta=0.70
     Davidson diagonalization with overlap
     ethr =  1.00E-06,  avg # of iterations =  3.0

     Threshold (ethr) on eigenvalues was too large:
     Diagonalizing with lowered threshold

     Davidson diagonalization with overlap
     ethr =  1.40E-08,  avg # of iterations =  2.0

     total cpu time spent up to now is       23.2 secs

     total energy              =    -329.48998880 Ry
     Harris-Foulkes estimate   =    -329.48999226 Ry
     estimated scf accuracy    <       0.00000830 Ry

     iteration #  2     ecut=    30.00 Ry     beta=0.70
     Davidson diagonalization with overlap
     ethr =  1.51E-08,  avg # of iterations =  3.0

     total cpu time spent up to now is       23.5 secs

     total energy              =    -329.48998982 Ry
     Harris-Foulkes estimate   =    -329.48999355 Ry
     estimated scf accuracy    <       0.00000713 Ry

     iteration #  3     ecut=    30.00 Ry     beta=0.70
     Davidson diagonalization with overlap
     ethr =  1.30E-08,  avg # of iterations =  2.0

     total cpu time spent up to now is       23.7 secs

     total energy              =    -329.48999153 Ry
     Harris-Foulkes estimate   =    -329.48999159 Ry
     estimated scf accuracy    <       0.00000073 Ry

     iteration #  4     ecut=    30.00 Ry     beta=0.70
     Davidson diagonalization with overlap
     ethr =  1.32E-09,  avg # of iterations =  2.0

     total cpu time spent up to now is       23.9 secs

     total energy              =    -329.48999172 Ry
     Harris-Foulkes estimate   =    -329.48999192 Ry
     estimated scf accuracy    <       0.00000067 Ry

     iteration #  5     ecut=    30.00 Ry     beta=0.70
     Davidson diagonalization with overlap
     ethr =  1.22E-09,  avg # of iterations =  2.0

     total cpu time spent up to now is       24.1 secs

     total energy              =    -329.48999185 Ry
     Harris-Foulkes estimate   =    -329.48999185 Ry
     estimated scf accuracy    <       0.00000004 Ry

     iteration #  6     ecut=    30.00 Ry     beta=0.70
     Davidson diagonalization with overlap
     ethr =  7.52E-11,  avg # of iterations =  2.0

     total cpu time spent up to now is       24.3 secs

     total energy              =    -329.48999180 Ry
     Harris-Foulkes estimate   =    -329.48999186 Ry
     estimated scf accuracy    <          2.2E-09 Ry

     iteration #  7     ecut=    30.00 Ry     beta=0.70
     Davidson diagonalization with overlap
     ethr =  4.00E-12,  avg # of iterations =  3.0

     total cpu time spent up to now is       24.6 secs

     total energy              =    -329.48999183 Ry
     Harris-Foulkes estimate   =    -329.48999180 Ry
     estimated scf accuracy    <          1.3E-09 Ry

     iteration #  8     ecut=    30.00 Ry     beta=0.70
     Davidson diagonalization with overlap
     ethr =  2.42E-12,  avg # of iterations =  2.0

     total cpu time spent up to now is       24.8 secs

     total energy              =    -329.48999183 Ry
     Harris-Foulkes estimate   =    -329.48999183 Ry
     estimated scf accuracy    <          2.3E-10 Ry

     iteration #  9     ecut=    30.00 Ry     beta=0.70
     Davidson diagonalization with overlap
     ethr =  4.25E-13,  avg # of iterations =  2.0

     total cpu time spent up to now is       25.0 secs

     End of self-consistent calculation

          k = 0.0000 0.0000 0.0000 ( 22119 PWs)   bands (ev):

    -8.4724  -7.7742  -7.6557  -7.2398  -6.8914  -6.7673  -6.6517  -6.4974
    -6.2641  -6.0389  -5.9693  -5.7519  -5.7130  -5.6957  -5.4523  -5.4094
    -5.3148  -5.2485  -5.2156  -5.1859  -5.1628  -5.1184  -5.0158  -4.9612
    -4.8325  -4.6898  -4.4849  -3.7601  -2.5112  -2.2175  -0.5349  -0.1839
     0.4969   0.7691

     the Fermi energy is    -3.7252 ev

!    total energy              =    -329.48999184 Ry
     Harris-Foulkes estimate   =    -329.48999183 Ry
     estimated scf accuracy    <          3.6E-11 Ry

     The total energy is the sum of the following terms:

     one-electron contribution =    -609.10295445 Ry
     hartree contribution      =     325.98423740 Ry
     xc contribution           =     -51.39786610 Ry
     ewald contribution        =       5.03144424 Ry
     smearing contrib. (-TS)   =      -0.00485293 Ry

     convergence has been achieved in   9 iterations

     Forces acting on atoms (Ry/au):

     atom    1 type  1   force =     0.00228822   -0.00038567   -0.00002854
     atom    2 type  1   force =    -0.00076911    0.00286520   -0.00014087
     atom    3 type  1   force =     0.00004253    0.00025379   -0.00134847
     atom    4 type  1   force =     0.00046198   -0.00164976    0.00162343
     atom    5 type  1   force =    -0.00202362   -0.00108355   -0.00010554

     Total force =     0.005191     Total SCF correction =     0.000026

     number of scf cycles    =  10
     number of bfgs steps    =   9

     energy   old            =    -329.4899477722 Ry
     energy   new            =    -329.4899918410 Ry

     CASE: energy  _new < energy  _old

     new trust radius        =       0.0092532931 bohr
     new conv_thr            =            1.0E-10 Ry


ATOMIC_POSITIONS (bohr)
Au      -1.905170289   2.416363080  -0.700904003
Au      -0.641770548   3.345372840   4.217952199
Au       2.988912762   1.869784699   0.577394874
Au       4.348088516   3.786240780   5.540310381
Au       7.694330559   1.443777600   2.400374550



     Writing output data file pwscf.save
     Check: negative starting charge=   -0.006444
     NEW-OLD atomic charge density approx. for the potential
     Check: negative starting charge=   -0.006446

     negative rho (up, down):  4.850E-06 0.000E+00

     total cpu time spent up to now is       25.2 secs

     per-process dynamical memory:    50.7 Mb

     Self-consistent Calculation

     iteration #  1     ecut=    30.00 Ry     beta=0.70
     Davidson diagonalization with overlap
     ethr =  1.00E-06,  avg # of iterations =  4.0

     Threshold (ethr) on eigenvalues was too large:
     Diagonalizing with lowered threshold

     Davidson diagonalization with overlap
     ethr =  3.14E-08,  avg # of iterations =  1.0

     total cpu time spent up to now is       25.7 secs

     total energy              =    -329.49004675 Ry
     Harris-Foulkes estimate   =    -329.49005398 Ry
     estimated scf accuracy    <       0.00001817 Ry

     iteration #  2     ecut=    30.00 Ry     beta=0.70
     Davidson diagonalization with overlap
     ethr =  3.30E-08,  avg # of iterations =  3.0

     total cpu time spent up to now is       25.9 secs

     total energy              =    -329.49004911 Ry
     Harris-Foulkes estimate   =    -329.49005746 Ry
     estimated scf accuracy    <       0.00001682 Ry

     iteration #  3     ecut=    30.00 Ry     beta=0.70
     Davidson diagonalization with overlap
     ethr =  3.06E-08,  avg # of iterations =  2.0

     total cpu time spent up to now is       26.1 secs

     total energy              =    -329.49005194 Ry
     Harris-Foulkes estimate   =    -329.49005328 Ry
     estimated scf accuracy    <       0.00000182 Ry

     iteration #  4     ecut=    30.00 Ry     beta=0.70
     Davidson diagonalization with overlap
     ethr =  3.30E-09,  avg # of iterations =  2.0

     total cpu time spent up to now is       26.3 secs

     total energy              =    -329.49005234 Ry
     Harris-Foulkes estimate   =    -329.49005284 Ry
     estimated scf accuracy    <       0.00000148 Ry

     iteration #  5     ecut=    30.00 Ry     beta=0.70
     Davidson diagonalization with overlap
     ethr =  2.69E-09,  avg # of iterations =  2.0

     total cpu time spent up to now is       26.5 secs

     total energy              =    -329.49005266 Ry
     Harris-Foulkes estimate   =    -329.49005263 Ry
     estimated scf accuracy    <       0.00000008 Ry

     iteration #  6     ecut=    30.00 Ry     beta=0.70
     Davidson diagonalization with overlap
     ethr =  1.54E-10,  avg # of iterations =  2.0

     total cpu time spent up to now is       26.8 secs

     total energy              =    -329.49005269 Ry
     Harris-Foulkes estimate   =    -329.49005268 Ry
     estimated scf accuracy    <          4.9E-09 Ry

     iteration #  7     ecut=    30.00 Ry     beta=0.70
     Davidson diagonalization with overlap
     ethr =  8.92E-12,  avg # of iterations =  3.0

     total cpu time spent up to now is       27.0 secs

     total energy              =    -329.49005266 Ry
     Harris-Foulkes estimate   =    -329.49005270 Ry
     estimated scf accuracy    <          2.5E-09 Ry

     iteration #  8     ecut=    30.00 Ry     beta=0.70
     Davidson diagonalization with overlap
     ethr =  4.60E-12,  avg # of iterations =  2.0

     total cpu time spent up to now is       27.2 secs

     total energy              =    -329.49005267 Ry
     Harris-Foulkes estimate   =    -329.49005266 Ry
     estimated scf accuracy    <          1.5E-10 Ry

     iteration #  9     ecut=    30.00 Ry     beta=0.70
     Davidson diagonalization with overlap
     ethr =  2.67E-13,  avg # of iterations =  3.0

     total cpu time spent up to now is       27.4 secs

     End of self-consistent calculation

          k = 0.0000 0.0000 0.0000 ( 22119 PWs)   bands (ev):

    -8.4776  -7.7766  -7.6528  -7.2368  -6.8898  -6.7704  -6.6506  -6.4966
    -6.2626  -6.0427  -5.9700  -5.7530  -5.7148  -5.6958  -5.4523  -5.4073
    -5.3138  -5.2490  -5.2148  -5.1854  -5.1636  -5.1188  -5.0139  -4.9613
    -4.8344  -4.6891  -4.4862  -3.7597  -2.5076  -2.2198  -0.5355  -0.1842
     0.4978   0.7696

     the Fermi energy is    -3.7247 ev

!    total energy              =    -329.49005266 Ry
     Harris-Foulkes estimate   =    -329.49005267 Ry
     estimated scf accuracy    <          1.0E-11 Ry

     The total energy is the sum of the following terms:

     one-electron contribution =    -609.10535598 Ry
     hartree contribution      =     325.98519007 Ry
     xc contribution           =     -51.39798923 Ry
     ewald contribution        =       5.03299397 Ry
     smearing contrib. (-TS)   =      -0.00489149 Ry

     convergence has been achieved in   9 iterations

     Forces acting on atoms (Ry/au):

     atom    1 type  1   force =     0.00160060   -0.00026088   -0.00020927
     atom    2 type  1   force =    -0.00029031    0.00273202    0.00006018
     atom    3 type  1   force =     0.00043966    0.00021936   -0.00125929
     atom    4 type  1   force =     0.00002996   -0.00169817    0.00137443
     atom    5 type  1   force =    -0.00177992   -0.00099234    0.00003394

     Total force =     0.004580     Total SCF correction =     0.000015

     number of scf cycles    =  11
     number of bfgs steps    =  10

     energy   old            =    -329.4899918410 Ry
     energy   new            =    -329.4900526586 Ry

     CASE: energy  _new < energy  _old

     new trust radius        =       0.0138799397 bohr
     new conv_thr            =            1.0E-10 Ry


ATOMIC_POSITIONS (bohr)
Au      -1.898253610   2.413922742  -0.705150820
Au      -0.644986263   3.358496593   4.214777454
Au       2.986604624   1.873419511   0.579547873
Au       4.351955914   3.778458722   5.547468965
Au       7.689070336   1.437241432   2.398484528



     Writing output data file pwscf.save
     Check: negative starting charge=   -0.006446
     NEW-OLD atomic charge density approx. for the potential
     Check: negative starting charge=   -0.006449

     negative rho (up, down):  2.431E-05 0.000E+00

     total cpu time spent up to now is       27.7 secs

     per-process dynamical memory:    50.7 Mb

     Self-consistent Calculation

     iteration #  1     ecut=    30.00 Ry     beta=0.70
     Davidson diagonalization with overlap
     ethr =  1.00E-06,  avg # of iterations =  4.0

     Threshold (ethr) on eigenvalues was too large:
     Diagonalizing with lowered threshold

     Davidson diagonalization with overlap
     ethr =  7.28E-08,  avg # of iterations =  1.0

     negative rho (up, down):  2.966E-08 0.000E+00

     total cpu time spent up to now is       28.1 secs

     total energy              =    -329.49011434 Ry
     Harris-Foulkes estimate   =    -329.49012877 Ry
     estimated scf accuracy    <       0.00004024 Ry

     iteration #  2     ecut=    30.00 Ry     beta=0.70
     Davidson diagonalization with overlap
     ethr =  7.32E-08,  avg # of iterations =  3.0

     total cpu time spent up to now is       28.4 secs

     total energy              =    -329.49012016 Ry
     Harris-Foulkes estimate   =    -329.49013789 Ry
     estimated scf accuracy    <       0.00003686 Ry

     iteration #  3     ecut=    30.00 Ry     beta=0.70
     Davidson diagonalization with overlap
     ethr =  6.70E-08,  avg # of iterations =  2.0

     total cpu time spent up to now is       28.6 secs

     total energy              =    -329.49012738 Ry
     Harris-Foulkes estimate   =    -329.49012918 Ry
     estimated scf accuracy    <       0.00000347 Ry

     iteration #  4     ecut=    30.00 Ry     beta=0.70
     Davidson diagonalization with overlap
     ethr =  6.31E-09,  avg # of iterations =  2.0

     total cpu time spent up to now is       28.8 secs

     total energy              =    -329.49012751 Ry
     Harris-Foulkes estimate   =    -329.49012920 Ry
     estimated scf accuracy    <       0.00000319 Ry

     iteration #  5     ecut=    30.00 Ry     beta=0.70
     Davidson diagonalization with overlap
     ethr =  5.80E-09,  avg # of iterations =  2.0

     total cpu time spent up to now is       29.0 secs

     total energy              =    -329.49012797 Ry
     Harris-Foulkes estimate   =    -329.49012814 Ry
     estimated scf accuracy    <       0.00000020 Ry

     iteration #  6     ecut=    30.00 Ry     beta=0.70
     Davidson diagonalization with overlap
     ethr =  3.60E-10,  avg # of iterations =  3.0

     total cpu time spent up to now is       29.2 secs

     total energy              =    -329.49012813 Ry
     Harris-Foulkes estimate   =    -329.49012802 Ry
     estimated scf accuracy    <       0.00000001 Ry

     iteration #  7     ecut=    30.00 Ry     beta=0.70
     Davidson diagonalization with overlap
     ethr =  2.35E-11,  avg # of iterations =  3.0

     total cpu time spent up to now is       29.4 secs

     total energy              =    -329.49012804 Ry
     Harris-Foulkes estimate   =    -329.49012813 Ry
     estimated scf accuracy    <          6.4E-09 Ry

     iteration #  8     ecut=    30.00 Ry     beta=0.70
     Davidson diagonalization with overlap
     ethr =  1.16E-11,  avg # of iterations =  2.0

     total cpu time spent up to now is       29.7 secs

     total energy              =    -329.49012800 Ry
     Harris-Foulkes estimate   =    -329.49012804 Ry
     estimated scf accuracy    <          4.8E-10 Ry

     iteration #  9     ecut=    30.00 Ry     beta=0.70
     Davidson diagonalization with overlap
     ethr =  8.68E-13,  avg # of iterations =  3.0

     total cpu time spent up to now is       29.9 secs

     total energy              =    -329.49012804 Ry
     Harris-Foulkes estimate   =    -329.49012800 Ry
     estimated scf accuracy    <          1.8E-10 Ry

     iteration # 10     ecut=    30.00 Ry     beta=0.70
     Davidson diagonalization with overlap
     ethr =  3.21E-13,  avg # of iterations =  2.0

     total cpu time spent up to now is       30.1 secs

     End of self-consistent calculation

          k = 0.0000 0.0000 0.0000 ( 22119 PWs)   bands (ev):

    -8.4846  -7.7795  -7.6488  -7.2326  -6.8879  -6.7747  -6.6489  -6.4953
    -6.2605  -6.0481  -5.9707  -5.7545  -5.7176  -5.6957  -5.4520  -5.4043
    -5.3124  -5.2494  -5.2137  -5.1847  -5.1647  -5.1193  -5.0111  -4.9613
    -4.8371  -4.6883  -4.4879  -3.7596  -2.5024  -2.2227  -0.5362  -0.1849
     0.4991   0.7704

     the Fermi energy is    -3.7244 ev

!    total energy              =    -329.49012802 Ry
     Harris-Foulkes estimate   =    -329.49012804 Ry
     estimated scf accuracy    <          1.9E-11 Ry

     The total energy is the sum of the following terms:

     one-electron contribution =    -609.10338243 Ry
     hartree contribution      =     325.98394255 Ry
     xc contribution           =     -51.39818424 Ry
     ewald contribution        =       5.03242594 Ry
     smearing contrib. (-TS)   =      -0.00492984 Ry

     convergence has been achieved in  10 iterations

     Forces acting on atoms (Ry/au):

     atom    1 type  1   force =     0.00069663   -0.00006117   -0.00040167
     atom    2 type  1   force =     0.00036140    0.00248401    0.00023303
     atom    3 type  1   force =     0.00084701    0.00019320   -0.00111290
     atom    4 type  1   force =    -0.00054054   -0.00178018    0.00102574
     atom    5 type  1   force =    -0.00136450   -0.00083586    0.00025580

     Total force =     0.004017     Total SCF correction =     0.000014

     number of scf cycles    =  12
     number of bfgs steps    =  11

     energy   old            =    -329.4900526586 Ry
     energy   new            =    -329.4901280243 Ry

     CASE: energy  _new < energy  _old

     new trust radius        =       0.0208199095 bohr
     new conv_thr            =            1.0E-10 Ry


ATOMIC_POSITIONS (bohr)
Au      -1.888670340   2.410566887  -0.711579205
Au      -0.648829126   3.378476779   4.210362342
Au       2.983968886   1.878765867   0.582228349
Au       4.356734368   3.766205671   5.558004378
Au       7.681187212   1.427523796   2.396112135



     Writing output data file pwscf.save
     Check: negative starting charge=   -0.006449
     NEW-OLD atomic charge density approx. for the potential
     Check: negative starting charge=   -0.006452

     negative rho (up, down):  8.599E-05 0.000E+00

     total cpu time spent up to now is       30.3 secs

     per-process dynamical memory:    50.7 Mb

     Self-consistent Calculation

     iteration #  1     ecut=    30.00 Ry     beta=0.70
     Davidson diagonalization with overlap
     ethr =  1.00E-06,  avg # of iterations =  4.0

     negative rho (up, down):  5.127E-07 0.000E+00

     total cpu time spent up to now is       30.7 secs

     total energy              =    -329.49017834 Ry
     Harris-Foulkes estimate   =    -329.49020216 Ry
     estimated scf accuracy    <       0.00009001 Ry

     iteration #  2     ecut=    30.00 Ry     beta=0.70
     Davidson diagonalization with overlap
     ethr =  1.64E-07,  avg # of iterations =  3.0

     negative rho (up, down):  1.660E-08 0.000E+00

     total cpu time spent up to now is       30.9 secs

     total energy              =    -329.49019307 Ry
     Harris-Foulkes estimate   =    -329.49023187 Ry
     estimated scf accuracy    <       0.00008203 Ry

     iteration #  3     ecut=    30.00 Ry     beta=0.70
     Davidson diagonalization with overlap
     ethr =  1.49E-07,  avg # of iterations =  2.0

     total cpu time spent up to now is       31.1 secs

     total energy              =    -329.49020871 Ry
     Harris-Foulkes estimate   =    -329.49021261 Ry
     estimated scf accuracy    <       0.00000642 Ry

     iteration #  4     ecut=    30.00 Ry     beta=0.70
     Davidson diagonalization with overlap
     ethr =  1.17E-08,  avg # of iterations =  2.0

     total cpu time spent up to now is       31.4 secs

     total energy              =    -329.49020926 Ry
     Harris-Foulkes estimate   =    -329.49021238 Ry
     estimated scf accuracy    <       0.00000704 Ry

     iteration #  5     ecut=    30.00 Ry     beta=0.70
     Davidson diagonalization with overlap
     ethr =  1.17E-08,  avg # of iterations =  2.0

     total cpu time spent up to now is       31.6 secs

     total energy              =    -329.49021037 Ry
     Harris-Foulkes estimate   =    -329.49021067 Ry
     estimated scf accuracy    <       0.00000050 Ry

     iteration #  6     ecut=    30.00 Ry     beta=0.70
     Davidson diagonalization with overlap
     ethr =  9.04E-10,  avg # of iterations =  2.0

     total cpu time spent up to now is       31.8 secs

     total energy              =    -329.49021037 Ry
     Harris-Foulkes estimate   =    -329.49021048 Ry
     estimated scf accuracy    <       0.00000003 Ry

     iteration #  7     ecut=    30.00 Ry     beta=0.70
     Davidson diagonalization with overlap
     ethr =  4.86E-11,  avg # of iterations =  3.0

     total cpu time spent up to now is       32.0 secs

     total energy              =    -329.49021040 Ry
     Harris-Foulkes estimate   =    -329.49021038 Ry
     estimated scf accuracy    <       0.00000002 Ry

     iteration #  8     ecut=    30.00 Ry     beta=0.70
     Davidson diagonalization with overlap
     ethr =  3.25E-11,  avg # of iterations =  2.0

     total cpu time spent up to now is       32.2 secs

     total energy              =    -329.49021042 Ry
     Harris-Foulkes estimate   =    -329.49021041 Ry
     estimated scf accuracy    <          1.4E-09 Ry

     iteration #  9     ecut=    30.00 Ry     beta=0.70
[...]

     new trust radius        =       0.0133571782 bohr
     new conv_thr            =       0.0000000002 Ry


ATOMIC_POSITIONS (bohr)
Au      -1.704287476   2.569797507  -0.826456901
Au      -0.739529073   3.895246086   4.050289484
Au       3.053761763   1.745799221   0.638542534
Au       4.149271795   3.341755981   5.641858123
Au       7.725173992   1.308940205   2.530894759



     Writing output data file pwscf.save
     Check: negative starting charge=   -0.006434
     NEW-OLD atomic charge density approx. for the potential
     Check: negative starting charge=   -0.006426

     negative rho (up, down):  1.301E-05 0.000E+00

     total cpu time spent up to now is      103.1 secs

     per-process dynamical memory:    50.7 Mb

     Self-consistent Calculation

     iteration #  1     ecut=    30.00 Ry     beta=0.70
     Davidson diagonalization with overlap
     ethr =  1.00E-06,  avg # of iterations =  4.0

     Threshold (ethr) on eigenvalues was too large:
     Diagonalizing with lowered threshold

     Davidson diagonalization with overlap
     ethr =  4.58E-08,  avg # of iterations =  1.0

     negative rho (up, down):  1.972E-08 0.000E+00

     total cpu time spent up to now is      103.6 secs

     total energy              =    -329.49198898 Ry
     Harris-Foulkes estimate   =    -329.49199416 Ry
     estimated scf accuracy    <       0.00002573 Ry

     iteration #  2     ecut=    30.00 Ry     beta=0.70
     Davidson diagonalization with overlap
     ethr =  4.68E-08,  avg # of iterations =  3.0

     total cpu time spent up to now is      103.8 secs

     total energy              =    -329.49198512 Ry
     Harris-Foulkes estimate   =    -329.49201261 Ry
     estimated scf accuracy    <       0.00006881 Ry

     iteration #  3     ecut=    30.00 Ry     beta=0.70
     Davidson diagonalization with overlap
     ethr =  4.68E-08,  avg # of iterations =  3.0

     total cpu time spent up to now is      104.0 secs

     total energy              =    -329.49199866 Ry
     Harris-Foulkes estimate   =    -329.49200022 Ry
     estimated scf accuracy    <       0.00000495 Ry

     iteration #  4     ecut=    30.00 Ry     beta=0.70
     Davidson diagonalization with overlap
     ethr =  9.01E-09,  avg # of iterations =  2.0

     total cpu time spent up to now is      104.2 secs

     total energy              =    -329.49199969 Ry
     Harris-Foulkes estimate   =    -329.49199994 Ry
     estimated scf accuracy    <       0.00000084 Ry

     iteration #  5     ecut=    30.00 Ry     beta=0.70
     Davidson diagonalization with overlap
     ethr =  1.54E-09,  avg # of iterations =  2.0

     total cpu time spent up to now is      104.5 secs

     total energy              =    -329.49199977 Ry
     Harris-Foulkes estimate   =    -329.49199994 Ry
     estimated scf accuracy    <       0.00000020 Ry

     iteration #  6     ecut=    30.00 Ry     beta=0.70
     Davidson diagonalization with overlap
     ethr =  3.59E-10,  avg # of iterations =  2.0

     total cpu time spent up to now is      104.6 secs

     total energy              =    -329.49199985 Ry
     Harris-Foulkes estimate   =    -329.49199982 Ry
     estimated scf accuracy    <       0.00000001 Ry

     iteration #  7     ecut=    30.00 Ry     beta=0.70
     Davidson diagonalization with overlap
     ethr =  2.59E-11,  avg # of iterations =  2.0

     total cpu time spent up to now is      104.9 secs

     total energy              =    -329.49199980 Ry
     Harris-Foulkes estimate   =    -329.49199985 Ry
     estimated scf accuracy    <          6.0E-09 Ry

     iteration #  8     ecut=    30.00 Ry     beta=0.70
     Davidson diagonalization with overlap
     ethr =  1.09E-11,  avg # of iterations =  2.0

     total cpu time spent up to now is      105.1 secs

     total energy              =    -329.49199977 Ry
     Harris-Foulkes estimate   =    -329.49199981 Ry
     estimated scf accuracy    <          9.3E-10 Ry

     iteration #  9     ecut=    30.00 Ry     beta=0.70
     Davidson diagonalization with overlap
     ethr =  1.69E-12,  avg # of iterations =  2.0

     total cpu time spent up to now is      105.3 secs

     End of self-consistent calculation

          k = 0.0000 0.0000 0.0000 ( 22119 PWs)   bands (ev):

    -8.5008  -7.7797  -7.6510  -7.2381  -6.8843  -6.8120  -6.6179  -6.4819
    -6.3136  -6.0652  -5.9667  -5.7716  -5.7289  -5.6814  -5.4490  -5.3677
    -5.3179  -5.2363  -5.1980  -5.1901  -5.1678  -5.1263  -5.0061  -4.9167
    -4.8592  -4.7172  -4.4738  -3.7790  -2.4955  -2.1724  -0.5532  -0.2011
     0.5309   0.8503

     the Fermi energy is    -3.7473 ev

!    total energy              =    -329.49199976 Ry
     Harris-Foulkes estimate   =    -329.49199977 Ry
     estimated scf accuracy    <          6.4E-11 Ry

     The total energy is the sum of the following terms:

     one-electron contribution =    -608.67324963 Ry
     hartree contribution      =     325.76788255 Ry
     xc contribution           =     -51.40184157 Ry
     ewald contribution        =       4.81936551 Ry
     smearing contrib. (-TS)   =      -0.00415662 Ry

     convergence has been achieved in   9 iterations

     Forces acting on atoms (Ry/au):

     atom    1 type  1   force =    -0.00049506   -0.00058932   -0.00135821
     atom    2 type  1   force =     0.00008701    0.00059605    0.00001887
     atom    3 type  1   force =    -0.00027566    0.00038429    0.00014653
     atom    4 type  1   force =     0.00069961    0.00000820    0.00144622
     atom    5 type  1   force =    -0.00001590   -0.00039922   -0.00025341

     Total force =     0.002419     Total SCF correction =     0.000034

     number of scf cycles    =  41
     number of bfgs steps    =  40

     energy   old            =    -329.4919579593 Ry
     energy   new            =    -329.4919997562 Ry

     CASE: energy  _new < energy  _old

     new trust radius        =       0.0056865324 bohr
     new conv_thr            =            1.0E-10 Ry


ATOMIC_POSITIONS (bohr)
Au      -1.703213043   2.567202763  -0.828657336
Au      -0.740788938   3.894209546   4.052132055
Au       3.052902370   1.747405196   0.638787113
Au       4.152980835   3.344649933   5.645052605
Au       7.722509775   1.308071561   2.527813563



     Writing output data file pwscf.save
     Check: negative starting charge=   -0.006426
     NEW-OLD atomic charge density approx. for the potential
     Check: negative starting charge=   -0.006425

     negative rho (up, down):  2.249E-07 0.000E+00

     total cpu time spent up to now is      105.5 secs

     per-process dynamical memory:    50.7 Mb

     Self-consistent Calculation

     iteration #  1     ecut=    30.00 Ry     beta=0.70
     Davidson diagonalization with overlap
     ethr =  1.00E-06,  avg # of iterations =  3.0

     Threshold (ethr) on eigenvalues was too large:
     Diagonalizing with lowered threshold

     Davidson diagonalization with overlap
     ethr =  7.42E-09,  avg # of iterations =  2.0

     total cpu time spent up to now is      105.9 secs

     total energy              =    -329.49200754 Ry
     Harris-Foulkes estimate   =    -329.49200958 Ry
     estimated scf accuracy    <       0.00000447 Ry

     iteration #  2     ecut=    30.00 Ry     beta=0.70
     Davidson diagonalization with overlap
     ethr =  8.12E-09,  avg # of iterations =  3.0

     total cpu time spent up to now is      106.2 secs

     total energy              =    -329.49200757 Ry
     Harris-Foulkes estimate   =    -329.49201050 Ry
     estimated scf accuracy    <       0.00000648 Ry

     iteration #  3     ecut=    30.00 Ry     beta=0.70
     Davidson diagonalization with overlap
     ethr =  8.12E-09,  avg # of iterations =  2.0

     total cpu time spent up to now is      106.4 secs

     total energy              =    -329.49200914 Ry
     Harris-Foulkes estimate   =    -329.49200942 Ry
     estimated scf accuracy    <       0.00000137 Ry

     iteration #  4     ecut=    30.00 Ry     beta=0.70
     Davidson diagonalization with overlap
     ethr =  2.49E-09,  avg # of iterations =  2.0

     total cpu time spent up to now is      106.6 secs

     total energy              =    -329.49200920 Ry
     Harris-Foulkes estimate   =    -329.49200947 Ry
     estimated scf accuracy    <       0.00000015 Ry

     iteration #  5     ecut=    30.00 Ry     beta=0.70
     Davidson diagonalization with overlap
     ethr =  2.75E-10,  avg # of iterations =  2.0

     total cpu time spent up to now is      106.8 secs

     total energy              =    -329.49200924 Ry
     Harris-Foulkes estimate   =    -329.49200924 Ry
     estimated scf accuracy    <       0.00000003 Ry

     iteration #  6     ecut=    30.00 Ry     beta=0.70
     Davidson diagonalization with overlap
     ethr =  4.68E-11,  avg # of iterations =  2.0

     total cpu time spent up to now is      107.0 secs

     total energy              =    -329.49200925 Ry
     Harris-Foulkes estimate   =    -329.49200925 Ry
     estimated scf accuracy    <          4.0E-09 Ry

     iteration #  7     ecut=    30.00 Ry     beta=0.70
     Davidson diagonalization with overlap
     ethr =  7.34E-12,  avg # of iterations =  2.0

     total cpu time spent up to now is      107.2 secs

     total energy              =    -329.49200925 Ry
     Harris-Foulkes estimate   =    -329.49200925 Ry
     estimated scf accuracy    <          7.3E-10 Ry

     iteration #  8     ecut=    30.00 Ry     beta=0.70
     Davidson diagonalization with overlap
     ethr =  1.33E-12,  avg # of iterations =  2.0

     total cpu time spent up to now is      107.4 secs

     total energy              =    -329.49200925 Ry
     Harris-Foulkes estimate   =    -329.49200925 Ry
     estimated scf accuracy    <          1.3E-10 Ry

     iteration #  9     ecut=    30.00 Ry     beta=0.70
     Davidson diagonalization with overlap
     ethr =  2.42E-13,  avg # of iterations =  2.0

     total cpu time spent up to now is      107.7 secs

     End of self-consistent calculation

          k = 0.0000 0.0000 0.0000 ( 22119 PWs)   bands (ev):

    -8.5016  -7.7777  -7.6463  -7.2323  -6.8804  -6.8127  -6.6164  -6.4792
    -6.3092  -6.0667  -5.9659  -5.7720  -5.7295  -5.6811  -5.4478  -5.3668
    -5.3173  -5.2367  -5.1983  -5.1892  -5.1680  -5.1265  -5.0043  -4.9186
    -4.8599  -4.7175  -4.4749  -3.7797  -2.4930  -2.1763  -0.5526  -0.2017
     0.5309   0.8499

     the Fermi energy is    -3.7479 ev

!    total energy              =    -329.49200924 Ry
     Harris-Foulkes estimate   =    -329.49200925 Ry
     estimated scf accuracy    <          3.3E-11 Ry

     The total energy is the sum of the following terms:

     one-electron contribution =    -608.51009011 Ry
     hartree contribution      =     325.68754062 Ry
     xc contribution           =     -51.40129085 Ry
     ewald contribution        =       4.73599662 Ry
     smearing contrib. (-TS)   =      -0.00416551 Ry

     convergence has been achieved in   9 iterations

     Forces acting on atoms (Ry/au):

     atom    1 type  1   force =    -0.00070330   -0.00036103   -0.00105659
     atom    2 type  1   force =     0.00048783    0.00043516   -0.00020366
     atom    3 type  1   force =    -0.00037126    0.00040651    0.00025421
     atom    4 type  1   force =     0.00033226   -0.00013401    0.00103324
     atom    5 type  1   force =     0.00025447   -0.00034664   -0.00002720

     Total force =     0.001990     Total SCF correction =     0.000020

     number of scf cycles    =  42
     number of bfgs steps    =  41

     energy   old            =    -329.4919997562 Ry
     energy   new            =    -329.4920092417 Ry

     CASE: energy  _new < energy  _old

     new trust radius        =       0.0059326020 bohr
     new conv_thr            =            1.0E-10 Ry


ATOMIC_POSITIONS (bohr)
Au      -1.702626744   2.564903149  -0.834094596
Au      -0.741292254   3.894759897   4.052550068
Au       3.051436874   1.749783180   0.640686151
Au       4.155715365   3.345679496   5.649402812
Au       7.721157760   1.306413278   2.526583565



     Writing output data file pwscf.save
     Check: negative starting charge=   -0.006425
     NEW-OLD atomic charge density approx. for the potential
     Check: negative starting charge=   -0.006424

     negative rho (up, down):  3.371E-07 0.000E+00

     total cpu time spent up to now is      107.9 secs

     per-process dynamical memory:    50.7 Mb

     Self-consistent Calculation

     iteration #  1     ecut=    30.00 Ry     beta=0.70
     Davidson diagonalization with overlap
     ethr =  1.00E-06,  avg # of iterations =  3.0

     Threshold (ethr) on eigenvalues was too large:
     Diagonalizing with lowered threshold

     Davidson diagonalization with overlap
     ethr =  8.06E-09,  avg # of iterations =  2.0

     total cpu time spent up to now is      108.3 secs

     total energy              =    -329.49201719 Ry
     Harris-Foulkes estimate   =    -329.49201791 Ry
     estimated scf accuracy    <       0.00000488 Ry

     iteration #  2     ecut=    30.00 Ry     beta=0.70
     Davidson diagonalization with overlap
     ethr =  8.87E-09,  avg # of iterations =  3.0

     total cpu time spent up to now is      108.6 secs

     total energy              =    -329.49201745 Ry
     Harris-Foulkes estimate   =    -329.49202016 Ry
     estimated scf accuracy    <       0.00000635 Ry

     iteration #  3     ecut=    30.00 Ry     beta=0.70
     Davidson diagonalization with overlap
     ethr =  8.87E-09,  avg # of iterations =  2.0

     total cpu time spent up to now is      108.8 secs

     total energy              =    -329.49201922 Ry
     Harris-Foulkes estimate   =    -329.49201950 Ry
     estimated scf accuracy    <       0.00000195 Ry

     iteration #  4     ecut=    30.00 Ry     beta=0.70
     Davidson diagonalization with overlap
     ethr =  3.55E-09,  avg # of iterations =  2.0

     total cpu time spent up to now is      109.0 secs

     total energy              =    -329.49201970 Ry
     Harris-Foulkes estimate   =    -329.49201963 Ry
     estimated scf accuracy    <       0.00000012 Ry

     iteration #  5     ecut=    30.00 Ry     beta=0.70
     Davidson diagonalization with overlap
     ethr =  2.26E-10,  avg # of iterations =  2.0

     total cpu time spent up to now is      109.2 secs

     total energy              =    -329.49201981 Ry
     Harris-Foulkes estimate   =    -329.49201975 Ry
     estimated scf accuracy    <       0.00000003 Ry

     iteration #  6     ecut=    30.00 Ry     beta=0.70
     Davidson diagonalization with overlap
     ethr =  6.03E-11,  avg # of iterations =  2.0

     total cpu time spent up to now is      109.4 secs

     total energy              =    -329.49201975 Ry
     Harris-Foulkes estimate   =    -329.49201981 Ry
     estimated scf accuracy    <          4.0E-09 Ry

     iteration #  7     ecut=    30.00 Ry     beta=0.70
     Davidson diagonalization with overlap
     ethr =  7.33E-12,  avg # of iterations =  2.0

     total cpu time spent up to now is      109.6 secs

     total energy              =    -329.49201978 Ry
     Harris-Foulkes estimate   =    -329.49201976 Ry
     estimated scf accuracy    <          8.8E-10 Ry

     iteration #  8     ecut=    30.00 Ry     beta=0.70
     Davidson diagonalization with overlap
     ethr =  1.59E-12,  avg # of iterations =  2.0

     total cpu time spent up to now is      109.9 secs

     total energy              =    -329.49201980 Ry
     Harris-Foulkes estimate   =    -329.49201978 Ry
     estimated scf accuracy    <          1.8E-10 Ry

     iteration #  9     ecut=    30.00 Ry     beta=0.70
     Davidson diagonalization with overlap
     ethr =  3.25E-13,  avg # of iterations =  3.0

     total cpu time spent up to now is      110.1 secs

     End of self-consistent calculation

          k = 0.0000 0.0000 0.0000 ( 22119 PWs)   bands (ev):

    -8.5012  -7.7746  -7.6425  -7.2267  -6.8749  -6.8123  -6.6126  -6.4768
    -6.3053  -6.0680  -5.9632  -5.7720  -5.7295  -5.6805  -5.4478  -5.3656
    -5.3167  -5.2377  -5.1988  -5.1879  -5.1682  -5.1265  -5.0034  -4.9207
    -4.8596  -4.7188  -4.4768  -3.7807  -2.4911  -2.1808  -0.5519  -0.2018
     0.5298   0.8497

     the Fermi energy is    -3.7487 ev

!    total energy              =    -329.49201980 Ry
     Harris-Foulkes estimate   =    -329.49201980 Ry
     estimated scf accuracy    <          5.2E-11 Ry

     The total energy is the sum of the following terms:

     one-electron contribution =    -608.27980525 Ry
     hartree contribution      =     325.57378990 Ry
     xc contribution           =     -51.40038210 Ry
     ewald contribution        =       4.61856781 Ry
     smearing contrib. (-TS)   =      -0.00419015 Ry

     convergence has been achieved in   9 iterations

     Forces acting on atoms (Ry/au):

     atom    1 type  1   force =    -0.00071129   -0.00012488   -0.00050840
     atom    2 type  1   force =     0.00078111    0.00022007   -0.00058651
     atom    3 type  1   force =    -0.00037526    0.00038698    0.00030543
     atom    4 type  1   force =     0.00006497   -0.00025032    0.00064290
     atom    5 type  1   force =     0.00024047   -0.00023185    0.00014657

     Total force =     0.001667     Total SCF correction =     0.000027

     bfgs converged in  43 scf cycles and  42 bfgs steps
     (criteria: energy <  1.0E-04, force <  1.0E-03)

     End of BFGS Geometry Optimization

     Final energy   =    -329.4920197981 Ry
Begin final coordinates

ATOMIC_POSITIONS (bohr)
Au      -1.702626744   2.564903149  -0.834094596
Au      -0.741292254   3.894759897   4.052550068
Au       3.051436874   1.749783180   0.640686151
Au       4.155715365   3.345679496   5.649402812
Au       7.721157760   1.306413278   2.526583565
End final coordinates



     Writing output data file pwscf.save
 
     init_run     :      0.16s CPU      0.18s WALL (       1 calls)
     electrons    :     95.55s CPU    101.92s WALL (      43 calls)
     update_pot   :      2.78s CPU      3.39s WALL (      42 calls)
     forces       :      1.79s CPU      1.82s WALL (      43 calls)

     Called by init_run:
     wfcinit      :      0.07s CPU      0.08s WALL (       1 calls)
     potinit      :      0.03s CPU      0.03s WALL (       1 calls)

     Called by electrons:
     c_bands      :     73.04s CPU     73.92s WALL (     446 calls)
     sum_band     :     10.53s CPU     10.78s WALL (     446 calls)
     v_of_rho     :      8.18s CPU      8.28s WALL (     465 calls)
     mix_rho      :      3.10s CPU      6.79s WALL (     446 calls)

     Called by c_bands:
     init_us_2    :      1.41s CPU      1.47s WALL (     893 calls)
     cegterg      :     64.89s CPU     65.38s WALL (     446 calls)

     Called by sum_band:

     Called by *egterg:
     h_psi        :     50.92s CPU     51.30s WALL (    1526 calls)
     g_psi        :      0.51s CPU      0.51s WALL (    1079 calls)
     cdiaghg      :      3.37s CPU      3.39s WALL (    1459 calls)

     Called by h_psi:
     h_psi:pot    :     50.17s CPU     50.55s WALL (    1526 calls)
     h_psi:calbec :      2.76s CPU      2.76s WALL (    1526 calls)
     vloc_psi     :     44.32s CPU     44.68s WALL (    1526 calls)
     add_vuspsi   :      3.09s CPU      3.10s WALL (    1526 calls)

     General routines
     calbec       :      3.29s CPU      3.31s WALL (    1698 calls)
     fft          :      4.56s CPU      4.65s WALL (    5248 calls)
     fftw         :     46.67s CPU     47.42s WALL (   98136 calls)
     davcio       :      0.52s CPU      3.39s WALL (    4448 calls)
 
     Parallel routines
     fft_scatter  :     11.96s CPU     11.57s WALL (  103384 calls)
 
     PWSCF        :  1m41.43s CPU     1m50.26s WALL

 
   This run was terminated on:  21: 1:26   3Aug2017            

=------------------------------------------------------------------------------=
   JOB DONE.
=------------------------------------------------------------------------------=
