
     Program PWSCF v.6.0 (svn rev. 13079) starts on  3Aug2017 at 13:29:15 

     This program is part of the open-source Quantum ESPRESSO suite
     for quantum simulation of materials; please cite
         "P. Giannozzi et al., J. Phys.:Condens. Matter 21 395502 (2009);
          URL http://www.quantum-espresso.org", 
     in publications or presentations arising from this work. More details at
     http://www.quantum-espresso.org/quote

     Parallel version (MPI), running on    10 processors
     R & G space division:  proc/nbgrp/npool/nimage =      10
     Reading input from input/multi/minchecks-Gold5-135.in

     Current dimensions of program PWSCF are:
     Max number of different atomic species (ntypx) = 10
     Max number of k-points (npk) =  40000
     Max angular momentum in pseudopotentials (lmaxx) =  3
     Message from routine iosys:
     pot_extrapolation='second-order' not available, using 'atomic'
     Message from routine iosys:
     wfc_extrapolation='second-order' not available, using 'atomic'

     Subspace diagonalization in iterative solution of the eigenvalue problem:
     a serial algorithm will be used

 
     Parallelization info
     --------------------
     sticks:   dense  smooth     PW     G-vecs:    dense   smooth      PW
     Min         380     380     94                17748    17748    2208
     Max         381     381     95                17753    17753    2213
     Sum        3809    3809    949               177509   177509   22119
 


     bravais-lattice index     =            1
     lattice parameter (alat)  =      20.0000  a.u.
     unit-cell volume          =    8000.0000 (a.u.)^3
     number of atoms/cell      =            5
     number of atomic types    =            1
     number of electrons       =        55.00
     number of Kohn-Sham states=           34
     kinetic-energy cutoff     =      30.0000  Ry
     charge density cutoff     =     120.0000  Ry
     convergence threshold     =      1.0E-08
     mixing beta               =       0.7000
     number of iterations used =            8  plain     mixing
     Exchange-correlation      = BLYP ( 1  3  1  3 0 0)
     nstep                     =           50


     celldm(1)=  20.000000  celldm(2)=   0.000000  celldm(3)=   0.000000
     celldm(4)=   0.000000  celldm(5)=   0.000000  celldm(6)=   0.000000

     crystal axes: (cart. coord. in units of alat)
               a(1) = (   1.000000   0.000000   0.000000 )  
               a(2) = (   0.000000   1.000000   0.000000 )  
               a(3) = (   0.000000   0.000000   1.000000 )  

     reciprocal axes: (cart. coord. in units 2 pi/alat)
               b(1) = (  1.000000  0.000000  0.000000 )  
               b(2) = (  0.000000  1.000000  0.000000 )  
               b(3) = (  0.000000  0.000000  1.000000 )  


     PseudoPot. # 1 for Au read from file:
     ./Au.blyp-d-hgh.UPF
     MD5 check sum: c10d8bae01f806c36a1643a1c69a8479
     Pseudo is Norm-conserving, Zval = 11.0
     Generated in analytical, separable form
     Using radial grid of 1279 points,  6 beta functions with: 
                l(1) =   0
                l(2) =   0
                l(3) =   1
                l(4) =   1
                l(5) =   2
                l(6) =   2

     atomic species   valence    mass     pseudopotential
        Au            11.00    28.08600     Au( 1.00)

     No symmetry found



   Cartesian axes

     site n.     atom                  positions (alat units)
         1           Au  tau(   1) = (  -0.0887524   0.1092694  -0.0380279  )
         2           Au  tau(   2) = (  -0.0374881   0.1439066   0.2086875  )
         3           Au  tau(   3) = (   0.1567962   0.0982680   0.0178864  )
         4           Au  tau(   4) = (   0.2014994   0.1773268   0.2899902  )
         5           Au  tau(   5) = (   0.3810022   0.0924400   0.1292728  )

     number of k points=     1  Marzari-Vanderbilt smearing, width (Ry)=  0.0250
                       cart. coord. in units 2pi/alat
        k(    1) = (   0.0000000   0.0000000   0.0000000), wk =   2.0000000

     Dense  grid:   177509 G-vectors     FFT dimensions: (  72,  72,  72)

     Estimated max dynamical RAM per process >      15.04Mb

     Estimated total allocated dynamical RAM >     150.39Mb

     Initial potential from superposition of free atoms
     Check: negative starting charge=   -0.006493

     starting charge   54.99940, renormalised to   55.00000

     negative rho (up, down):  6.493E-03 0.000E+00
     Starting wfc are   45 randomized atomic wfcs

     total cpu time spent up to now is        0.3 secs

     per-process dynamical memory:    41.0 Mb

     Self-consistent Calculation

     iteration #  1     ecut=    30.00 Ry     beta=0.70
     Davidson diagonalization with overlap
     ethr =  1.00E-02,  avg # of iterations =  3.0

     Threshold (ethr) on eigenvalues was too large:
     Diagonalizing with lowered threshold

     Davidson diagonalization with overlap
     ethr =  4.04E-04,  avg # of iterations =  3.0

     negative rho (up, down):  9.036E-04 0.000E+00

     total cpu time spent up to now is        0.8 secs

     total energy              =    -329.37710479 Ry
     Harris-Foulkes estimate   =    -329.54455270 Ry
     estimated scf accuracy    <       0.27838483 Ry

     iteration #  2     ecut=    30.00 Ry     beta=0.70
     Davidson diagonalization with overlap
     ethr =  5.06E-04,  avg # of iterations =  2.0

     negative rho (up, down):  4.009E-04 0.000E+00

     total cpu time spent up to now is        1.1 secs

     total energy              =    -329.41297883 Ry
     Harris-Foulkes estimate   =    -329.55870648 Ry
     estimated scf accuracy    <       0.29764520 Ry

     iteration #  3     ecut=    30.00 Ry     beta=0.70
     Davidson diagonalization with overlap
     ethr =  5.06E-04,  avg # of iterations =  2.0

     negative rho (up, down):  1.534E-04 0.000E+00

     total cpu time spent up to now is        1.3 secs

     total energy              =    -329.47358674 Ry
     Harris-Foulkes estimate   =    -329.50126095 Ry
     estimated scf accuracy    <       0.07311544 Ry

     iteration #  4     ecut=    30.00 Ry     beta=0.70
     Davidson diagonalization with overlap
     ethr =  1.33E-04,  avg # of iterations =  2.0

     negative rho (up, down):  6.888E-06 0.000E+00

     total cpu time spent up to now is        1.6 secs

     total energy              =    -329.48632181 Ry
     Harris-Foulkes estimate   =    -329.48754435 Ry
     estimated scf accuracy    <       0.00300549 Ry

     iteration #  5     ecut=    30.00 Ry     beta=0.70
     Davidson diagonalization with overlap
     ethr =  5.46E-06,  avg # of iterations =  6.0

     total cpu time spent up to now is        2.0 secs

     total energy              =    -329.48698477 Ry
     Harris-Foulkes estimate   =    -329.48812963 Ry
     estimated scf accuracy    <       0.00320394 Ry

     iteration #  6     ecut=    30.00 Ry     beta=0.70
     Davidson diagonalization with overlap
     ethr =  5.46E-06,  avg # of iterations =  2.0

     total cpu time spent up to now is        2.2 secs

     total energy              =    -329.48747859 Ry
     Harris-Foulkes estimate   =    -329.48764086 Ry
     estimated scf accuracy    <       0.00040640 Ry

     iteration #  7     ecut=    30.00 Ry     beta=0.70
     Davidson diagonalization with overlap
     ethr =  7.39E-07,  avg # of iterations =  2.0

     total cpu time spent up to now is        2.5 secs

     total energy              =    -329.48755705 Ry
     Harris-Foulkes estimate   =    -329.48757244 Ry
     estimated scf accuracy    <       0.00003765 Ry

     iteration #  8     ecut=    30.00 Ry     beta=0.70
     Davidson diagonalization with overlap
     ethr =  6.85E-08,  avg # of iterations =  2.0

     total cpu time spent up to now is        2.7 secs

     total energy              =    -329.48756531 Ry
     Harris-Foulkes estimate   =    -329.48757100 Ry
     estimated scf accuracy    <       0.00001287 Ry

     iteration #  9     ecut=    30.00 Ry     beta=0.70
     Davidson diagonalization with overlap
     ethr =  2.34E-08,  avg # of iterations =  2.0

     total cpu time spent up to now is        3.0 secs

     total energy              =    -329.48756775 Ry
     Harris-Foulkes estimate   =    -329.48756860 Ry
     estimated scf accuracy    <       0.00000143 Ry

     iteration # 10     ecut=    30.00 Ry     beta=0.70
     Davidson diagonalization with overlap
     ethr =  2.60E-09,  avg # of iterations =  2.0

     total cpu time spent up to now is        3.3 secs

     total energy              =    -329.48756798 Ry
     Harris-Foulkes estimate   =    -329.48756822 Ry
     estimated scf accuracy    <       0.00000040 Ry

     iteration # 11     ecut=    30.00 Ry     beta=0.70
     Davidson diagonalization with overlap
     ethr =  7.29E-10,  avg # of iterations =  2.0

     total cpu time spent up to now is        3.5 secs

     total energy              =    -329.48756802 Ry
     Harris-Foulkes estimate   =    -329.48756808 Ry
     estimated scf accuracy    <       0.00000004 Ry

     iteration # 12     ecut=    30.00 Ry     beta=0.70
     Davidson diagonalization with overlap
     ethr =  8.04E-11,  avg # of iterations =  3.0

     total cpu time spent up to now is        3.9 secs

     total energy              =    -329.48756798 Ry
     Harris-Foulkes estimate   =    -329.48756803 Ry
     estimated scf accuracy    <       0.00000001 Ry

     iteration # 13     ecut=    30.00 Ry     beta=0.70
     Davidson diagonalization with overlap
     ethr =  2.19E-11,  avg # of iterations =  2.0

     total cpu time spent up to now is        4.1 secs

     End of self-consistent calculation

          k = 0.0000 0.0000 0.0000 ( 22119 PWs)   bands (ev):

    -8.4208  -7.7280  -7.6400  -7.1785  -6.9999  -6.7703  -6.7315  -6.4464
    -6.2691  -6.0503  -5.9922  -5.7595  -5.7180  -5.6709  -5.4325  -5.3379
    -5.3115  -5.2289  -5.1882  -5.1784  -5.1674  -5.1346  -4.9706  -4.9041
    -4.8527  -4.6686  -4.3939  -3.8014  -2.4865  -2.1710  -0.5470  -0.2518
     0.4996   0.8218

     the Fermi energy is    -3.7871 ev

!    total energy              =    -329.48756796 Ry
     Harris-Foulkes estimate   =    -329.48756799 Ry
     estimated scf accuracy    <          3.5E-09 Ry

     The total energy is the sum of the following terms:

     one-electron contribution =    -610.07052129 Ry
     hartree contribution      =     326.50130538 Ry
     xc contribution           =     -51.41679113 Ry
     ewald contribution        =       5.49891551 Ry
     smearing contrib. (-TS)   =      -0.00047642 Ry

     convergence has been achieved in  13 iterations

     Forces acting on atoms (Ry/au):

     atom    1 type  1   force =    -0.00264182   -0.00080969   -0.00924935
     atom    2 type  1   force =    -0.00280247   -0.00086828   -0.00193580
     atom    3 type  1   force =    -0.00749033    0.00157310    0.01096752
     atom    4 type  1   force =     0.00624907   -0.00032048    0.00063958
     atom    5 type  1   force =     0.00668556    0.00042536   -0.00042195

     Total force =     0.019210     Total SCF correction =     0.000268

     BFGS Geometry Optimization

     number of scf cycles    =   1
     number of bfgs steps    =   0

     energy   new            =    -329.4875679569 Ry

     new trust radius        =       0.0133740866 bohr
     new conv_thr            =       0.0000000100 Ry


ATOMIC_POSITIONS (bohr)
Au      -1.777689822   2.184578313  -0.769807351
Au      -0.752565466   2.877263716   4.171814205
Au       3.128434667   1.966932097   0.368694519
Au       4.036236065   3.546214517   5.800442580
Au       7.626730556   1.849226357   2.585035048



     Writing output data file pwscf.save
     Check: negative starting charge=   -0.006493
     NEW-OLD atomic charge density approx. for the potential
     Check: negative starting charge=   -0.006492

     negative rho (up, down):  1.174E-05 0.000E+00

     total cpu time spent up to now is        4.4 secs

     per-process dynamical memory:    42.9 Mb

     Self-consistent Calculation

     iteration #  1     ecut=    30.00 Ry     beta=0.70
     Davidson diagonalization with overlap
     ethr =  1.00E-06,  avg # of iterations =  4.0

     Threshold (ethr) on eigenvalues was too large:
     Diagonalizing with lowered threshold

     Davidson diagonalization with overlap
     ethr =  4.07E-08,  avg # of iterations =  1.0

     negative rho (up, down):  1.250E-08 0.000E+00

     total cpu time spent up to now is        4.9 secs

     total energy              =    -329.48791168 Ry
     Harris-Foulkes estimate   =    -329.48790888 Ry
     estimated scf accuracy    <       0.00002297 Ry

     iteration #  2     ecut=    30.00 Ry     beta=0.70
     Davidson diagonalization with overlap
     ethr =  4.18E-08,  avg # of iterations =  2.0

     total cpu time spent up to now is        5.2 secs

     total energy              =    -329.48791459 Ry
     Harris-Foulkes estimate   =    -329.48792299 Ry
     estimated scf accuracy    <       0.00001957 Ry

     iteration #  3     ecut=    30.00 Ry     beta=0.70
     Davidson diagonalization with overlap
     ethr =  3.56E-08,  avg # of iterations =  2.0

     total cpu time spent up to now is        5.5 secs

     total energy              =    -329.48791954 Ry
     Harris-Foulkes estimate   =    -329.48792173 Ry
     estimated scf accuracy    <       0.00000854 Ry

     iteration #  4     ecut=    30.00 Ry     beta=0.70
     Davidson diagonalization with overlap
     ethr =  1.55E-08,  avg # of iterations =  2.0

     total cpu time spent up to now is        5.7 secs

     total energy              =    -329.48792165 Ry
     Harris-Foulkes estimate   =    -329.48792151 Ry
     estimated scf accuracy    <       0.00000094 Ry

     iteration #  5     ecut=    30.00 Ry     beta=0.70
     Davidson diagonalization with overlap
     ethr =  1.71E-09,  avg # of iterations =  2.0

     total cpu time spent up to now is        6.0 secs

     total energy              =    -329.48792191 Ry
     Harris-Foulkes estimate   =    -329.48792193 Ry
     estimated scf accuracy    <       0.00000027 Ry

     iteration #  6     ecut=    30.00 Ry     beta=0.70
     Davidson diagonalization with overlap
     ethr =  4.98E-10,  avg # of iterations =  2.0

     total cpu time spent up to now is        6.2 secs

     total energy              =    -329.48792201 Ry
     Harris-Foulkes estimate   =    -329.48792197 Ry
     estimated scf accuracy    <       0.00000003 Ry

     iteration #  7     ecut=    30.00 Ry     beta=0.70
     Davidson diagonalization with overlap
     ethr =  4.95E-11,  avg # of iterations =  2.0

     total cpu time spent up to now is        6.4 secs

     End of self-consistent calculation

          k = 0.0000 0.0000 0.0000 ( 22119 PWs)   bands (ev):

    -8.4225  -7.7287  -7.6346  -7.1810  -6.9925  -6.7702  -6.7248  -6.4462
    -6.2681  -6.0462  -5.9945  -5.7598  -5.7186  -5.6721  -5.4312  -5.3370
    -5.3214  -5.2285  -5.1886  -5.1833  -5.1683  -5.1354  -4.9740  -4.9094
    -4.8571  -4.6696  -4.4024  -3.7983  -2.4892  -2.1772  -0.5472  -0.2484
     0.4948   0.8207

     the Fermi energy is    -3.7818 ev

!    total energy              =    -329.48792208 Ry
     Harris-Foulkes estimate   =    -329.48792202 Ry
     estimated scf accuracy    <          6.4E-09 Ry

     The total energy is the sum of the following terms:

     one-electron contribution =    -609.82336388 Ry
     hartree contribution      =     326.37508838 Ry
     xc contribution           =     -51.41430163 Ry
     ewald contribution        =       5.37555578 Ry
     smearing contrib. (-TS)   =      -0.00090073 Ry

     convergence has been achieved in   7 iterations

     Forces acting on atoms (Ry/au):

     atom    1 type  1   force =    -0.00255192   -0.00070264   -0.00857266
     atom    2 type  1   force =    -0.00210320   -0.00068916   -0.00179462
     atom    3 type  1   force =    -0.00637655    0.00135886    0.01082189
     atom    4 type  1   force =     0.00531608   -0.00045600    0.00039700
     atom    5 type  1   force =     0.00571560    0.00048894   -0.00085161

     Total force =     0.017621     Total SCF correction =     0.000255

     number of scf cycles    =   2
     number of bfgs steps    =   1

     energy   old            =    -329.4875679569 Ry
     energy   new            =    -329.4879220797 Ry

     CASE: energy  _new < energy  _old


     WARNING: bfgs curvature condition failed, Theta= 0.875
     new trust radius        =       0.0147114952 bohr
     new conv_thr            =       0.0000000004 Ry


ATOMIC_POSITIONS (bohr)
Au      -1.780645817   2.183741189  -0.779843157
Au      -0.755178142   2.876421729   4.169713420
Au       3.120797495   1.968553074   0.381163445
Au       4.042604365   3.545729098   5.800966961
Au       7.633568099   1.849769910   2.584178331



     Writing output data file pwscf.save
     Check: negative starting charge=   -0.006492
     NEW-OLD atomic charge density approx. for the potential
     Check: negative starting charge=   -0.006490

     negative rho (up, down):  1.562E-05 0.000E+00

     total cpu time spent up to now is        6.7 secs

     per-process dynamical memory:    50.7 Mb

     Self-consistent Calculation

     iteration #  1     ecut=    30.00 Ry     beta=0.70
     Davidson diagonalization with overlap
     ethr =  1.00E-06,  avg # of iterations =  4.0

     Threshold (ethr) on eigenvalues was too large:
     Diagonalizing with lowered threshold

     Davidson diagonalization with overlap
     ethr =  5.13E-08,  avg # of iterations =  1.0

     negative rho (up, down):  2.023E-08 0.000E+00

     total cpu time spent up to now is        7.2 secs

     total energy              =    -329.48825710 Ry
     Harris-Foulkes estimate   =    -329.48825627 Ry
     estimated scf accuracy    <       0.00002862 Ry

     iteration #  2     ecut=    30.00 Ry     beta=0.70
     Davidson diagonalization with overlap
     ethr =  5.20E-08,  avg # of iterations =  2.0

     total cpu time spent up to now is        7.4 secs

     total energy              =    -329.48825967 Ry
     Harris-Foulkes estimate   =    -329.48827303 Ry
     estimated scf accuracy    <       0.00003135 Ry

     iteration #  3     ecut=    30.00 Ry     beta=0.70
     Davidson diagonalization with overlap
     ethr =  5.20E-08,  avg # of iterations =  2.0

     total cpu time spent up to now is        7.7 secs

     total energy              =    -329.48826779 Ry
     Harris-Foulkes estimate   =    -329.48827028 Ry
     estimated scf accuracy    <       0.00001091 Ry

     iteration #  4     ecut=    30.00 Ry     beta=0.70
     Davidson diagonalization with overlap
     ethr =  1.98E-08,  avg # of iterations =  2.0

     total cpu time spent up to now is        7.9 secs

     total energy              =    -329.48827013 Ry
     Harris-Foulkes estimate   =    -329.48827011 Ry
     estimated scf accuracy    <       0.00000082 Ry

     iteration #  5     ecut=    30.00 Ry     beta=0.70
     Davidson diagonalization with overlap
     ethr =  1.48E-09,  avg # of iterations =  3.0

     total cpu time spent up to now is        8.2 secs

     total energy              =    -329.48827027 Ry
     Harris-Foulkes estimate   =    -329.48827040 Ry
     estimated scf accuracy    <       0.00000027 Ry

     iteration #  6     ecut=    30.00 Ry     beta=0.70
     Davidson diagonalization with overlap
     ethr =  4.86E-10,  avg # of iterations =  2.0

     total cpu time spent up to now is        8.5 secs

     total energy              =    -329.48827029 Ry
     Harris-Foulkes estimate   =    -329.48827033 Ry
     estimated scf accuracy    <       0.00000003 Ry

     iteration #  7     ecut=    30.00 Ry     beta=0.70
     Davidson diagonalization with overlap
     ethr =  5.80E-11,  avg # of iterations =  2.0

     total cpu time spent up to now is        8.7 secs

     total energy              =    -329.48827029 Ry
     Harris-Foulkes estimate   =    -329.48827030 Ry
     estimated scf accuracy    <          7.0E-09 Ry

     iteration #  8     ecut=    30.00 Ry     beta=0.70
     Davidson diagonalization with overlap
     ethr =  1.27E-11,  avg # of iterations =  2.0

     total cpu time spent up to now is        9.0 secs

     total energy              =    -329.48827027 Ry
     Harris-Foulkes estimate   =    -329.48827029 Ry
     estimated scf accuracy    <          8.3E-10 Ry

     iteration #  9     ecut=    30.00 Ry     beta=0.70
     Davidson diagonalization with overlap
     ethr =  1.50E-12,  avg # of iterations =  2.0

     total cpu time spent up to now is        9.2 secs

     End of self-consistent calculation

          k = 0.0000 0.0000 0.0000 ( 22119 PWs)   bands (ev):

    -8.4248  -7.7299  -7.6297  -7.1846  -6.9850  -6.7704  -6.7175  -6.4464
    -6.2676  -6.0416  -5.9972  -5.7600  -5.7192  -5.6734  -5.4296  -5.3366
    -5.3314  -5.2280  -5.1891  -5.1886  -5.1692  -5.1359  -4.9775  -4.9147
    -4.8614  -4.6706  -4.4113  -3.7950  -2.4919  -2.1835  -0.5475  -0.2446
     0.4898   0.8199

     the Fermi energy is    -3.7763 ev

!    total energy              =    -329.48827029 Ry
     Harris-Foulkes estimate   =    -329.48827027 Ry
     estimated scf accuracy    <          1.4E-10 Ry

     The total energy is the sum of the following terms:

     one-electron contribution =    -609.59653899 Ry
     hartree contribution      =     326.25831096 Ry
     xc contribution           =     -51.41181818 Ry
     ewald contribution        =       5.26312267 Ry
     smearing contrib. (-TS)   =      -0.00134676 Ry

     convergence has been achieved in   9 iterations

     Forces acting on atoms (Ry/au):

     atom    1 type  1   force =    -0.00237429   -0.00058856   -0.00776948
     atom    2 type  1   force =    -0.00149462   -0.00050310   -0.00170731
     atom    3 type  1   force =    -0.00536876    0.00111632    0.01057165
     atom    4 type  1   force =     0.00440633   -0.00057534    0.00017906
     atom    5 type  1   force =     0.00483133    0.00055068   -0.00127392

     Total force =     0.016082     Total SCF correction =     0.000049

     number of scf cycles    =   3
     number of bfgs steps    =   2

     energy   old            =    -329.4879220797 Ry
     energy   new            =    -329.4882702942 Ry

     CASE: energy  _new < energy  _old

     new trust radius        =       0.0220672428 bohr
     new conv_thr            =       0.0000000003 Ry


ATOMIC_POSITIONS (bohr)
Au      -1.785035556   2.182594302  -0.794446489
Au      -0.758377078   2.875376164   4.166532828
Au       3.110281596   1.970740858   0.400440184
Au       4.051266966   3.544783400   5.801464068
Au       7.643010073   1.850720276   2.582188409



     Writing output data file pwscf.save
     Check: negative starting charge=   -0.006490
     NEW-OLD atomic charge density approx. for the potential
     Check: negative starting charge=   -0.006487

     negative rho (up, down):  5.580E-05 0.000E+00

     total cpu time spent up to now is        9.5 secs

     per-process dynamical memory:    50.7 Mb

     Self-consistent Calculation

     iteration #  1     ecut=    30.00 Ry     beta=0.70
     Davidson diagonalization with overlap
     ethr =  1.00E-06,  avg # of iterations =  4.0

     negative rho (up, down):  2.555E-07 0.000E+00

     total cpu time spent up to now is        9.9 secs

     total energy              =    -329.48869812 Ry
     Harris-Foulkes estimate   =    -329.48869981 Ry
     estimated scf accuracy    <       0.00006168 Ry

     iteration #  2     ecut=    30.00 Ry     beta=0.70
     Davidson diagonalization with overlap
     ethr =  1.12E-07,  avg # of iterations =  2.0

     negative rho (up, down):  1.266E-08 0.000E+00

     total cpu time spent up to now is       10.2 secs

     total energy              =    -329.48870275 Ry
     Harris-Foulkes estimate   =    -329.48873272 Ry
     estimated scf accuracy    <       0.00006546 Ry

     iteration #  3     ecut=    30.00 Ry     beta=0.70
     Davidson diagonalization with overlap
     ethr =  1.12E-07,  avg # of iterations =  2.0

     total cpu time spent up to now is       10.5 secs

     total energy              =    -329.48871918 Ry
     Harris-Foulkes estimate   =    -329.48872498 Ry
     estimated scf accuracy    <       0.00002309 Ry

     iteration #  4     ecut=    30.00 Ry     beta=0.70
     Davidson diagonalization with overlap
     ethr =  4.20E-08,  avg # of iterations =  2.0

     total cpu time spent up to now is       10.8 secs

     total energy              =    -329.48872465 Ry
     Harris-Foulkes estimate   =    -329.48872416 Ry
     estimated scf accuracy    <       0.00000187 Ry

     iteration #  5     ecut=    30.00 Ry     beta=0.70
     Davidson diagonalization with overlap
     ethr =  3.40E-09,  avg # of iterations =  3.0

     total cpu time spent up to now is       11.1 secs

     total energy              =    -329.48872504 Ry
     Harris-Foulkes estimate   =    -329.48872526 Ry
     estimated scf accuracy    <       0.00000065 Ry

     iteration #  6     ecut=    30.00 Ry     beta=0.70
     Davidson diagonalization with overlap
     ethr =  1.18E-09,  avg # of iterations =  2.0

     total cpu time spent up to now is       11.3 secs

     total energy              =    -329.48872523 Ry
     Harris-Foulkes estimate   =    -329.48872519 Ry
     estimated scf accuracy    <       0.00000006 Ry

     iteration #  7     ecut=    30.00 Ry     beta=0.70
     Davidson diagonalization with overlap
     ethr =  1.15E-10,  avg # of iterations =  2.0

     total cpu time spent up to now is       11.5 secs

     total energy              =    -329.48872529 Ry
     Harris-Foulkes estimate   =    -329.48872525 Ry
     estimated scf accuracy    <       0.00000002 Ry

     iteration #  8     ecut=    30.00 Ry     beta=0.70
     Davidson diagonalization with overlap
     ethr =  2.81E-11,  avg # of iterations =  2.0

     total cpu time spent up to now is       11.8 secs

     total energy              =    -329.48872536 Ry
     Harris-Foulkes estimate   =    -329.48872529 Ry
     estimated scf accuracy    <          1.5E-09 Ry

     iteration #  9     ecut=    30.00 Ry     beta=0.70
     Davidson diagonalization with overlap
     ethr =  2.75E-12,  avg # of iterations =  3.0

     total cpu time spent up to now is       12.2 secs

     End of self-consistent calculation

          k = 0.0000 0.0000 0.0000 ( 22119 PWs)   bands (ev):

    -8.4293  -7.7327  -7.6242  -7.1909  -6.9747  -6.7713  -6.7067  -6.4477
    -6.2678  -6.0347  -6.0019  -5.7600  -5.7199  -5.6758  -5.4273  -5.3485
    -5.3337  -5.2271  -5.1961  -5.1900  -5.1703  -5.1360  -4.9823  -4.9221
    -4.8665  -4.6720  -4.4237  -3.7903  -2.4952  -2.1920  -0.5482  -0.2392
     0.4830   0.8192

     the Fermi energy is    -3.7686 ev

!    total energy              =    -329.48872542 Ry
     Harris-Foulkes estimate   =    -329.48872537 Ry
     estimated scf accuracy    <          2.2E-10 Ry

     The total energy is the sum of the following terms:

     one-electron contribution =    -609.33736849 Ry
     hartree contribution      =     326.12392683 Ry
     xc contribution           =     -51.40862411 Ry
     ewald contribution        =       5.13530463 Ry
     smearing contrib. (-TS)   =      -0.00196428 Ry

     convergence has been achieved in   9 iterations

     Forces acting on atoms (Ry/au):

     atom    1 type  1   force =    -0.00202345   -0.00042819   -0.00653032
     atom    2 type  1   force =    -0.00083944   -0.00025156   -0.00164621
     atom    3 type  1   force =    -0.00413561    0.00075678    0.01012191
     atom    4 type  1   force =     0.00321865   -0.00071431   -0.00009193
     atom    5 type  1   force =     0.00377985    0.00063728   -0.00185345

     Total force =     0.014126     Total SCF correction =     0.000066

     number of scf cycles    =   4
     number of bfgs steps    =   3

     energy   old            =    -329.4882702942 Ry
     energy   new            =    -329.4887254186 Ry

     CASE: energy  _new < energy  _old

     new trust radius        =       0.0331008642 bohr
     new conv_thr            =       0.0000000005 Ry


ATOMIC_POSITIONS (bohr)
Au      -1.791375843   2.181044032  -0.815438028
Au      -0.762385885   2.874127385   4.161629088
Au       3.095685188   1.973613133   0.430009800
Au       4.063018318   3.543081755   5.801822394
Au       7.656204222   1.852348695   2.578155746



     Writing output data file pwscf.save
     Check: negative starting charge=   -0.006487
     NEW-OLD atomic charge density approx. for the potential
     Check: negative starting charge=   -0.006485

     negative rho (up, down):  1.562E-04 0.000E+00

     total cpu time spent up to now is       12.5 secs

     per-process dynamical memory:    50.7 Mb

     Self-consistent Calculation

     iteration #  1     ecut=    30.00 Ry     beta=0.70
     Davidson diagonalization with overlap
     ethr =  1.00E-06,  avg # of iterations =  4.0

     negative rho (up, down):  2.152E-06 0.000E+00

     total cpu time spent up to now is       13.0 secs

     total energy              =    -329.48922888 Ry
     Harris-Foulkes estimate   =    -329.48922851 Ry
     estimated scf accuracy    <       0.00013499 Ry

     iteration #  2     ecut=    30.00 Ry     beta=0.70
     Davidson diagonalization with overlap
     ethr =  2.45E-07,  avg # of iterations =  2.0

     negative rho (up, down):  1.991E-07 0.000E+00

     total cpu time spent up to now is       13.2 secs

     total energy              =    -329.48923665 Ry
     Harris-Foulkes estimate   =    -329.48930779 Ry
     estimated scf accuracy    <       0.00015271 Ry

     iteration #  3     ecut=    30.00 Ry     beta=0.70
     Davidson diagonalization with overlap
     ethr =  2.45E-07,  avg # of iterations =  2.0

     total cpu time spent up to now is       13.5 secs

     total energy              =    -329.48927228 Ry
     Harris-Foulkes estimate   =    -329.48928714 Ry
     estimated scf accuracy    <       0.00004966 Ry

     iteration #  4     ecut=    30.00 Ry     beta=0.70
     Davidson diagonalization with overlap
     ethr =  9.03E-08,  avg # of iterations =  2.0

     total cpu time spent up to now is       13.7 secs

     total energy              =    -329.48928360 Ry
     Harris-Foulkes estimate   =    -329.48928284 Ry
     estimated scf accuracy    <       0.00000372 Ry

     iteration #  5     ecut=    30.00 Ry     beta=0.70
     Davidson diagonalization with overlap
     ethr =  6.76E-09,  avg # of iterations =  3.0

     total cpu time spent up to now is       14.0 secs

     total energy              =    -329.48928462 Ry
     Harris-Foulkes estimate   =    -329.48928488 Ry
     estimated scf accuracy    <       0.00000132 Ry

     iteration #  6     ecut=    30.00 Ry     beta=0.70
     Davidson diagonalization with overlap
     ethr =  2.40E-09,  avg # of iterations =  2.0

     total cpu time spent up to now is       14.2 secs

     total energy              =    -329.48928499 Ry
     Harris-Foulkes estimate   =    -329.48928491 Ry
     estimated scf accuracy    <       0.00000013 Ry

     iteration #  7     ecut=    30.00 Ry     beta=0.70
     Davidson diagonalization with overlap
     ethr =  2.33E-10,  avg # of iterations =  2.0

     total cpu time spent up to now is       14.4 secs

     total energy              =    -329.48928510 Ry
     Harris-Foulkes estimate   =    -329.48928503 Ry
     estimated scf accuracy    <       0.00000003 Ry

     iteration #  8     ecut=    30.00 Ry     beta=0.70
     Davidson diagonalization with overlap
     ethr =  5.43E-11,  avg # of iterations =  2.0

     total cpu time spent up to now is       14.7 secs

     total energy              =    -329.48928520 Ry
     Harris-Foulkes estimate   =    -329.48928511 Ry
     estimated scf accuracy    <          4.1E-09 Ry

     iteration #  9     ecut=    30.00 Ry     beta=0.70
     Davidson diagonalization with overlap
     ethr =  7.43E-12,  avg # of iterations =  2.0

     total cpu time spent up to now is       15.0 secs

     total energy              =    -329.48928519 Ry
     Harris-Foulkes estimate   =    -329.48928520 Ry
     estimated scf accuracy    <          4.6E-10 Ry

     iteration # 10     ecut=    30.00 Ry     beta=0.70
     Davidson diagonalization with overlap
     ethr =  8.42E-13,  avg # of iterations =  2.0

     total cpu time spent up to now is       15.2 secs

     End of self-consistent calculation

          k = 0.0000 0.0000 0.0000 ( 22119 PWs)   bands (ev):

    -8.4370  -7.7381  -7.6190  -7.2008  -6.9601  -6.7734  -6.6908  -6.4514
    -6.2687  -6.0242  -6.0095  -5.7593  -5.7206  -5.6796  -5.4233  -5.3707
    -5.3315  -5.2257  -5.2063  -5.1912  -5.1714  -5.1350  -4.9888  -4.9319
    -4.8718  -4.6737  -4.4409  -3.7837  -2.4990  -2.2033  -0.5494  -0.2311
     0.4740   0.8192

     the Fermi energy is    -3.7581 ev

!    total energy              =    -329.48928518 Ry
     Harris-Foulkes estimate   =    -329.48928519 Ry
     estimated scf accuracy    <          8.6E-11 Ry

     The total energy is the sum of the following terms:

     one-electron contribution =    -609.05946935 Ry
     hartree contribution      =     325.97829462 Ry
     xc contribution           =     -51.40468430 Ry
     ewald contribution        =       4.99936121 Ry
     smearing contrib. (-TS)   =      -0.00278736 Ry

     convergence has been achieved in  10 iterations

     Forces acting on atoms (Ry/au):

     atom    1 type  1   force =    -0.00142151   -0.00022541   -0.00465479
     atom    2 type  1   force =    -0.00023663    0.00009481   -0.00158827
     atom    3 type  1   force =    -0.00251934    0.00024622    0.00930440
     atom    4 type  1   force =     0.00168182   -0.00088356   -0.00042769
     atom    5 type  1   force =     0.00249567    0.00076794   -0.00263365

     Total force =     0.011698     Total SCF correction =     0.000050

     number of scf cycles    =   5
     number of bfgs steps    =   4

     energy   old            =    -329.4887254186 Ry
     energy   new            =    -329.4892851776 Ry

     CASE: energy  _new < energy  _old

     new trust radius        =       0.0496512964 bohr
     new conv_thr            =       0.0000000006 Ry


ATOMIC_POSITIONS (bohr)
Au      -1.800309996   2.178958944  -0.845230938
Au      -0.767639855   2.872773866   4.153988301
Au       3.075520155   1.977235889   0.475236985
Au       4.078829003   3.540093496   5.801789089
Au       7.674746693   1.855152805   2.570395564



     Writing output data file pwscf.save
     Check: negative starting charge=   -0.006485
     NEW-OLD atomic charge density approx. for the potential
     Check: negative starting charge=   -0.006485

     negative rho (up, down):  3.680E-04 0.000E+00

     total cpu time spent up to now is       15.5 secs

     per-process dynamical memory:    50.7 Mb

     Self-consistent Calculation

     iteration #  1     ecut=    30.00 Ry     beta=0.70
     Davidson diagonalization with overlap
     ethr =  1.00E-06,  avg # of iterations =  5.0

     negative rho (up, down):  1.142E-05 0.000E+00

     total cpu time spent up to now is       15.9 secs

     total energy              =    -329.48974875 Ry
     Harris-Foulkes estimate   =    -329.48969370 Ry
     estimated scf accuracy    <       0.00029374 Ry

     iteration #  2     ecut=    30.00 Ry     beta=0.70
     Davidson diagonalization with overlap
     ethr =  5.34E-07,  avg # of iterations =  3.0

     negative rho (up, down):  1.987E-06 0.000E+00

     total cpu time spent up to now is       16.2 secs

     total energy              =    -329.48975939 Ry
     Harris-Foulkes estimate   =    -329.48992922 Ry
     estimated scf accuracy    <       0.00036420 Ry

     iteration #  3     ecut=    30.00 Ry     beta=0.70
     Davidson diagonalization with overlap
     ethr =  5.34E-07,  avg # of iterations =  2.0

     negative rho (up, down):  4.054E-08 0.000E+00

     total cpu time spent up to now is       16.5 secs

     total energy              =    -329.48984220 Ry
     Harris-Foulkes estimate   =    -329.48987597 Ry
     estimated scf accuracy    <       0.00010722 Ry

     iteration #  4     ecut=    30.00 Ry     beta=0.70
     Davidson diagonalization with overlap
     ethr =  1.95E-07,  avg # of iterations =  2.0

     total cpu time spent up to now is       16.9 secs

     total energy              =    -329.48986524 Ry
     Harris-Foulkes estimate   =    -329.48986464 Ry
     estimated scf accuracy    <       0.00000737 Ry

     iteration #  5     ecut=    30.00 Ry     beta=0.70
     Davidson diagonalization with overlap
     ethr =  1.34E-08,  avg # of iterations =  3.0

     total cpu time spent up to now is       17.1 secs

     total energy              =    -329.48986703 Ry
     Harris-Foulkes estimate   =    -329.48986788 Ry
     estimated scf accuracy    <       0.00000302 Ry

     iteration #  6     ecut=    30.00 Ry     beta=0.70
     Davidson diagonalization with overlap
     ethr =  5.48E-09,  avg # of iterations =  2.0

     total cpu time spent up to now is       17.4 secs

     total energy              =    -329.48986761 Ry
     Harris-Foulkes estimate   =    -329.48986768 Ry
     estimated scf accuracy    <       0.00000024 Ry

     iteration #  7     ecut=    30.00 Ry     beta=0.70
     Davidson diagonalization with overlap
     ethr =  4.45E-10,  avg # of iterations =  2.0

     total cpu time spent up to now is       17.6 secs

     total energy              =    -329.48986768 Ry
     Harris-Foulkes estimate   =    -329.48986768 Ry
     estimated scf accuracy    <       0.00000006 Ry

     iteration #  8     ecut=    30.00 Ry     beta=0.70
     Davidson diagonalization with overlap
     ethr =  1.08E-10,  avg # of iterations =  2.0

     total cpu time spent up to now is       17.8 secs

     total energy              =    -329.48986781 Ry
     Harris-Foulkes estimate   =    -329.48986770 Ry
     estimated scf accuracy    <          9.7E-09 Ry

     iteration #  9     ecut=    30.00 Ry     beta=0.70
     Davidson diagonalization with overlap
     ethr =  1.77E-11,  avg # of iterations =  2.0

     total cpu time spent up to now is       18.1 secs

     total energy              =    -329.48986786 Ry
     Harris-Foulkes estimate   =    -329.48986781 Ry
     estimated scf accuracy    <          9.3E-10 Ry

     iteration # 10     ecut=    30.00 Ry     beta=0.70
     Davidson diagonalization with overlap
     ethr =  1.70E-12,  avg # of iterations =  2.0

     total cpu time spent up to now is       18.5 secs

     End of self-consistent calculation

          k = 0.0000 0.0000 0.0000 ( 22119 PWs)   bands (ev):

    -8.4499  -7.7478  -7.6178  -7.2143  -6.9391  -6.7772  -6.6677  -6.4606
    -6.2701  -6.0241  -6.0063  -5.7570  -5.7209  -5.6850  -5.4165  -5.4012
    -5.3277  -5.2259  -5.2172  -5.1925  -5.1719  -5.1318  -4.9972  -4.9443
    -4.8751  -4.6758  -4.4638  -3.7747  -2.5030  -2.2178  -0.5514  -0.2191
     0.4627   0.8207

     the Fermi energy is    -3.7444 ev

!    total energy              =    -329.48986786 Ry
     Harris-Foulkes estimate   =    -329.48986786 Ry
     estimated scf accuracy    <          1.4E-10 Ry

     The total energy is the sum of the following terms:

     one-electron contribution =    -608.80143267 Ry
     hartree contribution      =     325.84092126 Ry
     xc contribution           =     -51.40026135 Ry
     ewald contribution        =       4.87471104 Ry
     smearing contrib. (-TS)   =      -0.00380615 Ry

     convergence has been achieved in  10 iterations

     Forces acting on atoms (Ry/au):

     atom    1 type  1   force =    -0.00044479   -0.00010822   -0.00165642
     atom    2 type  1   force =     0.00006789    0.00049437   -0.00109870
     atom    3 type  1   force =    -0.00024125   -0.00012023    0.00649573
     atom    4 type  1   force =    -0.00026348   -0.00116836   -0.00047036
     atom    5 type  1   force =     0.00088164    0.00090244   -0.00327026

     Total force =     0.007786     Total SCF correction =     0.000064

     number of scf cycles    =   6
     number of bfgs steps    =   5

     energy   old            =    -329.4892851776 Ry
     energy   new            =    -329.4898678635 Ry

     CASE: energy  _new < energy  _old

     new trust radius        =       0.0635237834 bohr
     new conv_thr            =       0.0000000006 Ry


ATOMIC_POSITIONS (bohr)
Au      -1.810729899   2.176349196  -0.880553790
Au      -0.774020118   2.871965631   4.144007138
Au       3.052542558   1.981298920   0.534319917
Au       4.096277413   3.534964230   5.801358092
Au       7.697076046   1.859637024   2.557047642



     Writing output data file pwscf.save
     Check: negative starting charge=   -0.006485
     NEW-OLD atomic charge density approx. for the potential
     Check: negative starting charge=   -0.006492

     negative rho (up, down):  5.715E-04 0.000E+00

     total cpu time spent up to now is       18.9 secs

     per-process dynamical memory:    50.7 Mb

     Self-consistent Calculation

     iteration #  1     ecut=    30.00 Ry     beta=0.70
     Davidson diagonalization with overlap
     ethr =  1.00E-06,  avg # of iterations =  5.0

     negative rho (up, down):  2.537E-05 0.000E+00

     total cpu time spent up to now is       19.4 secs

     total energy              =    -329.48993593 Ry
     Harris-Foulkes estimate   =    -329.48975739 Ry
     estimated scf accuracy    <       0.00046681 Ry

     iteration #  2     ecut=    30.00 Ry     beta=0.70
     Davidson diagonalization with overlap
     ethr =  8.49E-07,  avg # of iterations =  4.0

     negative rho (up, down):  5.834E-06 0.000E+00

     total cpu time spent up to now is       19.6 secs

     total energy              =    -329.48994871 Ry
     Harris-Foulkes estimate   =    -329.49023249 Ry
     estimated scf accuracy    <       0.00061550 Ry

     iteration #  3     ecut=    30.00 Ry     beta=0.70
     Davidson diagonalization with overlap
     ethr =  8.49E-07,  avg # of iterations =  2.0

     negative rho (up, down):  2.286E-07 0.000E+00

     total cpu time spent up to now is       19.9 secs

     total energy              =    -329.49008643 Ry
     Harris-Foulkes estimate   =    -329.49014040 Ry
     estimated scf accuracy    <       0.00016573 Ry

     iteration #  4     ecut=    30.00 Ry     beta=0.70
     Davidson diagonalization with overlap
     ethr =  3.01E-07,  avg # of iterations =  2.0

     total cpu time spent up to now is       20.1 secs

     total energy              =    -329.49012202 Ry
     Harris-Foulkes estimate   =    -329.49012099 Ry
     estimated scf accuracy    <       0.00001105 Ry

     iteration #  5     ecut=    30.00 Ry     beta=0.70
     Davidson diagonalization with overlap
     ethr =  2.01E-08,  avg # of iterations =  3.0

     total cpu time spent up to now is       20.4 secs

     total energy              =    -329.49012454 Ry
     Harris-Foulkes estimate   =    -329.49012605 Ry
     estimated scf accuracy    <       0.00000460 Ry

     iteration #  6     ecut=    30.00 Ry     beta=0.70
     Davidson diagonalization with overlap
     ethr =  8.36E-09,  avg # of iterations =  2.0

     total cpu time spent up to now is       20.6 secs

     total energy              =    -329.49012559 Ry
     Harris-Foulkes estimate   =    -329.49012551 Ry
     estimated scf accuracy    <       0.00000031 Ry

     iteration #  7     ecut=    30.00 Ry     beta=0.70
     Davidson diagonalization with overlap
     ethr =  5.64E-10,  avg # of iterations =  2.0

     total cpu time spent up to now is       21.0 secs

     total energy              =    -329.49012573 Ry
     Harris-Foulkes estimate   =    -329.49012569 Ry
     estimated scf accuracy    <       0.00000008 Ry

     iteration #  8     ecut=    30.00 Ry     beta=0.70
     Davidson diagonalization with overlap
     ethr =  1.50E-10,  avg # of iterations =  2.0

     total cpu time spent up to now is       21.2 secs

     total energy              =    -329.49012580 Ry
     Harris-Foulkes estimate   =    -329.49012575 Ry
     estimated scf accuracy    <       0.00000002 Ry

     iteration #  9     ecut=    30.00 Ry     beta=0.70
     Davidson diagonalization with overlap
     ethr =  3.21E-11,  avg # of iterations =  2.0

     total cpu time spent up to now is       21.4 secs

     total energy              =    -329.49012580 Ry
     Harris-Foulkes estimate   =    -329.49012581 Ry
     estimated scf accuracy    <          1.8E-09 Ry

     iteration # 10     ecut=    30.00 Ry     beta=0.70
     Davidson diagonalization with overlap
     ethr =  3.35E-12,  avg # of iterations =  2.0

     total cpu time spent up to now is       21.7 secs

     End of self-consistent calculation

          k = 0.0000 0.0000 0.0000 ( 22119 PWs)   bands (ev):

    -8.4678  -7.7618  -7.6281  -7.2255  -6.9129  -6.7821  -6.6393  -6.4783
    -6.2707  -6.0434  -5.9839  -5.7534  -5.7199  -5.6900  -5.4352  -5.4057
    -5.3224  -5.2385  -5.2164  -5.1930  -5.1710  -5.1260  -5.0059  -4.9569
    -4.8721  -4.6779  -4.4890  -3.7648  -2.5055  -2.2334  -0.5543  -0.2039
     0.4517   0.8248

     the Fermi energy is    -3.7302 ev

!    total energy              =    -329.49012582 Ry
     Harris-Foulkes estimate   =    -329.49012580 Ry
     estimated scf accuracy    <          1.9E-10 Ry

     The total energy is the sum of the following terms:

     one-electron contribution =    -608.66614696 Ry
     hartree contribution      =     325.76512266 Ry
     xc contribution           =     -51.39653560 Ry
     ewald contribution        =       4.81220633 Ry
     smearing contrib. (-TS)   =      -0.00477224 Ry

     convergence has been achieved in  10 iterations

     Forces acting on atoms (Ry/au):

     atom    1 type  1   force =     0.00110883   -0.00023057    0.00159144
     atom    2 type  1   force =    -0.00010632    0.00086516   -0.00007379
     atom    3 type  1   force =     0.00154514   -0.00003963    0.00199851
     atom    4 type  1   force =    -0.00187541   -0.00156166   -0.00012683
     atom    5 type  1   force =    -0.00067224    0.00096669   -0.00338933

     Total force =     0.005460     Total SCF correction =     0.000076

     number of scf cycles    =   7
     number of bfgs steps    =   6

     energy   old            =    -329.4898678635 Ry
     energy   new            =    -329.4901258221 Ry

     CASE: energy  _new < energy  _old

     new trust radius        =       0.0055072176 bohr
     new conv_thr            =       0.0000000003 Ry


ATOMIC_POSITIONS (bohr)
Au      -1.810249184   2.175911248  -0.881252672
Au      -0.774725981   2.872737699   4.143344286
Au       3.052426228   1.981600304   0.539817651
Au       4.095700758   3.533102459   5.801298537
Au       7.697994180   1.860863290   2.552971198



     Writing output data file pwscf.save
     Check: negative starting charge=   -0.006492
     NEW-OLD atomic charge density approx. for the potential
     Check: negative starting charge=   -0.006493

     negative rho (up, down):  1.349E-07 0.000E+00

     total cpu time spent up to now is       21.9 secs

     per-process dynamical memory:    50.7 Mb

     Self-consistent Calculation

     iteration #  1     ecut=    30.00 Ry     beta=0.70
     Davidson diagonalization with overlap
     ethr =  1.00E-06,  avg # of iterations =  3.0

     Threshold (ethr) on eigenvalues was too large:
     Diagonalizing with lowered threshold

     Davidson diagonalization with overlap
     ethr =  7.01E-09,  avg # of iterations =  2.0

     total cpu time spent up to now is       22.7 secs

     total energy              =    -329.49015182 Ry
     Harris-Foulkes estimate   =    -329.49015223 Ry
     estimated scf accuracy    <       0.00000414 Ry

     iteration #  2     ecut=    30.00 Ry     beta=0.70
     Davidson diagonalization with overlap
     ethr =  7.53E-09,  avg # of iterations =  2.0

     total cpu time spent up to now is       23.1 secs

     total energy              =    -329.49015188 Ry
     Harris-Foulkes estimate   =    -329.49015410 Ry
     estimated scf accuracy    <       0.00000389 Ry

     iteration #  3     ecut=    30.00 Ry     beta=0.70
     Davidson diagonalization with overlap
     ethr =  7.06E-09,  avg # of iterations =  2.0

     total cpu time spent up to now is       23.4 secs

     total energy              =    -329.49015309 Ry
     Harris-Foulkes estimate   =    -329.49015315 Ry
     estimated scf accuracy    <       0.00000123 Ry

     iteration #  4     ecut=    30.00 Ry     beta=0.70
     Davidson diagonalization with overlap
     ethr =  2.24E-09,  avg # of iterations =  2.0

     total cpu time spent up to now is       23.6 secs

     total energy              =    -329.49015364 Ry
     Harris-Foulkes estimate   =    -329.49015340 Ry
     estimated scf accuracy    <       0.00000015 Ry

     iteration #  5     ecut=    30.00 Ry     beta=0.70
     Davidson diagonalization with overlap
     ethr =  2.80E-10,  avg # of iterations =  2.0

     total cpu time spent up to now is       23.9 secs

     total energy              =    -329.49015372 Ry
     Harris-Foulkes estimate   =    -329.49015368 Ry
     estimated scf accuracy    <       0.00000003 Ry

     iteration #  6     ecut=    30.00 Ry     beta=0.70
     Davidson diagonalization with overlap
     ethr =  4.64E-11,  avg # of iterations =  2.0

     total cpu time spent up to now is       24.1 secs

     total energy              =    -329.49015374 Ry
     Harris-Foulkes estimate   =    -329.49015373 Ry
     estimated scf accuracy    <          3.5E-09 Ry

     iteration #  7     ecut=    30.00 Ry     beta=0.70
     Davidson diagonalization with overlap
     ethr =  6.37E-12,  avg # of iterations =  2.0

     total cpu time spent up to now is       24.4 secs

     total energy              =    -329.49015372 Ry
     Harris-Foulkes estimate   =    -329.49015374 Ry
     estimated scf accuracy    <          7.6E-10 Ry

     iteration #  8     ecut=    30.00 Ry     beta=0.70
     Davidson diagonalization with overlap
     ethr =  1.39E-12,  avg # of iterations =  2.0

     total cpu time spent up to now is       24.6 secs

     End of self-consistent calculation

          k = 0.0000 0.0000 0.0000 ( 22119 PWs)   bands (ev):

    -8.4720  -7.7645  -7.6315  -7.2267  -6.9119  -6.7842  -6.6377  -6.4806
    -6.2715  -6.0460  -5.9824  -5.7538  -5.7202  -5.6907  -5.4373  -5.4048
    -5.3221  -5.2395  -5.2161  -5.1931  -5.1708  -5.1255  -5.0055  -4.9570
    -4.8708  -4.6783  -4.4898  -3.7647  -2.5042  -2.2334  -0.5550  -0.2032
     0.4527   0.8263

     the Fermi energy is    -3.7300 ev

!    total energy              =    -329.49015370 Ry
     Harris-Foulkes estimate   =    -329.49015372 Ry
     estimated scf accuracy    <          1.2E-10 Ry

     The total energy is the sum of the following terms:

     one-electron contribution =    -608.79192370 Ry
     hartree contribution      =     325.82713144 Ry
     xc contribution           =     -51.39689783 Ry
     ewald contribution        =       4.87632964 Ry
     smearing contrib. (-TS)   =      -0.00479325 Ry

     convergence has been achieved in   8 iterations

     Forces acting on atoms (Ry/au):

     atom    1 type  1   force =     0.00119680   -0.00024229    0.00160410
     atom    2 type  1   force =    -0.00029237    0.00088073    0.00005627
     atom    3 type  1   force =     0.00128048   -0.00009504    0.00154519
     atom    4 type  1   force =    -0.00168669   -0.00153985   -0.00007493
     atom    5 type  1   force =    -0.00049822    0.00099645   -0.00313063

     Total force =     0.005023     Total SCF correction =     0.000038

     number of scf cycles    =   8
     number of bfgs steps    =   7

     energy   old            =    -329.4901258221 Ry
     energy   new            =    -329.4901536990 Ry

     CASE: energy  _new < energy  _old


     WARNING: bfgs curvature condition failed, Theta= 0.904
     new trust radius        =       0.0060579394 bohr
     new conv_thr            =            1.0E-10 Ry


ATOMIC_POSITIONS (bohr)
Au      -1.808951802   2.175314458  -0.880887882
Au      -0.775772252   2.874042126   4.142832686
Au       3.052921622   1.981821704   0.545736896
Au       4.094231595   3.530344152   5.801255863
Au       7.698716837   1.862692559   2.547241436



     Writing output data file pwscf.save
     Check: negative starting charge=   -0.006493
     NEW-OLD atomic charge density approx. for the potential
     Check: negative starting charge=   -0.006495

     negative rho (up, down):  5.696E-07 0.000E+00

     total cpu time spent up to now is       25.0 secs

     per-process dynamical memory:    50.7 Mb

     Self-consistent Calculation

     iteration #  1     ecut=    30.00 Ry     beta=0.70
     Davidson diagonalization with overlap
     ethr =  1.00E-06,  avg # of iterations =  3.0

     Threshold (ethr) on eigenvalues was too large:
     Diagonalizing with lowered threshold

     Davidson diagonalization with overlap
     ethr =  1.07E-08,  avg # of iterations =  2.0

     total cpu time spent up to now is       25.6 secs

     total energy              =    -329.49018778 Ry
     Harris-Foulkes estimate   =    -329.49018906 Ry
     estimated scf accuracy    <       0.00000630 Ry

     iteration #  2     ecut=    30.00 Ry     beta=0.70
     Davidson diagonalization with overlap
     ethr =  1.15E-08,  avg # of iterations =  2.0

     total cpu time spent up to now is       25.9 secs

     total energy              =    -329.49018835 Ry
     Harris-Foulkes estimate   =    -329.49019109 Ry
     estimated scf accuracy    <       0.00000532 Ry

     iteration #  3     ecut=    30.00 Ry     beta=0.70
     Davidson diagonalization with overlap
     ethr =  9.68E-09,  avg # of iterations =  2.0

     total cpu time spent up to now is       26.2 secs

     total energy              =    -329.49018946 Ry
     Harris-Foulkes estimate   =    -329.49019008 Ry
     estimated scf accuracy    <       0.00000170 Ry

     iteration #  4     ecut=    30.00 Ry     beta=0.70
     Davidson diagonalization with overlap
     ethr =  3.08E-09,  avg # of iterations =  2.0

     total cpu time spent up to now is       26.4 secs

     total energy              =    -329.49018992 Ry
     Harris-Foulkes estimate   =    -329.49018993 Ry
     estimated scf accuracy    <       0.00000033 Ry

     iteration #  5     ecut=    30.00 Ry     beta=0.70
     Davidson diagonalization with overlap
     ethr =  5.99E-10,  avg # of iterations =  2.0

     total cpu time spent up to now is       26.7 secs

     total energy              =    -329.49018984 Ry
     Harris-Foulkes estimate   =    -329.49018999 Ry
     estimated scf accuracy    <       0.00000003 Ry

     iteration #  6     ecut=    30.00 Ry     beta=0.70
     Davidson diagonalization with overlap
     ethr =  4.87E-11,  avg # of iterations =  2.0

     total cpu time spent up to now is       27.0 secs

     total energy              =    -329.49018986 Ry
     Harris-Foulkes estimate   =    -329.49018985 Ry
     estimated scf accuracy    <          4.7E-09 Ry

     iteration #  7     ecut=    30.00 Ry     beta=0.70
     Davidson diagonalization with overlap
     ethr =  8.53E-12,  avg # of iterations =  2.0

     total cpu time spent up to now is       27.2 secs

     total energy              =    -329.49018986 Ry
     Harris-Foulkes estimate   =    -329.49018986 Ry
     estimated scf accuracy    <          1.3E-09 Ry

     iteration #  8     ecut=    30.00 Ry     beta=0.70
     Davidson diagonalization with overlap
     ethr =  2.37E-12,  avg # of iterations =  2.0

     total cpu time spent up to now is       27.5 secs

     total energy              =    -329.49018989 Ry
     Harris-Foulkes estimate   =    -329.49018987 Ry
     estimated scf accuracy    <          1.5E-10 Ry

     iteration #  9     ecut=    30.00 Ry     beta=0.70
     Davidson diagonalization with overlap
     ethr =  2.81E-13,  avg # of iterations =  2.0

     total cpu time spent up to now is       27.7 secs

     End of self-consistent calculation

          k = 0.0000 0.0000 0.0000 ( 22119 PWs)   bands (ev):

    -8.4776  -7.7678  -7.6359  -7.2278  -6.9111  -6.7871  -6.6363  -6.4831
    -6.2725  -6.0491  -5.9808  -5.7547  -5.7208  -5.6916  -5.4392  -5.4039
    -5.3218  -5.2404  -5.2157  -5.1930  -5.1705  -5.1249  -5.0047  -4.9567
    -4.8691  -4.6788  -4.4900  -3.7649  -2.5021  -2.2329  -0.5559  -0.2028
     0.4546   0.8284

     the Fermi energy is    -3.7303 ev

!    total energy              =    -329.49018989 Ry
     Harris-Foulkes estimate   =    -329.49018989 Ry
     estimated scf accuracy    <          2.6E-11 Ry

     The total energy is the sum of the following terms:

     one-electron contribution =    -608.97723508 Ry
     hartree contribution      =     325.91872426 Ry
     xc contribution           =     -51.39753671 Ry
     ewald contribution        =       4.97065067 Ry
     smearing contrib. (-TS)   =      -0.00479303 Ry

     convergence has been achieved in   9 iterations

     Forces acting on atoms (Ry/au):

     atom    1 type  1   force =     0.00123137   -0.00025519    0.00150928
     atom    2 type  1   force =    -0.00053627    0.00089566    0.00021902
     atom    3 type  1   force =     0.00089910   -0.00015949    0.00102730
     atom    4 type  1   force =    -0.00137170   -0.00151669   -0.00002666
     atom    5 type  1   force =    -0.00022251    0.00103570   -0.00272894

     Total force =     0.004431     Total SCF correction =     0.000021

     number of scf cycles    =   9
     number of bfgs steps    =   8

     energy   old            =    -329.4901536990 Ry
     energy   new            =    -329.4901898904 Ry

     CASE: energy  _new < energy  _old

     new trust radius        =       0.0090869090 bohr
     new conv_thr            =            1.0E-10 Ry


ATOMIC_POSITIONS (bohr)
Au      -1.806403626   2.174404248  -0.879216842
Au      -0.777600250   2.876282856   4.142545345
Au       3.054022591   1.981924266   0.552924323
Au       4.091602124   3.525942797   5.801235052
Au       7.699525161   1.865660834   2.538691122



     Writing output data file pwscf.save
     Check: negative starting charge=   -0.006495
     NEW-OLD atomic charge density approx. for the potential
     Check: negative starting charge=   -0.006496

     negative rho (up, down):  3.690E-06 0.000E+00

     total cpu time spent up to now is       28.0 secs

     per-process dynamical memory:    50.7 Mb

     Self-consistent Calculation

     iteration #  1     ecut=    30.00 Ry     beta=0.70
     Davidson diagonalization with overlap
     ethr =  1.00E-06,  avg # of iterations =  3.0

     Threshold (ethr) on eigenvalues was too large:
     Diagonalizing with lowered threshold

     Davidson diagonalization with overlap
     ethr =  2.21E-08,  avg # of iterations =  2.0

     total cpu time spent up to now is       28.6 secs

     total energy              =    -329.49023306 Ry
     Harris-Foulkes estimate   =    -329.49023589 Ry
     estimated scf accuracy    <       0.00001296 Ry

     iteration #  2     ecut=    30.00 Ry     beta=0.70
     Davidson diagonalization with overlap
     ethr =  2.36E-08,  avg # of iterations =  2.0

     total cpu time spent up to now is       28.9 secs

     total energy              =    -329.49023471 Ry
     Harris-Foulkes estimate   =    -329.49023974 Ry
     estimated scf accuracy    <       0.00001039 Ry

     iteration #  3     ecut=    30.00 Ry     beta=0.70
     Davidson diagonalization with overlap
     ethr =  1.89E-08,  avg # of iterations =  2.0

     total cpu time spent up to now is       29.2 secs

     total energy              =    -329.49023683 Ry
     Harris-Foulkes estimate   =    -329.49023799 Ry
     estimated scf accuracy    <       0.00000309 Ry

     iteration #  4     ecut=    30.00 Ry     beta=0.70
     Davidson diagonalization with overlap
     ethr =  5.61E-09,  avg # of iterations =  2.0

     total cpu time spent up to now is       29.4 secs

     total energy              =    -329.49023738 Ry
     Harris-Foulkes estimate   =    -329.49023779 Ry
     estimated scf accuracy    <       0.00000081 Ry

     iteration #  5     ecut=    30.00 Ry     beta=0.70
     Davidson diagonalization with overlap
     ethr =  1.47E-09,  avg # of iterations =  2.0

     total cpu time spent up to now is       29.7 secs

     total energy              =    -329.49023755 Ry
     Harris-Foulkes estimate   =    -329.49023753 Ry
     estimated scf accuracy    <       0.00000003 Ry

     iteration #  6     ecut=    30.00 Ry     beta=0.70
     Davidson diagonalization with overlap
     ethr =  6.08E-11,  avg # of iterations =  3.0

     total cpu time spent up to now is       30.0 secs

     total energy              =    -329.49023762 Ry
     Harris-Foulkes estimate   =    -329.49023756 Ry
     estimated scf accuracy    <          6.1E-09 Ry

     iteration #  7     ecut=    30.00 Ry     beta=0.70
     Davidson diagonalization with overlap
     ethr =  1.12E-11,  avg # of iterations =  3.0

     total cpu time spent up to now is       30.3 secs

     total energy              =    -329.49023757 Ry
     Harris-Foulkes estimate   =    -329.49023762 Ry
     estimated scf accuracy    <          2.6E-09 Ry

     iteration #  8     ecut=    30.00 Ry     beta=0.70
     Davidson diagonalization with overlap
     ethr =  4.82E-12,  avg # of iterations =  2.0

     total cpu time spent up to now is       30.6 secs

     total energy              =    -329.49023752 Ry
     Harris-Foulkes estimate   =    -329.49023757 Ry
     estimated scf accuracy    <          2.7E-10 Ry

     iteration #  9     ecut=    30.00 Ry     beta=0.70
     Davidson diagonalization with overlap
     ethr =  4.91E-13,  avg # of iterations =  3.0

     total cpu time spent up to now is       30.9 secs

     End of self-consistent calculation

          k = 0.0000 0.0000 0.0000 ( 22119 PWs)   bands (ev):

    -8.4855  -7.7723  -7.6418  -7.2291  -6.9103  -6.7913  -6.6348  -6.4861
    -6.2739  -6.0533  -5.9789  -5.7562  -5.7218  -5.6929  -5.4412  -5.4027
    -5.3215  -5.2413  -5.2152  -5.1929  -5.1704  -5.1241  -5.0031  -4.9559
    -4.8668  -4.6796  -4.4897  -3.7656  -2.4990  -2.2320  -0.5571  -0.2026
     0.4579   0.8316

     the Fermi energy is    -3.7310 ev

!    total energy              =    -329.49023752 Ry
     Harris-Foulkes estimate   =    -329.49023752 Ry
     estimated scf accuracy    <          5.4E-11 Ry

     The total energy is the sum of the following terms:

     one-electron contribution =    -609.24725868 Ry
     hartree contribution      =     326.05239120 Ry
     xc contribution           =     -51.39854317 Ry
     ewald contribution        =       5.10794328 Ry
     smearing contrib. (-TS)   =      -0.00477016 Ry

     convergence has been achieved in   9 iterations

     Forces acting on atoms (Ry/au):

     atom    1 type  1   force =     0.00118453   -0.00026401    0.00126556
     atom    2 type  1   force =    -0.00085159    0.00091729    0.00044408
     atom    3 type  1   force =     0.00038746   -0.00023756    0.00039076
     atom    4 type  1   force =    -0.00088509   -0.00149847   -0.00000202
     atom    5 type  1   force =     0.00016469    0.00108275   -0.00209838

     Total force =     0.003719     Total SCF correction =     0.000036

     number of scf cycles    =  10
     number of bfgs steps    =   9

     energy   old            =    -329.4901898904 Ry
     energy   new            =    -329.4902375225 Ry

     CASE: energy  _new < energy  _old

     new trust radius        =       0.0136303636 bohr
     new conv_thr            =            1.0E-10 Ry


ATOMIC_POSITIONS (bohr)
Au      -1.802063166   2.172984618  -0.875968419
Au      -0.780872713   2.880034992   4.142694366
Au       3.055652072   1.981817221   0.562229513
Au       4.087580559   3.518874301   5.801204381
Au       7.700849249   1.870503867   2.526019160



     Writing output data file pwscf.save
     Check: negative starting charge=   -0.006496
     NEW-OLD atomic charge density approx. for the potential
     Check: negative starting charge=   -0.006498

     negative rho (up, down):  1.882E-05 0.000E+00

     total cpu time spent up to now is       31.2 secs

     per-process dynamical memory:    50.7 Mb

     Self-consistent Calculation

     iteration #  1     ecut=    30.00 Ry     beta=0.70
     Davidson diagonalization with overlap
     ethr =  1.00E-06,  avg # of iterations =  4.0

     Threshold (ethr) on eigenvalues was too large:
     Diagonalizing with lowered threshold

     Davidson diagonalization with overlap
     ethr =  5.24E-08,  avg # of iterations =  1.0

     negative rho (up, down):  3.426E-08 0.000E+00

     total cpu time spent up to now is       31.8 secs

     total energy              =    -329.49028202 Ry
     Harris-Foulkes estimate   =    -329.49028889 Ry
     estimated scf accuracy    <       0.00002922 Ry

     iteration #  2     ecut=    30.00 Ry     beta=0.70
     Davidson diagonalization with overlap
     ethr =  5.31E-08,  avg # of iterations =  2.0

     total cpu time spent up to now is       32.2 secs

     total energy              =    -329.49028535 Ry
     Harris-Foulkes estimate   =    -329.49029727 Ry
     estimated scf accuracy    <       0.00002413 Ry

     iteration #  3     ecut=    30.00 Ry     beta=0.70
     Davidson diagonalization with overlap
     ethr =  4.39E-08,  avg # of iterations =  2.0

     total cpu time spent up to now is       32.6 secs

     total energy              =    -329.49029004 Ry
     Harris-Foulkes estimate   =    -329.49029287 Ry
     estimated scf accuracy    <       0.00000692 Ry

     iteration #  4     ecut=    30.00 Ry     beta=0.70
     Davidson diagonalization with overlap
     ethr =  1.26E-08,  avg # of iterations =  2.0

     total cpu time spent up to now is       32.9 secs

     total energy              =    -329.49029134 Ry
     Harris-Foulkes estimate   =    -329.49029219 Ry
     estimated scf accuracy    <       0.00000182 Ry

     iteration #  5     ecut=    30.00 Ry     beta=0.70
     Davidson diagonalization with overlap
     ethr =  3.32E-09,  avg # of iterations =  2.0

     total cpu time spent up to now is       33.1 secs

     total energy              =    -329.49029156 Ry
     Harris-Foulkes estimate   =    -329.49029168 Ry
     estimated scf accuracy    <       0.00000007 Ry

     iteration #  6     ecut=    30.00 Ry     beta=0.70
     Davidson diagonalization with overlap
     ethr =  1.22E-10,  avg # of iterations =  3.0

     total cpu time spent up to now is       33.4 secs

     total energy              =    -329.49029147 Ry
     Harris-Foulkes estimate   =    -329.49029158 Ry
     estimated scf accuracy    <          8.8E-09 Ry

     iteration #  7     ecut=    30.00 Ry     beta=0.70
     Davidson diagonalization with overlap
     ethr =  1.60E-11,  avg # of iterations =  3.0

     total cpu time spent up to now is       33.8 secs

     total energy              =    -329.49029145 Ry
     Harris-Foulkes estimate   =    -329.49029147 Ry
     estimated scf accuracy    <          3.5E-09 Ry

     iteration #  8     ecut=    30.00 Ry     beta=0.70
     Davidson diagonalization with overlap
     ethr =  6.27E-12,  avg # of iterations =  2.0

     total cpu time spent up to now is       34.1 secs

     total energy              =    -329.49029144 Ry
     Harris-Foulkes estimate   =    -329.49029145 Ry
     estimated scf accuracy    <          3.2E-10 Ry

     iteration #  9     ecut=    30.00 Ry     beta=0.70
     Davidson diagonalization with overlap
     ethr =  5.83E-13,  avg # of iterations =  3.0

     total cpu time spent up to now is       34.6 secs

     End of self-consistent calculation

          k = 0.0000 0.0000 0.0000 ( 22119 PWs)   bands (ev):

    -8.4966  -7.7783  -7.6495  -7.2304  -6.9090  -6.7973  -6.6330  -6.4897
    -6.2758  -6.0591  -5.9764  -5.7586  -5.7234  -5.6946  -5.4435  -5.4008
    -5.3211  -5.2426  -5.2145  -5.1925  -5.1703  -5.1232  -5.0005  -4.9546
    -4.8635  -4.6811  -4.4889  -3.7667  -2.4945  -2.2305  -0.5588  -0.2027
     0.4631   0.8365

     the Fermi energy is    -3.7324 ev

!    total energy              =    -329.49029141 Ry
     Harris-Foulkes estimate   =    -329.49029144 Ry
     estimated scf accuracy    <          8.6E-11 Ry

     The total energy is the sum of the following terms:

     one-electron contribution =    -609.62109268 Ry
     hartree contribution      =     326.23764481 Ry
     xc contribution           =     -51.40000399 Ry
     ewald contribution        =       5.29788317 Ry
     smearing contrib. (-TS)   =      -0.00472274 Ry

     convergence has been achieved in   9 iterations

     Forces acting on atoms (Ry/au):

     atom    1 type  1   force =     0.00102617   -0.00025335    0.00082498
     atom    2 type  1   force =    -0.00122481    0.00097507    0.00074997
     atom    3 type  1   force =    -0.00024508   -0.00032849   -0.00039682
     atom    4 type  1   force =    -0.00020724   -0.00151727   -0.00002804
     atom    5 type  1   force =     0.00065096    0.00112404   -0.00115009

     Total force =     0.003239     Total SCF correction =     0.000040

     number of scf cycles    =  11
     number of bfgs steps    =  10

     energy   old            =    -329.4902375225 Ry
     energy   new            =    -329.4902914107 Ry

     CASE: energy  _new < energy  _old

     new trust radius        =       0.0204455453 bohr
     new conv_thr            =            1.0E-10 Ry


ATOMIC_POSITIONS (bohr)
Au      -1.794942792   2.170756054  -0.870525014
Au      -0.786810899   2.886438225   4.143881715
Au       3.057734940   1.981258172   0.574398478
Au       4.081791771   3.507239241   5.801041712
Au       7.703372979   1.878523309   2.507382109



     Writing output data file pwscf.save
     Check: negative starting charge=   -0.006498
     NEW-OLD atomic charge density approx. for the potential
     Check: negative starting charge=   -0.006503

     negative rho (up, down):  7.161E-05 0.000E+00

     total cpu time spent up to now is       34.9 secs

     per-process dynamical memory:    50.7 Mb

     Self-consistent Calculation

     iteration #  1     ecut=    30.00 Ry     beta=0.70
     Davidson diagonalization with overlap
     ethr =  1.00E-06,  avg # of iterations =  4.0

     negative rho (up, down):  4.645E-07 0.000E+00

     total cpu time spent up to now is       35.4 secs

     total energy              =    -329.49031682 Ry
     Harris-Foulkes estimate   =    -329.49033255 Ry
     estimated scf accuracy    <       0.00006938 Ry

     iteration #  2     ecut=    30.00 Ry     beta=0.70
     Davidson diagonalization with overlap
     ethr =  1.26E-07,  avg # of iterations =  2.0

     negative rho (up, down):  2.322E-08 0.000E+00

     total cpu time spent up to now is       35.7 secs

     total energy              =    -329.49032609 Ry
     Harris-Foulkes estimate   =    -329.49035466 Ry
     estimated scf accuracy    <       0.00005958 Ry

     iteration #  3     ecut=    30.00 Ry     beta=0.70
     Davidson diagonalization with overlap
     ethr =  1.08E-07,  avg # of iterations =  2.0

     total cpu time spent up to now is       36.0 secs

     total energy              =    -329.49033752 Ry
     Harris-Foulkes estimate   =    -329.49034424 Ry
     estimated scf accuracy    <       0.00001610 Ry

     iteration #  4     ecut=    30.00 Ry     beta=0.70
     Davidson diagonalization with overlap
     ethr =  2.93E-08,  avg # of iterations =  2.0

     total cpu time spent up to now is       36.3 secs

     total energy              =    -329.49034086 Ry
     Harris-Foulkes estimate   =    -329.49034249 Ry
     estimated scf accuracy    <       0.00000410 Ry

     iteration #  5     ecut=    30.00 Ry     beta=0.70
     Davidson diagonalization with overlap
     ethr =  7.46E-09,  avg # of iterations =  2.0

     total cpu time spent up to now is       36.6 secs

     total energy              =    -329.49034112 Ry
     Harris-Foulkes estimate   =    -329.49034161 Ry
     estimated scf accuracy    <       0.00000016 Ry

     iteration #  6     ecut=    30.00 Ry     beta=0.70
     Davidson diagonalization with overlap
     ethr =  2.93E-10,  avg # of iterations =  3.0

     total cpu time spent up to now is       36.9 secs

     total energy              =    -329.49034088 Ry
     Harris-Foulkes estimate   =    -329.49034118 Ry
     estimated scf accuracy    <       0.00000002 Ry

     iteration #  7     ecut=    30.00 Ry     beta=0.70
     Davidson diagonalization with overlap
     ethr =  3.79E-11,  avg # of iterations =  3.0

     total cpu time spent up to now is       37.2 secs

     total energy              =    -329.49034076 Ry
     Harris-Foulkes estimate   =    -329.49034088 Ry
     estimated scf accuracy    <          8.2E-09 Ry

     iteration #  8     ecut=    30.00 Ry     beta=0.70
     Davidson diagonalization with overlap
     ethr =  1.50E-11,  avg # of iterations =  2.0

     total cpu time spent up to now is       37.5 secs

     total energy              =    -329.49034076 Ry
     Harris-Foulkes estimate   =    -329.49034076 Ry
     estimated scf accuracy    <          6.8E-10 Ry

     iteration #  9     ecut=    30.00 Ry     beta=0.70
     Davidson diagonalization with overlap
     ethr =  1.23E-12,  avg # of iterations =  3.0

     total cpu time spent up to now is       37.8 secs

     total energy              =    -329.49034077 Ry
     Harris-Foulkes estimate   =    -329.49034076 Ry
     estimated scf accuracy    <          1.5E-10 Ry

     iteration # 10     ecut=    30.00 Ry     beta=0.70
     Davidson diagonalization with overlap
     ethr =  2.68E-13,  avg # of iterations =  3.0

     total cpu time spent up to now is       38.1 secs

     End of self-consistent calculation

          k = 0.0000 0.0000 0.0000 ( 22119 PWs)   bands (ev):

    -8.5118  -7.7862  -7.6590  -7.2315  -6.9067  -6.8056  -6.6303  -6.4939
    -6.2781  -6.0672  -5.9728  -5.7624  -5.7259  -5.6968  -5.4462  -5.3980
    -5.3205  -5.2443  -5.2134  -5.1917  -5.1704  -5.1219  -4.9967  -4.9527
    -4.8586  -4.6838  -4.4875  -3.7687  -2.4882  -2.2286  -0.5612  -0.2031
     0.4709   0.8439

     the Fermi energy is    -3.7346 ev

!    total energy              =    -329.49034077 Ry
     Harris-Foulkes estimate   =    -329.49034077 Ry
     estimated scf accuracy    <          3.4E-11 Ry

     The total energy is the sum of the following terms:

     one-electron contribution =    -610.11494784 Ry
     hartree contribution      =     326.48256539 Ry
     xc contribution           =     -51.40200660 Ry
     ewald contribution        =       5.54869179 Ry
     smearing contrib. (-TS)   =      -0.00464350 Ry

     convergence has been achieved in  10 iterations

     Forces acting on atoms (Ry/au):

     atom    1 type  1   force =     0.00068988   -0.00018824    0.00011894
     atom    2 type  1   force =    -0.00159371    0.00112297    0.00114245
     atom    3 type  1   force =    -0.00095034   -0.00041935   -0.00131868
     atom    4 type  1   force =     0.00066698   -0.00164842   -0.00013956
     atom    5 type  1   force =     0.00118719    0.00113304    0.00019685

     Total force =     0.003790     Total SCF correction =     0.000024

     number of scf cycles    =  12
     number of bfgs steps    =  11

     energy   old            =    -329.4902914107 Ry
     energy   new            =    -329.4903407705 Ry

     CASE: energy  _new < energy  _old

     new trust radius        =       0.0169631909 bohr
     new conv_thr            =            1.0E-10 Ry


ATOMIC_POSITIONS (bohr)
Au      -1.788452632   2.168814913  -0.865777935
Au      -0.793185346   2.893018722   4.146214988
Au       3.058812381   1.980287346   0.582535209
Au       4.077583007   3.495819787   5.800609050
Au       7.706388591   1.886274233   2.492597688



     Writing output data file pwscf.save
     Check: negative starting charge=   -0.006503
     NEW-OLD atomic charge density approx. for the potential
     Check: negative starting charge=   -0.006507

     negative rho (up, down):  4.629E-05 0.000E+00

     total cpu time spent up to now is       38.5 secs

     per-process dynamical memory:    50.7 Mb

     Self-consistent Calculation

     iteration #  1     ecut=    30.00 Ry     beta=0.70
     Davidson diagonalization with overlap
     ethr =  1.00E-06,  avg # of iterations =  4.0

     Threshold (ethr) on eigenvalues was too large:
     Diagonalizing with lowered threshold

     Davidson diagonalization with overlap
     ethr =  9.91E-08,  avg # of iterations =  1.0

     negative rho (up, down):  1.715E-07 0.000E+00

     total cpu time spent up to now is       39.3 secs

     total energy              =    -329.49035088 Ry
     Harris-Foulkes estimate   =    -329.49036832 Ry
     estimated scf accuracy    <       0.00005465 Ry

     iteration #  2     ecut=    30.00 Ry     beta=0.70
     Davidson diagonalization with overlap
     ethr =  9.94E-08,  avg # of iterations =  2.0

     total cpu time spent up to now is       39.6 secs

     total energy              =    -329.49035696 Ry
     Harris-Foulkes estimate   =    -329.49038201 Ry
     estimated scf accuracy    <       0.00005145 Ry

     iteration #  3     ecut=    30.00 Ry     beta=0.70
     Davidson diagonalization with overlap
     ethr =  9.36E-08,  avg # of iterations =  2.0

     total cpu time spent up to now is       39.8 secs

     total energy              =    -329.49036657 Ry
     Harris-Foulkes estimate   =    -329.49037227 Ry
     estimated scf accuracy    <       0.00001309 Ry

     iteration #  4     ecut=    30.00 Ry     beta=0.70
     Davidson diagonalization with overlap
     ethr =  2.38E-08,  avg # of iterations =  2.0

     total cpu time spent up to now is       40.1 secs

     total energy              =    -329.49036906 Ry
     Harris-Foulkes estimate   =    -329.49037041 Ry
     estimated scf accuracy    <       0.00000272 Ry

     iteration #  5     ecut=    30.00 Ry     beta=0.70
     Davidson diagonalization with overlap
     ethr =  4.95E-09,  avg # of iterations =  2.0

     total cpu time spent up to now is       40.3 secs

     total energy              =    -329.49036939 Ry
     Harris-Foulkes estimate   =    -329.49036959 Ry
     estimated scf accuracy    <       0.00000014 Ry

     iteration #  6     ecut=    30.00 Ry     beta=0.70
     Davidson diagonalization with overlap
     ethr =  2.48E-10,  avg # of iterations =  3.0

     total cpu time spent up to now is       40.6 secs

     total energy              =    -329.49036924 Ry
     Harris-Foulkes estimate   =    -329.49036943 Ry
     estimated scf accuracy    <       0.00000002 Ry

     iteration #  7     ecut=    30.00 Ry     beta=0.70
     Davidson diagonalization with overlap
     ethr =  2.87E-11,  avg # of iterations =  3.0

     total cpu time spent up to now is       40.9 secs

     total energy              =    -329.49036922 Ry
     Harris-Foulkes estimate   =    -329.49036925 Ry
     estimated scf accuracy    <          7.1E-09 Ry

     iteration #  8     ecut=    30.00 Ry     beta=0.70
     Davidson diagonalization with overlap
     ethr =  1.30E-11,  avg # of iterations =  2.0

     total cpu time spent up to now is       41.2 secs

     total energy              =    -329.49036924 Ry
     Harris-Foulkes estimate   =    -329.49036922 Ry
     estimated scf accuracy    <          7.2E-10 Ry

     iteration #  9     ecut=    30.00 Ry     beta=0.70
     Davidson diagonalization with overlap
     ethr =  1.30E-12,  avg # of iterations =  3.0

     total cpu time spent up to now is       41.5 secs

     total energy              =    -329.49036923 Ry
     Harris-Foulkes estimate   =    -329.49036924 Ry
[...]



     Writing output data file pwscf.save
     Check: negative starting charge=   -0.006552
     NEW-OLD atomic charge density approx. for the potential
     Check: negative starting charge=   -0.006550

     negative rho (up, down):  1.154E-05 0.000E+00

     total cpu time spent up to now is       90.0 secs

     per-process dynamical memory:    50.7 Mb

     Self-consistent Calculation

     iteration #  1     ecut=    30.00 Ry     beta=0.70
     Davidson diagonalization with overlap
     ethr =  1.00E-06,  avg # of iterations =  4.0

     Threshold (ethr) on eigenvalues was too large:
     Diagonalizing with lowered threshold

     Davidson diagonalization with overlap
     ethr =  4.84E-08,  avg # of iterations =  1.0

     negative rho (up, down):  1.300E-08 0.000E+00

     total cpu time spent up to now is       90.6 secs

     total energy              =    -329.49099927 Ry
     Harris-Foulkes estimate   =    -329.49100522 Ry
     estimated scf accuracy    <       0.00002763 Ry

     iteration #  2     ecut=    30.00 Ry     beta=0.70
     Davidson diagonalization with overlap
     ethr =  5.02E-08,  avg # of iterations =  2.0

     total cpu time spent up to now is       90.8 secs

     total energy              =    -329.49099939 Ry
     Harris-Foulkes estimate   =    -329.49101925 Ry
     estimated scf accuracy    <       0.00004458 Ry

     iteration #  3     ecut=    30.00 Ry     beta=0.70
     Davidson diagonalization with overlap
     ethr =  5.02E-08,  avg # of iterations =  2.0

     total cpu time spent up to now is       91.4 secs

     total energy              =    -329.49100868 Ry
     Harris-Foulkes estimate   =    -329.49101100 Ry
     estimated scf accuracy    <       0.00000710 Ry

     iteration #  4     ecut=    30.00 Ry     beta=0.70
     Davidson diagonalization with overlap
     ethr =  1.29E-08,  avg # of iterations =  2.0

     total cpu time spent up to now is       91.7 secs

     total energy              =    -329.49101040 Ry
     Harris-Foulkes estimate   =    -329.49101078 Ry
     estimated scf accuracy    <       0.00000162 Ry

     iteration #  5     ecut=    30.00 Ry     beta=0.70
     Davidson diagonalization with overlap
     ethr =  2.95E-09,  avg # of iterations =  2.0

     total cpu time spent up to now is       91.9 secs

     total energy              =    -329.49101074 Ry
     Harris-Foulkes estimate   =    -329.49101074 Ry
     estimated scf accuracy    <       0.00000009 Ry

     iteration #  6     ecut=    30.00 Ry     beta=0.70
     Davidson diagonalization with overlap
     ethr =  1.61E-10,  avg # of iterations =  2.0

     total cpu time spent up to now is       92.2 secs

     total energy              =    -329.49101083 Ry
     Harris-Foulkes estimate   =    -329.49101076 Ry
     estimated scf accuracy    <          8.5E-09 Ry

     iteration #  7     ecut=    30.00 Ry     beta=0.70
     Davidson diagonalization with overlap
     ethr =  1.55E-11,  avg # of iterations =  3.0

     total cpu time spent up to now is       92.4 secs

     total energy              =    -329.49101077 Ry
     Harris-Foulkes estimate   =    -329.49101083 Ry
     estimated scf accuracy    <          6.6E-09 Ry

     iteration #  8     ecut=    30.00 Ry     beta=0.70
     Davidson diagonalization with overlap
     ethr =  1.21E-11,  avg # of iterations =  2.0

     total cpu time spent up to now is       92.7 secs

     total energy              =    -329.49101078 Ry
     Harris-Foulkes estimate   =    -329.49101077 Ry
     estimated scf accuracy    <          2.0E-10 Ry

     iteration #  9     ecut=    30.00 Ry     beta=0.70
     Davidson diagonalization with overlap
     ethr =  3.55E-13,  avg # of iterations =  4.0

     total cpu time spent up to now is       93.0 secs

     End of self-consistent calculation

          k = 0.0000 0.0000 0.0000 ( 22119 PWs)   bands (ev):

    -8.5081  -7.7835  -7.6530  -7.2347  -6.8717  -6.8147  -6.6225  -6.4838
    -6.3043  -6.0736  -5.9656  -5.7696  -5.7322  -5.6861  -5.4589  -5.3767
    -5.3193  -5.2482  -5.2021  -5.1894  -5.1746  -5.1269  -5.0012  -4.9307
    -4.8523  -4.7204  -4.4803  -3.7784  -2.5025  -2.2106  -0.5749  -0.2117
     0.4833   0.9055

     the Fermi energy is    -3.7458 ev

!    total energy              =    -329.49101076 Ry
     Harris-Foulkes estimate   =    -329.49101078 Ry
     estimated scf accuracy    <          7.1E-11 Ry

     The total energy is the sum of the following terms:

     one-electron contribution =    -609.95790228 Ry
     hartree contribution      =     326.40578240 Ry
     xc contribution           =     -51.40211888 Ry
     ewald contribution        =       5.46758427 Ry
     smearing contrib. (-TS)   =      -0.00435627 Ry

     convergence has been achieved in   9 iterations

     Forces acting on atoms (Ry/au):

     atom    1 type  1   force =     0.00030822   -0.00010933   -0.00037157
     atom    2 type  1   force =     0.00061097    0.00033845    0.00046648
     atom    3 type  1   force =     0.00032570    0.00034453    0.00068063
     atom    4 type  1   force =     0.00042819   -0.00037504   -0.00065560
     atom    5 type  1   force =    -0.00167309   -0.00019860   -0.00011995

     Total force =     0.002290     Total SCF correction =     0.000041

     number of scf cycles    =  29
     number of bfgs steps    =  28

     energy   old            =    -329.4909985817 Ry
     energy   new            =    -329.4910107580 Ry

     CASE: energy  _new < energy  _old

     new trust radius        =       0.0107091873 bohr
     new conv_thr            =            1.0E-10 Ry


ATOMIC_POSITIONS (bohr)
Au      -1.793314464   2.193663401  -0.856719181
Au      -0.812912170   3.023213513   4.143429287
Au       3.054378768   1.970714117   0.578291398
Au       4.077949804   3.280926367   5.836390118
Au       7.735044062   1.955697602   2.454787378



     Writing output data file pwscf.save
     Check: negative starting charge=   -0.006550
     NEW-OLD atomic charge density approx. for the potential
     Check: negative starting charge=   -0.006550

     negative rho (up, down):  6.942E-06 0.000E+00

     total cpu time spent up to now is       93.4 secs

     per-process dynamical memory:    50.7 Mb

     Self-consistent Calculation

     iteration #  1     ecut=    30.00 Ry     beta=0.70
     Davidson diagonalization with overlap
     ethr =  1.00E-06,  avg # of iterations =  4.0

     Threshold (ethr) on eigenvalues was too large:
     Diagonalizing with lowered threshold

     Davidson diagonalization with overlap
     ethr =  4.11E-08,  avg # of iterations =  1.0

     total cpu time spent up to now is       93.9 secs

     total energy              =    -329.49100996 Ry
     Harris-Foulkes estimate   =    -329.49101586 Ry
     estimated scf accuracy    <       0.00002357 Ry

     iteration #  2     ecut=    30.00 Ry     beta=0.70
     Davidson diagonalization with overlap
     ethr =  4.28E-08,  avg # of iterations =  2.0

     total cpu time spent up to now is       94.2 secs

     total energy              =    -329.49100930 Ry
     Harris-Foulkes estimate   =    -329.49102880 Ry
     estimated scf accuracy    <       0.00004572 Ry

     iteration #  3     ecut=    30.00 Ry     beta=0.70
     Davidson diagonalization with overlap
     ethr =  4.28E-08,  avg # of iterations =  2.0

     total cpu time spent up to now is       94.4 secs

     total energy              =    -329.49101891 Ry
     Harris-Foulkes estimate   =    -329.49102061 Ry
     estimated scf accuracy    <       0.00000614 Ry

     iteration #  4     ecut=    30.00 Ry     beta=0.70
     Davidson diagonalization with overlap
     ethr =  1.12E-08,  avg # of iterations =  2.0

     total cpu time spent up to now is       94.6 secs

     total energy              =    -329.49102017 Ry
     Harris-Foulkes estimate   =    -329.49102061 Ry
     estimated scf accuracy    <       0.00000113 Ry

     iteration #  5     ecut=    30.00 Ry     beta=0.70
     Davidson diagonalization with overlap
     ethr =  2.05E-09,  avg # of iterations =  2.0

     total cpu time spent up to now is       95.0 secs

     total energy              =    -329.49102052 Ry
     Harris-Foulkes estimate   =    -329.49102042 Ry
     estimated scf accuracy    <       0.00000008 Ry

     iteration #  6     ecut=    30.00 Ry     beta=0.70
     Davidson diagonalization with overlap
     ethr =  1.40E-10,  avg # of iterations =  2.0

     total cpu time spent up to now is       95.4 secs

     total energy              =    -329.49102051 Ry
     Harris-Foulkes estimate   =    -329.49102054 Ry
     estimated scf accuracy    <          8.9E-09 Ry

     iteration #  7     ecut=    30.00 Ry     beta=0.70
     Davidson diagonalization with overlap
     ethr =  1.62E-11,  avg # of iterations =  3.0

     total cpu time spent up to now is       95.6 secs

     total energy              =    -329.49102043 Ry
     Harris-Foulkes estimate   =    -329.49102051 Ry
     estimated scf accuracy    <          4.8E-09 Ry

     iteration #  8     ecut=    30.00 Ry     beta=0.70
     Davidson diagonalization with overlap
     ethr =  8.76E-12,  avg # of iterations =  2.0

     total cpu time spent up to now is       95.9 secs

     total energy              =    -329.49102041 Ry
     Harris-Foulkes estimate   =    -329.49102044 Ry
     estimated scf accuracy    <          1.5E-10 Ry

     iteration #  9     ecut=    30.00 Ry     beta=0.70
     Davidson diagonalization with overlap
     ethr =  2.72E-13,  avg # of iterations =  3.0

     total cpu time spent up to now is       96.1 secs

     End of self-consistent calculation

          k = 0.0000 0.0000 0.0000 ( 22119 PWs)   bands (ev):

    -8.5077  -7.7831  -7.6511  -7.2338  -6.8742  -6.8154  -6.6221  -6.4831
    -6.3040  -6.0734  -5.9672  -5.7691  -5.7321  -5.6858  -5.4574  -5.3768
    -5.3197  -5.2474  -5.2025  -5.1909  -5.1733  -5.1277  -5.0007  -4.9305
    -4.8558  -4.7179  -4.4810  -3.7785  -2.5009  -2.2118  -0.5748  -0.2127
     0.4808   0.9059

     the Fermi energy is    -3.7458 ev

!    total energy              =    -329.49102043 Ry
     Harris-Foulkes estimate   =    -329.49102041 Ry
     estimated scf accuracy    <          7.1E-11 Ry

     The total energy is the sum of the following terms:

     one-electron contribution =    -609.89351846 Ry
     hartree contribution      =     326.37360626 Ry
     xc contribution           =     -51.40200942 Ry
     ewald contribution        =       5.43526205 Ry
     smearing contrib. (-TS)   =      -0.00436087 Ry

     convergence has been achieved in   9 iterations

     Forces acting on atoms (Ry/au):

     atom    1 type  1   force =     0.00055458   -0.00016953    0.00013563
     atom    2 type  1   force =     0.00077901    0.00034868    0.00017467
     atom    3 type  1   force =    -0.00041457    0.00040024    0.00055264
     atom    4 type  1   force =     0.00010930   -0.00025029   -0.00079668
     atom    5 type  1   force =    -0.00102833   -0.00032910   -0.00006626

     Total force =     0.001905     Total SCF correction =     0.000036

     number of scf cycles    =  30
     number of bfgs steps    =  29

     energy   old            =    -329.4910107580 Ry
     energy   new            =    -329.4910204344 Ry

     CASE: energy  _new < energy  _old

     new trust radius        =       0.0077515624 bohr
     new conv_thr            =            1.0E-10 Ry


ATOMIC_POSITIONS (bohr)
Au      -1.794031668   2.196398036  -0.860062726
Au      -0.807742056   3.026791285   4.141301569
Au       3.053487041   1.972670309   0.577903797
Au       4.080570666   3.275565505   5.841337740
Au       7.728862017   1.952789865   2.455698620



     Writing output data file pwscf.save
     Check: negative starting charge=   -0.006550
     NEW-OLD atomic charge density approx. for the potential
     Check: negative starting charge=   -0.006552

     negative rho (up, down):  2.387E-06 0.000E+00

     total cpu time spent up to now is       96.3 secs

     per-process dynamical memory:    50.7 Mb

     Self-consistent Calculation

     iteration #  1     ecut=    30.00 Ry     beta=0.70
     Davidson diagonalization with overlap
     ethr =  1.00E-06,  avg # of iterations =  3.0

     Threshold (ethr) on eigenvalues was too large:
     Diagonalizing with lowered threshold

     Davidson diagonalization with overlap
     ethr =  2.58E-08,  avg # of iterations =  2.0

     total cpu time spent up to now is       97.1 secs

     total energy              =    -329.49102014 Ry
     Harris-Foulkes estimate   =    -329.49102380 Ry
     estimated scf accuracy    <       0.00001515 Ry

     iteration #  2     ecut=    30.00 Ry     beta=0.70
     Davidson diagonalization with overlap
     ethr =  2.75E-08,  avg # of iterations =  2.0

     total cpu time spent up to now is       97.4 secs

     total energy              =    -329.49101995 Ry
     Harris-Foulkes estimate   =    -329.49103249 Ry
     estimated scf accuracy    <       0.00003034 Ry

     iteration #  3     ecut=    30.00 Ry     beta=0.70
     Davidson diagonalization with overlap
     ethr =  2.75E-08,  avg # of iterations =  2.0

     total cpu time spent up to now is       97.7 secs

     total energy              =    -329.49102620 Ry
     Harris-Foulkes estimate   =    -329.49102737 Ry
     estimated scf accuracy    <       0.00000387 Ry

     iteration #  4     ecut=    30.00 Ry     beta=0.70
     Davidson diagonalization with overlap
     ethr =  7.04E-09,  avg # of iterations =  2.0

     total cpu time spent up to now is       97.9 secs

     total energy              =    -329.49102719 Ry
     Harris-Foulkes estimate   =    -329.49102726 Ry
     estimated scf accuracy    <       0.00000067 Ry

     iteration #  5     ecut=    30.00 Ry     beta=0.70
     Davidson diagonalization with overlap
     ethr =  1.23E-09,  avg # of iterations =  2.0

     total cpu time spent up to now is       98.1 secs

     total energy              =    -329.49102737 Ry
     Harris-Foulkes estimate   =    -329.49102735 Ry
     estimated scf accuracy    <       0.00000005 Ry

     iteration #  6     ecut=    30.00 Ry     beta=0.70
     Davidson diagonalization with overlap
     ethr =  9.94E-11,  avg # of iterations =  2.0

     total cpu time spent up to now is       98.3 secs

     total energy              =    -329.49102746 Ry
     Harris-Foulkes estimate   =    -329.49102738 Ry
     estimated scf accuracy    <          8.1E-09 Ry

     iteration #  7     ecut=    30.00 Ry     beta=0.70
     Davidson diagonalization with overlap
     ethr =  1.47E-11,  avg # of iterations =  2.0

     total cpu time spent up to now is       98.7 secs

     total energy              =    -329.49102747 Ry
     Harris-Foulkes estimate   =    -329.49102746 Ry
     estimated scf accuracy    <          3.4E-09 Ry

     iteration #  8     ecut=    30.00 Ry     beta=0.70
     Davidson diagonalization with overlap
     ethr =  6.20E-12,  avg # of iterations =  2.0

     total cpu time spent up to now is       99.1 secs

     total energy              =    -329.49102749 Ry
     Harris-Foulkes estimate   =    -329.49102747 Ry
     estimated scf accuracy    <          3.2E-10 Ry

     iteration #  9     ecut=    30.00 Ry     beta=0.70
     Davidson diagonalization with overlap
     ethr =  5.74E-13,  avg # of iterations =  2.0

     total cpu time spent up to now is       99.4 secs

     total energy              =    -329.49102749 Ry
     Harris-Foulkes estimate   =    -329.49102749 Ry
     estimated scf accuracy    <          1.1E-10 Ry

     iteration # 10     ecut=    30.00 Ry     beta=0.70
     Davidson diagonalization with overlap
     ethr =  1.99E-13,  avg # of iterations =  2.0

     total cpu time spent up to now is       99.6 secs

     End of self-consistent calculation

          k = 0.0000 0.0000 0.0000 ( 22119 PWs)   bands (ev):

    -8.5111  -7.7860  -7.6531  -7.2355  -6.8777  -6.8181  -6.6222  -6.4849
    -6.3052  -6.0748  -5.9686  -5.7693  -5.7325  -5.6866  -5.4568  -5.3767
    -5.3200  -5.2470  -5.2029  -5.1921  -5.1723  -5.1280  -4.9998  -4.9301
    -4.8577  -4.7154  -4.4813  -3.7782  -2.4984  -2.2118  -0.5753  -0.2132
     0.4794   0.9064

     the Fermi energy is    -3.7455 ev

!    total energy              =    -329.49102749 Ry
     Harris-Foulkes estimate   =    -329.49102749 Ry
     estimated scf accuracy    <          6.6E-12 Ry

     The total energy is the sum of the following terms:

     one-electron contribution =    -610.01515432 Ry
     hartree contribution      =     326.43321443 Ry
     xc contribution           =     -51.40257021 Ry
     ewald contribution        =       5.49785033 Ry
     smearing contrib. (-TS)   =      -0.00436772 Ry

     convergence has been achieved in  10 iterations

     Forces acting on atoms (Ry/au):

     atom    1 type  1   force =     0.00059789   -0.00021280    0.00041068
     atom    2 type  1   force =     0.00068345    0.00039753    0.00003855
     atom    3 type  1   force =    -0.00097838    0.00037837    0.00020365
     atom    4 type  1   force =    -0.00006432   -0.00009740   -0.00066183
     atom    5 type  1   force =    -0.00023864   -0.00046570    0.00000894

     Total force =     0.001751     Total SCF correction =     0.000013

     bfgs converged in  31 scf cycles and  30 bfgs steps
     (criteria: energy <  1.0E-04, force <  1.0E-03)

     End of BFGS Geometry Optimization

     Final energy   =    -329.4910274946 Ry
Begin final coordinates

ATOMIC_POSITIONS (bohr)
Au      -1.794031668   2.196398036  -0.860062726
Au      -0.807742056   3.026791285   4.141301569
Au       3.053487041   1.972670309   0.577903797
Au       4.080570666   3.275565505   5.841337740
Au       7.728862017   1.952789865   2.455698620
End final coordinates



     Writing output data file pwscf.save
 
     init_run     :      0.17s CPU      0.22s WALL (       1 calls)
     electrons    :     82.61s CPU     91.79s WALL (      31 calls)
     update_pot   :      2.64s CPU      3.31s WALL (      30 calls)
     forces       :      1.78s CPU      1.92s WALL (      31 calls)

     Called by init_run:
     wfcinit      :      0.07s CPU      0.11s WALL (       1 calls)
     potinit      :      0.04s CPU      0.04s WALL (       1 calls)

     Called by electrons:
     c_bands      :     63.36s CPU     67.33s WALL (     319 calls)
     sum_band     :      9.07s CPU      9.73s WALL (     319 calls)
     v_of_rho     :      6.98s CPU      7.41s WALL (     328 calls)
     mix_rho      :      2.78s CPU      5.60s WALL (     319 calls)

     Called by c_bands:
     init_us_2    :      1.09s CPU      1.19s WALL (     639 calls)
     cegterg      :     56.78s CPU     60.16s WALL (     319 calls)

     Called by sum_band:

     Called by *egterg:
     h_psi        :     44.84s CPU     47.41s WALL (    1082 calls)
     g_psi        :      0.41s CPU      0.43s WALL (     762 calls)
     cdiaghg      :      2.72s CPU      2.89s WALL (    1029 calls)

     Called by h_psi:
     h_psi:pot    :     44.28s CPU     46.81s WALL (    1082 calls)
     h_psi:calbec :      2.41s CPU      2.54s WALL (    1082 calls)
     vloc_psi     :     39.33s CPU     41.59s WALL (    1082 calls)
     add_vuspsi   :      2.54s CPU      2.67s WALL (    1082 calls)

     General routines
     calbec       :      2.91s CPU      3.09s WALL (    1206 calls)
     fft          :      4.18s CPU      4.47s WALL (    3713 calls)
     fftw         :     42.20s CPU     44.51s WALL (   69932 calls)
     davcio       :      0.36s CPU      2.61s WALL (    3066 calls)
 
     Parallel routines
     fft_scatter  :     14.31s CPU     15.00s WALL (   73645 calls)
 
     PWSCF        :  1m28.24s CPU     1m39.80s WALL

 
   This run was terminated on:  13:30:55   3Aug2017            

=------------------------------------------------------------------------------=
   JOB DONE.
=------------------------------------------------------------------------------=
