
     Program PWSCF v.6.0 (svn rev. 13079) starts on  4Aug2017 at  0:16:57 

     This program is part of the open-source Quantum ESPRESSO suite
     for quantum simulation of materials; please cite
         "P. Giannozzi et al., J. Phys.:Condens. Matter 21 395502 (2009);
          URL http://www.quantum-espresso.org", 
     in publications or presentations arising from this work. More details at
     http://www.quantum-espresso.org/quote

     Parallel version (MPI), running on    10 processors
     R & G space division:  proc/nbgrp/npool/nimage =      10
     Reading input from input/multi/minchecks-Gold5-590.in

     Current dimensions of program PWSCF are:
     Max number of different atomic species (ntypx) = 10
     Max number of k-points (npk) =  40000
     Max angular momentum in pseudopotentials (lmaxx) =  3
     Message from routine iosys:
     pot_extrapolation='second-order' not available, using 'atomic'
     Message from routine iosys:
     wfc_extrapolation='second-order' not available, using 'atomic'

     Subspace diagonalization in iterative solution of the eigenvalue problem:
     a serial algorithm will be used

 
     Parallelization info
     --------------------
     sticks:   dense  smooth     PW     G-vecs:    dense   smooth      PW
     Min         380     380     94                17748    17748    2208
     Max         381     381     95                17753    17753    2213
     Sum        3809    3809    949               177509   177509   22119
 


     bravais-lattice index     =            1
     lattice parameter (alat)  =      20.0000  a.u.
     unit-cell volume          =    8000.0000 (a.u.)^3
     number of atoms/cell      =            5
     number of atomic types    =            1
     number of electrons       =        55.00
     number of Kohn-Sham states=           34
     kinetic-energy cutoff     =      30.0000  Ry
     charge density cutoff     =     120.0000  Ry
     convergence threshold     =      1.0E-08
     mixing beta               =       0.7000
     number of iterations used =            8  plain     mixing
     Exchange-correlation      = BLYP ( 1  3  1  3 0 0)
     nstep                     =           50


     celldm(1)=  20.000000  celldm(2)=   0.000000  celldm(3)=   0.000000
     celldm(4)=   0.000000  celldm(5)=   0.000000  celldm(6)=   0.000000

     crystal axes: (cart. coord. in units of alat)
               a(1) = (   1.000000   0.000000   0.000000 )  
               a(2) = (   0.000000   1.000000   0.000000 )  
               a(3) = (   0.000000   0.000000   1.000000 )  

     reciprocal axes: (cart. coord. in units 2 pi/alat)
               b(1) = (  1.000000  0.000000  0.000000 )  
               b(2) = (  0.000000  1.000000  0.000000 )  
               b(3) = (  0.000000  0.000000  1.000000 )  


     PseudoPot. # 1 for Au read from file:
     ./Au.blyp-d-hgh.UPF
     MD5 check sum: c10d8bae01f806c36a1643a1c69a8479
     Pseudo is Norm-conserving, Zval = 11.0
     Generated in analytical, separable form
     Using radial grid of 1279 points,  6 beta functions with: 
                l(1) =   0
                l(2) =   0
                l(3) =   1
                l(4) =   1
                l(5) =   2
                l(6) =   2

     atomic species   valence    mass     pseudopotential
        Au            11.00    28.08600     Au( 1.00)

     No symmetry found



   Cartesian axes

     site n.     atom                  positions (alat units)
         1           Au  tau(   1) = (  -0.1046440   0.0813197  -0.0254172  )
         2           Au  tau(   2) = (  -0.0030560   0.1843973   0.2085889  )
         3           Au  tau(   3) = (   0.1505010   0.0589090   0.0011555  )
         4           Au  tau(   4) = (   0.2198786   0.2063697   0.2917925  )
         5           Au  tau(   5) = (   0.3757195   0.0587669   0.1254515  )

     number of k points=     1  Marzari-Vanderbilt smearing, width (Ry)=  0.0250
                       cart. coord. in units 2pi/alat
        k(    1) = (   0.0000000   0.0000000   0.0000000), wk =   2.0000000

     Dense  grid:   177509 G-vectors     FFT dimensions: (  72,  72,  72)

     Estimated max dynamical RAM per process >      15.04Mb

     Estimated total allocated dynamical RAM >     150.39Mb

     Initial potential from superposition of free atoms
     Check: negative starting charge=   -0.006250

     starting charge   54.99940, renormalised to   55.00000

     negative rho (up, down):  6.250E-03 0.000E+00
     Starting wfc are   45 randomized atomic wfcs

     total cpu time spent up to now is        0.3 secs

     per-process dynamical memory:    41.0 Mb

     Self-consistent Calculation

     iteration #  1     ecut=    30.00 Ry     beta=0.70
     Davidson diagonalization with overlap
     ethr =  1.00E-02,  avg # of iterations =  3.0

     Threshold (ethr) on eigenvalues was too large:
     Diagonalizing with lowered threshold

     Davidson diagonalization with overlap
     ethr =  5.01E-04,  avg # of iterations =  3.0

     negative rho (up, down):  8.307E-04 0.000E+00

     total cpu time spent up to now is        0.7 secs

     total energy              =    -329.30865713 Ry
     Harris-Foulkes estimate   =    -329.51410632 Ry
     estimated scf accuracy    <       0.33313507 Ry

     iteration #  2     ecut=    30.00 Ry     beta=0.70
     Davidson diagonalization with overlap
     ethr =  6.06E-04,  avg # of iterations =  7.0

     negative rho (up, down):  4.696E-04 0.000E+00

     total cpu time spent up to now is        1.0 secs

     total energy              =    -329.29498048 Ry
     Harris-Foulkes estimate   =    -329.61073216 Ry
     estimated scf accuracy    <       0.77145008 Ry

     iteration #  3     ecut=    30.00 Ry     beta=0.70
     Davidson diagonalization with overlap
     ethr =  6.06E-04,  avg # of iterations =  3.0

     negative rho (up, down):  1.790E-04 0.000E+00

     total cpu time spent up to now is        1.2 secs

     total energy              =    -329.43532842 Ry
     Harris-Foulkes estimate   =    -329.49041551 Ry
     estimated scf accuracy    <       0.14722864 Ry

     iteration #  4     ecut=    30.00 Ry     beta=0.70
     Davidson diagonalization with overlap
     ethr =  2.68E-04,  avg # of iterations =  2.0

     negative rho (up, down):  6.475E-05 0.000E+00

     total cpu time spent up to now is        1.4 secs

     total energy              =    -329.45445477 Ry
     Harris-Foulkes estimate   =    -329.45855486 Ry
     estimated scf accuracy    <       0.01183399 Ry

     iteration #  5     ecut=    30.00 Ry     beta=0.70
     Davidson diagonalization with overlap
     ethr =  2.15E-05,  avg # of iterations = 10.0

     negative rho (up, down):  1.360E-05 0.000E+00

     total cpu time spent up to now is        1.7 secs

     total energy              =    -329.45521375 Ry
     Harris-Foulkes estimate   =    -329.45739470 Ry
     estimated scf accuracy    <       0.00582302 Ry

     iteration #  6     ecut=    30.00 Ry     beta=0.70
     Davidson diagonalization with overlap
     ethr =  1.06E-05,  avg # of iterations =  3.0

     negative rho (up, down):  1.188E-05 0.000E+00

     total cpu time spent up to now is        1.9 secs

     total energy              =    -329.45492374 Ry
     Harris-Foulkes estimate   =    -329.45532081 Ry
     estimated scf accuracy    <       0.00496720 Ry

     iteration #  7     ecut=    30.00 Ry     beta=0.70
     Davidson diagonalization with overlap
     ethr =  9.03E-06,  avg # of iterations =  1.0

     negative rho (up, down):  1.982E-06 0.000E+00

     total cpu time spent up to now is        2.1 secs

     total energy              =    -329.45493630 Ry
     Harris-Foulkes estimate   =    -329.45497264 Ry
     estimated scf accuracy    <       0.00348229 Ry

     iteration #  8     ecut=    30.00 Ry     beta=0.70
     Davidson diagonalization with overlap
     ethr =  6.33E-06,  avg # of iterations =  1.0

     total cpu time spent up to now is        2.3 secs

     total energy              =    -329.45376438 Ry
     Harris-Foulkes estimate   =    -329.45511966 Ry
     estimated scf accuracy    <       0.00481616 Ry

     iteration #  9     ecut=    30.00 Ry     beta=0.70
     Davidson diagonalization with overlap
     ethr =  6.33E-06,  avg # of iterations =  2.0

     total cpu time spent up to now is        2.5 secs

     total energy              =    -329.45388269 Ry
     Harris-Foulkes estimate   =    -329.45519329 Ry
     estimated scf accuracy    <       0.00901430 Ry

     iteration # 10     ecut=    30.00 Ry     beta=0.70
     Davidson diagonalization with overlap
     ethr =  6.33E-06,  avg # of iterations =  1.0

     total cpu time spent up to now is        2.7 secs

     total energy              =    -329.45464081 Ry
     Harris-Foulkes estimate   =    -329.45471145 Ry
     estimated scf accuracy    <       0.00038387 Ry

     iteration # 11     ecut=    30.00 Ry     beta=0.70
     Davidson diagonalization with overlap
     ethr =  6.98E-07,  avg # of iterations =  2.0

     total cpu time spent up to now is        2.9 secs

     total energy              =    -329.45464093 Ry
     Harris-Foulkes estimate   =    -329.45469915 Ry
     estimated scf accuracy    <       0.00031142 Ry

     iteration # 12     ecut=    30.00 Ry     beta=0.70
     Davidson diagonalization with overlap
     ethr =  5.66E-07,  avg # of iterations =  1.0

     total cpu time spent up to now is        3.1 secs

     total energy              =    -329.45466773 Ry
     Harris-Foulkes estimate   =    -329.45466962 Ry
     estimated scf accuracy    <       0.00000354 Ry

     iteration # 13     ecut=    30.00 Ry     beta=0.70
     Davidson diagonalization with overlap
     ethr =  6.44E-09,  avg # of iterations =  3.0

     total cpu time spent up to now is        3.3 secs

     total energy              =    -329.45466637 Ry
     Harris-Foulkes estimate   =    -329.45467077 Ry
     estimated scf accuracy    <       0.00001379 Ry

     iteration # 14     ecut=    30.00 Ry     beta=0.70
     Davidson diagonalization with overlap
     ethr =  6.44E-09,  avg # of iterations =  2.0

     total cpu time spent up to now is        3.6 secs

     total energy              =    -329.45466832 Ry
     Harris-Foulkes estimate   =    -329.45467015 Ry
     estimated scf accuracy    <       0.00001414 Ry

     iteration # 15     ecut=    30.00 Ry     beta=0.70
     Davidson diagonalization with overlap
     ethr =  6.44E-09,  avg # of iterations =  1.0

     total cpu time spent up to now is        3.8 secs

     total energy              =    -329.45466894 Ry
     Harris-Foulkes estimate   =    -329.45466912 Ry
     estimated scf accuracy    <       0.00000070 Ry

     iteration # 16     ecut=    30.00 Ry     beta=0.70
     Davidson diagonalization with overlap
     ethr =  1.27E-09,  avg # of iterations =  2.0

     total cpu time spent up to now is        3.9 secs

     total energy              =    -329.45466902 Ry
     Harris-Foulkes estimate   =    -329.45466903 Ry
     estimated scf accuracy    <       0.00000008 Ry

     iteration # 17     ecut=    30.00 Ry     beta=0.70
     Davidson diagonalization with overlap
     ethr =  1.42E-10,  avg # of iterations =  3.0

     total cpu time spent up to now is        4.2 secs

     total energy              =    -329.45466903 Ry
     Harris-Foulkes estimate   =    -329.45466903 Ry
     estimated scf accuracy    <       0.00000001 Ry

     iteration # 18     ecut=    30.00 Ry     beta=0.70
     Davidson diagonalization with overlap
     ethr =  1.89E-11,  avg # of iterations =  2.0

     total cpu time spent up to now is        4.4 secs

     End of self-consistent calculation

          k = 0.0000 0.0000 0.0000 ( 22119 PWs)   bands (ev):

    -7.9576  -7.6278  -7.1976  -7.0654  -6.8739  -6.6342  -6.3334  -6.2296
    -6.1870  -5.8413  -5.7081  -5.6129  -5.4852  -5.4149  -5.3863  -5.3503
    -5.2745  -5.1889  -5.1517  -5.1038  -5.0219  -4.8290  -4.6264  -4.5933
    -4.5705  -4.4666  -4.3292  -4.1036  -2.4556  -2.2012  -0.4438  -0.3606
     0.4851   0.9005

     the Fermi energy is    -4.1281 ev

!    total energy              =    -329.45466903 Ry
     Harris-Foulkes estimate   =    -329.45466903 Ry
     estimated scf accuracy    <          1.3E-09 Ry

     The total energy is the sum of the following terms:

     one-electron contribution =    -585.18922203 Ry
     hartree contribution      =     314.41390492 Ry
     xc contribution           =     -51.42064240 Ry
     ewald contribution        =      -7.28472958 Ry
     smearing contrib. (-TS)   =       0.02602006 Ry

     convergence has been achieved in  18 iterations

     Forces acting on atoms (Ry/au):

     atom    1 type  1   force =     0.02140797    0.01018825    0.01867195
     atom    2 type  1   force =    -0.05295938   -0.02326944   -0.05574905
     atom    3 type  1   force =    -0.01531365    0.01068492    0.02449788
     atom    4 type  1   force =     0.06615819   -0.01133296    0.00104938
     atom    5 type  1   force =    -0.01929313    0.01372924    0.01152984

     Total force =     0.116249     Total SCF correction =     0.000095

     BFGS Geometry Optimization

     number of scf cycles    =   1
     number of bfgs steps    =   0

     energy   new            =    -329.4546690314 Ry

     new trust radius        =       0.0803375377 bohr
     new conv_thr            =       0.0000000100 Ry


ATOMIC_POSITIONS (bohr)
Au      -2.071472028   1.636582249  -0.489672050
Au      -0.114079383   3.664677556   4.116029949
Au       2.994706353   1.188865919   0.047606875
Au       4.463729190   4.116062036   5.836899381
Au       7.495096869   1.189068240   2.520560844



     Writing output data file pwscf.save
     Check: negative starting charge=   -0.006250
     NEW-OLD atomic charge density approx. for the potential
     Check: negative starting charge=   -0.006265

     negative rho (up, down):  1.019E-03 0.000E+00

     total cpu time spent up to now is        4.6 secs

     per-process dynamical memory:    42.9 Mb

     Self-consistent Calculation

     iteration #  1     ecut=    30.00 Ry     beta=0.70
     Davidson diagonalization with overlap
     ethr =  1.00E-06,  avg # of iterations = 15.0

     negative rho (up, down):  6.910E-05 0.000E+00

     total cpu time spent up to now is        5.1 secs

     total energy              =    -329.46486611 Ry
     Harris-Foulkes estimate   =    -329.46524156 Ry
     estimated scf accuracy    <       0.00241892 Ry

     iteration #  2     ecut=    30.00 Ry     beta=0.70
     Davidson diagonalization with overlap
     ethr =  4.40E-06,  avg # of iterations =  9.0

     negative rho (up, down):  4.973E-05 0.000E+00

     total cpu time spent up to now is        5.4 secs

     total energy              =    -329.46103901 Ry
     Harris-Foulkes estimate   =    -329.46858625 Ry
     estimated scf accuracy    <       0.04239292 Ry

     iteration #  3     ecut=    30.00 Ry     beta=0.70
     Davidson diagonalization with overlap
     ethr =  4.40E-06,  avg # of iterations =  3.0

     negative rho (up, down):  1.498E-05 0.000E+00

     total cpu time spent up to now is        5.6 secs

     total energy              =    -329.46561718 Ry
     Harris-Foulkes estimate   =    -329.46664749 Ry
     estimated scf accuracy    <       0.00497023 Ry

     iteration #  4     ecut=    30.00 Ry     beta=0.70
     Davidson diagonalization with overlap
     ethr =  4.40E-06,  avg # of iterations =  2.0

     negative rho (up, down):  9.037E-07 0.000E+00

     total cpu time spent up to now is        5.8 secs

     total energy              =    -329.46581634 Ry
     Harris-Foulkes estimate   =    -329.46598215 Ry
     estimated scf accuracy    <       0.00105683 Ry

     iteration #  5     ecut=    30.00 Ry     beta=0.70
     Davidson diagonalization with overlap
     ethr =  1.92E-06,  avg # of iterations =  1.0

     negative rho (up, down):  1.236E-07 0.000E+00

     total cpu time spent up to now is        6.0 secs

     total energy              =    -329.46584672 Ry
     Harris-Foulkes estimate   =    -329.46593412 Ry
     estimated scf accuracy    <       0.00053988 Ry

     iteration #  6     ecut=    30.00 Ry     beta=0.70
     Davidson diagonalization with overlap
     ethr =  9.82E-07,  avg # of iterations =  1.0

     total cpu time spent up to now is        6.2 secs

     total energy              =    -329.46588166 Ry
     Harris-Foulkes estimate   =    -329.46589861 Ry
     estimated scf accuracy    <       0.00009132 Ry

     iteration #  7     ecut=    30.00 Ry     beta=0.70
     Davidson diagonalization with overlap
     ethr =  1.66E-07,  avg # of iterations =  3.0

     total cpu time spent up to now is        6.4 secs

     total energy              =    -329.46589245 Ry
     Harris-Foulkes estimate   =    -329.46589536 Ry
     estimated scf accuracy    <       0.00000838 Ry

     iteration #  8     ecut=    30.00 Ry     beta=0.70
     Davidson diagonalization with overlap
     ethr =  1.52E-08,  avg # of iterations =  2.0

     total cpu time spent up to now is        6.6 secs

     total energy              =    -329.46589363 Ry
     Harris-Foulkes estimate   =    -329.46589513 Ry
     estimated scf accuracy    <       0.00000369 Ry

     iteration #  9     ecut=    30.00 Ry     beta=0.70
     Davidson diagonalization with overlap
     ethr =  6.70E-09,  avg # of iterations =  2.0

     total cpu time spent up to now is        6.8 secs

     total energy              =    -329.46589448 Ry
     Harris-Foulkes estimate   =    -329.46589426 Ry
     estimated scf accuracy    <       0.00000035 Ry

     iteration # 10     ecut=    30.00 Ry     beta=0.70
     Davidson diagonalization with overlap
     ethr =  6.32E-10,  avg # of iterations =  2.0

     total cpu time spent up to now is        7.0 secs

     total energy              =    -329.46589457 Ry
     Harris-Foulkes estimate   =    -329.46589459 Ry
     estimated scf accuracy    <       0.00000011 Ry

     iteration # 11     ecut=    30.00 Ry     beta=0.70
     Davidson diagonalization with overlap
     ethr =  1.99E-10,  avg # of iterations =  2.0

     total cpu time spent up to now is        7.3 secs

     total energy              =    -329.46589460 Ry
     Harris-Foulkes estimate   =    -329.46589460 Ry
     estimated scf accuracy    <       0.00000002 Ry

     iteration # 12     ecut=    30.00 Ry     beta=0.70
     Davidson diagonalization with overlap
     ethr =  2.91E-11,  avg # of iterations =  2.0

     total cpu time spent up to now is        7.5 secs

     End of self-consistent calculation

          k = 0.0000 0.0000 0.0000 ( 22119 PWs)   bands (ev):

    -7.8744  -7.5546  -7.1874  -7.1033  -6.8761  -6.4864  -6.3609  -6.2571
    -6.2019  -5.8742  -5.7262  -5.5930  -5.4951  -5.3953  -5.3731  -5.3566
    -5.2978  -5.1905  -5.1341  -5.1169  -5.0310  -4.8570  -4.6137  -4.5749
    -4.5404  -4.4495  -4.3287  -4.0542  -2.4367  -2.2074  -0.4416  -0.3449
     0.4942   0.8933

     the Fermi energy is    -4.1007 ev

!    total energy              =    -329.46589460 Ry
     Harris-Foulkes estimate   =    -329.46589461 Ry
     estimated scf accuracy    <          8.0E-09 Ry

     The total energy is the sum of the following terms:

     one-electron contribution =    -586.90168584 Ry
     hartree contribution      =     315.28841303 Ry
     xc contribution           =     -51.42293474 Ry
     ewald contribution        =      -6.45597153 Ry
     smearing contrib. (-TS)   =       0.02628448 Ry

     convergence has been achieved in  12 iterations

     Forces acting on atoms (Ry/au):

     atom    1 type  1   force =     0.01574073    0.00924617    0.01448086
     atom    2 type  1   force =    -0.02592740   -0.01947188   -0.04195910
     atom    3 type  1   force =    -0.01244846    0.01027308    0.02390312
     atom    4 type  1   force =     0.03974832   -0.01312380   -0.00791744
     atom    5 type  1   force =    -0.01711319    0.01307642    0.01149256

     Total force =     0.081225     Total SCF correction =     0.000394

     number of scf cycles    =   2
     number of bfgs steps    =   1

     energy   old            =    -329.4546690314 Ry
     energy   new            =    -329.4658946002 Ry

     CASE: energy  _new < energy  _old

     new trust radius        =       0.0883712914 bohr
     new conv_thr            =       0.0000000042 Ry


ATOMIC_POSITIONS (bohr)
Au      -2.045494920   1.651532514  -0.465906420
Au      -0.159157181   3.632958573   4.046954748
Au       2.974371676   1.205394477   0.086018032
Au       4.530891561   4.095246655   5.825361974
Au       7.467369864   1.210123781   2.538996665



     Writing output data file pwscf.save
     Check: negative starting charge=   -0.006265
     NEW-OLD atomic charge density approx. for the potential
     Check: negative starting charge=   -0.006286

     negative rho (up, down):  1.329E-03 0.000E+00

     total cpu time spent up to now is        7.7 secs

     per-process dynamical memory:    50.7 Mb

     Self-consistent Calculation

     iteration #  1     ecut=    30.00 Ry     beta=0.70
     Davidson diagonalization with overlap
     ethr =  1.00E-06,  avg # of iterations = 14.0

     negative rho (up, down):  1.051E-04 0.000E+00

     total cpu time spent up to now is        8.2 secs

     total energy              =    -329.47348396 Ry
     Harris-Foulkes estimate   =    -329.47385833 Ry
     estimated scf accuracy    <       0.00304305 Ry

     iteration #  2     ecut=    30.00 Ry     beta=0.70
     Davidson diagonalization with overlap
     ethr =  5.53E-06,  avg # of iterations =  9.0

     negative rho (up, down):  8.483E-05 0.000E+00

     total cpu time spent up to now is        8.5 secs

     total energy              =    -329.46548453 Ry
     Harris-Foulkes estimate   =    -329.48029010 Ry
     estimated scf accuracy    <       0.11300264 Ry

     iteration #  3     ecut=    30.00 Ry     beta=0.70
     Davidson diagonalization with overlap
     ethr =  5.53E-06,  avg # of iterations =  3.0

     negative rho (up, down):  2.797E-05 0.000E+00

     total cpu time spent up to now is        8.7 secs

     total energy              =    -329.47449584 Ry
     Harris-Foulkes estimate   =    -329.47551614 Ry
     estimated scf accuracy    <       0.00420348 Ry

     iteration #  4     ecut=    30.00 Ry     beta=0.70
     Davidson diagonalization with overlap
     ethr =  5.53E-06,  avg # of iterations =  2.0

     negative rho (up, down):  5.625E-06 0.000E+00

     total cpu time spent up to now is        8.9 secs

     total energy              =    -329.47466461 Ry
     Harris-Foulkes estimate   =    -329.47505927 Ry
     estimated scf accuracy    <       0.00225429 Ry

     iteration #  5     ecut=    30.00 Ry     beta=0.70
     Davidson diagonalization with overlap
     ethr =  4.10E-06,  avg # of iterations =  1.0

     negative rho (up, down):  1.418E-07 0.000E+00

     total cpu time spent up to now is        9.1 secs

     total energy              =    -329.47480349 Ry
     Harris-Foulkes estimate   =    -329.47498396 Ry
     estimated scf accuracy    <       0.00120113 Ry

     iteration #  6     ecut=    30.00 Ry     beta=0.70
     Davidson diagonalization with overlap
     ethr =  2.18E-06,  avg # of iterations =  1.0

     total cpu time spent up to now is        9.3 secs

     total energy              =    -329.47485307 Ry
     Harris-Foulkes estimate   =    -329.47488134 Ry
     estimated scf accuracy    <       0.00024623 Ry

     iteration #  7     ecut=    30.00 Ry     beta=0.70
     Davidson diagonalization with overlap
     ethr =  4.48E-07,  avg # of iterations =  1.0

     total cpu time spent up to now is        9.5 secs

     total energy              =    -329.47486063 Ry
     Harris-Foulkes estimate   =    -329.47486668 Ry
     estimated scf accuracy    <       0.00003919 Ry

     iteration #  8     ecut=    30.00 Ry     beta=0.70
     Davidson diagonalization with overlap
     ethr =  7.13E-08,  avg # of iterations =  3.0

     total cpu time spent up to now is        9.7 secs

     total energy              =    -329.47486475 Ry
     Harris-Foulkes estimate   =    -329.47486585 Ry
     estimated scf accuracy    <       0.00000333 Ry

     iteration #  9     ecut=    30.00 Ry     beta=0.70
     Davidson diagonalization with overlap
     ethr =  6.05E-09,  avg # of iterations =  2.0

     total cpu time spent up to now is        9.9 secs

     total energy              =    -329.47486527 Ry
     Harris-Foulkes estimate   =    -329.47486577 Ry
     estimated scf accuracy    <       0.00000175 Ry

     iteration # 10     ecut=    30.00 Ry     beta=0.70
     Davidson diagonalization with overlap
     ethr =  3.18E-09,  avg # of iterations =  2.0

     total cpu time spent up to now is       10.1 secs

     total energy              =    -329.47486540 Ry
     Harris-Foulkes estimate   =    -329.47486546 Ry
     estimated scf accuracy    <       0.00000017 Ry

     iteration # 11     ecut=    30.00 Ry     beta=0.70
     Davidson diagonalization with overlap
     ethr =  3.01E-10,  avg # of iterations =  2.0

     total cpu time spent up to now is       10.3 secs

     total energy              =    -329.47486542 Ry
     Harris-Foulkes estimate   =    -329.47486544 Ry
     estimated scf accuracy    <       0.00000003 Ry

     iteration # 12     ecut=    30.00 Ry     beta=0.70
     Davidson diagonalization with overlap
     ethr =  4.72E-11,  avg # of iterations =  2.0

     total cpu time spent up to now is       10.5 secs

     End of self-consistent calculation

          k = 0.0000 0.0000 0.0000 ( 22119 PWs)   bands (ev):

    -7.9155  -7.4602  -7.2772  -7.1444  -6.8951  -6.4232  -6.4080  -6.2905
    -6.2098  -5.9275  -5.7492  -5.5924  -5.5041  -5.3877  -5.3660  -5.3538
    -5.3160  -5.2032  -5.1139  -5.1101  -5.0417  -4.8856  -4.5834  -4.5477
    -4.4983  -4.4166  -4.3183  -3.9932  -2.4132  -2.1938  -0.4452  -0.3252
     0.5082   0.8883

     the Fermi energy is    -4.0613 ev

!    total energy              =    -329.47486537 Ry
     Harris-Foulkes estimate   =    -329.47486542 Ry
     estimated scf accuracy    <          3.5E-09 Ry

     The total energy is the sum of the following terms:

     one-electron contribution =    -590.82575170 Ry
     hartree contribution      =     317.25529960 Ry
     xc contribution           =     -51.43595678 Ry
     ewald contribution        =      -4.49518642 Ry
     smearing contrib. (-TS)   =       0.02672992 Ry

     convergence has been achieved in  12 iterations

     Forces acting on atoms (Ry/au):

     atom    1 type  1   force =     0.00836911    0.00658452    0.00855313
     atom    2 type  1   force =    -0.00907505   -0.01483248   -0.03018504
     atom    3 type  1   force =    -0.00827033    0.00920291    0.02276241
     atom    4 type  1   force =     0.02070745   -0.01092486   -0.01128111
     atom    5 type  1   force =    -0.01173118    0.00996990    0.01015062

     Total force =     0.055558     Total SCF correction =     0.000272

     number of scf cycles    =   3
     number of bfgs steps    =   2

     energy   old            =    -329.4658946002 Ry
     energy   new            =    -329.4748653700 Ry

     CASE: energy  _new < energy  _old

     new trust radius        =       0.1325569371 bohr
     new conv_thr            =       0.0000000030 Ry


ATOMIC_POSITIONS (bohr)
Au      -2.010483507   1.674933651  -0.432184290
Au      -0.212235851   3.581040506   3.937143498
Au       2.943643966   1.235244583   0.158253456
Au       4.622156718   4.059619232   5.796264515
Au       7.424899674   1.244418029   2.571947822



     Writing output data file pwscf.save
     Check: negative starting charge=   -0.006286
     NEW-OLD atomic charge density approx. for the potential
     Check: negative starting charge=   -0.006319

     negative rho (up, down):  2.637E-03 0.000E+00

     total cpu time spent up to now is       10.8 secs

     per-process dynamical memory:    50.7 Mb

     Self-consistent Calculation

     iteration #  1     ecut=    30.00 Ry     beta=0.70
     Davidson diagonalization with overlap
     ethr =  1.00E-06,  avg # of iterations = 12.0

     negative rho (up, down):  2.834E-04 0.000E+00

     total cpu time spent up to now is       11.3 secs

     total energy              =    -329.48000763 Ry
     Harris-Foulkes estimate   =    -329.48045971 Ry
     estimated scf accuracy    <       0.00567961 Ry

     iteration #  2     ecut=    30.00 Ry     beta=0.70
     Davidson diagonalization with overlap
     ethr =  1.03E-05,  avg # of iterations =  8.0

     negative rho (up, down):  2.411E-04 0.000E+00

     total cpu time spent up to now is       11.6 secs

     total energy              =    -329.46164147 Ry
     Harris-Foulkes estimate   =    -329.49392159 Ry
     estimated scf accuracy    <       0.26986799 Ry

     iteration #  3     ecut=    30.00 Ry     beta=0.70
     Davidson diagonalization with overlap
     ethr =  1.03E-05,  avg # of iterations =  3.0

     negative rho (up, down):  9.069E-05 0.000E+00

     total cpu time spent up to now is       11.9 secs

     total energy              =    -329.48213674 Ry
     Harris-Foulkes estimate   =    -329.48346997 Ry
     estimated scf accuracy    <       0.00468373 Ry

     iteration #  4     ecut=    30.00 Ry     beta=0.70
     Davidson diagonalization with overlap
     ethr =  8.52E-06,  avg # of iterations =  2.0

     negative rho (up, down):  2.310E-05 0.000E+00

     total cpu time spent up to now is       12.0 secs

     total energy              =    -329.48226660 Ry
     Harris-Foulkes estimate   =    -329.48308383 Ry
     estimated scf accuracy    <       0.00499014 Ry

     iteration #  5     ecut=    30.00 Ry     beta=0.70
     Davidson diagonalization with overlap
     ethr =  8.52E-06,  avg # of iterations =  1.0

     negative rho (up, down):  6.138E-07 0.000E+00

     total cpu time spent up to now is       12.2 secs

     total energy              =    -329.48255564 Ry
     Harris-Foulkes estimate   =    -329.48290033 Ry
     estimated scf accuracy    <       0.00249181 Ry

     iteration #  6     ecut=    30.00 Ry     beta=0.70
     Davidson diagonalization with overlap
     ethr =  4.53E-06,  avg # of iterations =  1.0

     total cpu time spent up to now is       12.4 secs

     total energy              =    -329.48259187 Ry
     Harris-Foulkes estimate   =    -329.48268174 Ry
     estimated scf accuracy    <       0.00097182 Ry

     iteration #  7     ecut=    30.00 Ry     beta=0.70
     Davidson diagonalization with overlap
     ethr =  1.77E-06,  avg # of iterations =  1.0

     total cpu time spent up to now is       12.6 secs

     total energy              =    -329.48258090 Ry
     Harris-Foulkes estimate   =    -329.48261632 Ry
     estimated scf accuracy    <       0.00034867 Ry

     iteration #  8     ecut=    30.00 Ry     beta=0.70
     Davidson diagonalization with overlap
     ethr =  6.34E-07,  avg # of iterations =  1.0

     total cpu time spent up to now is       12.8 secs

     total energy              =    -329.48258317 Ry
     Harris-Foulkes estimate   =    -329.48259475 Ry
     estimated scf accuracy    <       0.00006514 Ry

     iteration #  9     ecut=    30.00 Ry     beta=0.70
     Davidson diagonalization with overlap
     ethr =  1.18E-07,  avg # of iterations =  2.0

     total cpu time spent up to now is       13.0 secs

     total energy              =    -329.48259201 Ry
     Harris-Foulkes estimate   =    -329.48259330 Ry
     estimated scf accuracy    <       0.00000499 Ry

     iteration # 10     ecut=    30.00 Ry     beta=0.70
     Davidson diagonalization with overlap
     ethr =  9.08E-09,  avg # of iterations =  3.0

     total cpu time spent up to now is       13.2 secs

     total energy              =    -329.48259249 Ry
     Harris-Foulkes estimate   =    -329.48259306 Ry
     estimated scf accuracy    <       0.00000493 Ry

     iteration # 11     ecut=    30.00 Ry     beta=0.70
     Davidson diagonalization with overlap
     ethr =  8.97E-09,  avg # of iterations =  1.0

     total cpu time spent up to now is       13.4 secs

     total energy              =    -329.48259228 Ry
     Harris-Foulkes estimate   =    -329.48259271 Ry
     estimated scf accuracy    <       0.00000132 Ry

     iteration # 12     ecut=    30.00 Ry     beta=0.70
     Davidson diagonalization with overlap
     ethr =  2.41E-09,  avg # of iterations =  1.0

     total cpu time spent up to now is       13.6 secs

     total energy              =    -329.48259241 Ry
     Harris-Foulkes estimate   =    -329.48259243 Ry
     estimated scf accuracy    <       0.00000002 Ry

     iteration # 13     ecut=    30.00 Ry     beta=0.70
     Davidson diagonalization with overlap
     ethr =  3.69E-11,  avg # of iterations =  3.0

     total cpu time spent up to now is       13.8 secs

     total energy              =    -329.48259241 Ry
     Harris-Foulkes estimate   =    -329.48259242 Ry
     estimated scf accuracy    <          6.5E-09 Ry

     iteration # 14     ecut=    30.00 Ry     beta=0.70
     Davidson diagonalization with overlap
     ethr =  1.18E-11,  avg # of iterations =  2.0

     total cpu time spent up to now is       14.0 secs

     End of self-consistent calculation

          k = 0.0000 0.0000 0.0000 ( 22119 PWs)   bands (ev):

    -8.0564  -7.4896  -7.4341  -7.1528  -6.9625  -6.5106  -6.4678  -6.3903
    -6.1399  -6.0161  -5.7726  -5.6033  -5.5108  -5.4093  -5.3752  -5.3418
    -5.2964  -5.2192  -5.0893  -5.0821  -5.0562  -4.9254  -4.5208  -4.4884
    -4.4446  -4.3456  -4.2820  -3.8938  -2.3786  -2.1519  -0.4555  -0.2893
     0.5311   0.8816

     the Fermi energy is    -3.9883 ev

!    total energy              =    -329.48259242 Ry
     Harris-Foulkes estimate   =    -329.48259241 Ry
     estimated scf accuracy    <          1.4E-09 Ry

     The total energy is the sum of the following terms:

     one-electron contribution =    -598.56374077 Ry
     hartree contribution      =     321.11779047 Ry
     xc contribution           =     -51.46962934 Ry
     ewald contribution        =      -0.59479585 Ry
     smearing contrib. (-TS)   =       0.02778306 Ry

     convergence has been achieved in  14 iterations

     Forces acting on atoms (Ry/au):

     atom    1 type  1   force =    -0.00661435    0.00058279   -0.00549201
     atom    2 type  1   force =     0.00569682   -0.00569903   -0.01085168
     atom    3 type  1   force =    -0.00238602    0.00732983    0.02010443
     atom    4 type  1   force =     0.00519733   -0.00671656   -0.00871511
     atom    5 type  1   force =    -0.00189378    0.00450297    0.00495437

     Total force =     0.030283     Total SCF correction =     0.000124

     number of scf cycles    =   4
     number of bfgs steps    =   3

     energy   old            =    -329.4748653700 Ry
     energy   new            =    -329.4825924188 Ry

     CASE: energy  _new < energy  _old

     new trust radius        =       0.0762370475 bohr
     new conv_thr            =       0.0000000020 Ry


ATOMIC_POSITIONS (bohr)
Au      -2.003777016   1.686200559  -0.424802639
Au      -0.232604681   3.549377921   3.870851123
Au       2.926015447   1.259064566   0.219139451
Au       4.675355688   4.034375158   5.772805609
Au       7.402991562   1.266237796   2.593431455



     Writing output data file pwscf.save
     Check: negative starting charge=   -0.006319
     NEW-OLD atomic charge density approx. for the potential
     Check: negative starting charge=   -0.006374

     negative rho (up, down):  1.292E-03 0.000E+00

     total cpu time spent up to now is       14.2 secs

     per-process dynamical memory:    50.7 Mb

     Self-consistent Calculation

     iteration #  1     ecut=    30.00 Ry     beta=0.70
     Davidson diagonalization with overlap
     ethr =  1.00E-06,  avg # of iterations = 10.0

     negative rho (up, down):  1.012E-04 0.000E+00

     total cpu time spent up to now is       14.7 secs

     total energy              =    -329.48318162 Ry
     Harris-Foulkes estimate   =    -329.48306639 Ry
     estimated scf accuracy    <       0.00216260 Ry

     iteration #  2     ecut=    30.00 Ry     beta=0.70
     Davidson diagonalization with overlap
     ethr =  3.93E-06,  avg # of iterations =  7.0

     negative rho (up, down):  8.293E-05 0.000E+00

     total cpu time spent up to now is       15.0 secs

     total energy              =    -329.47509183 Ry
     Harris-Foulkes estimate   =    -329.48941781 Ry
     estimated scf accuracy    <       0.11845985 Ry

     iteration #  3     ecut=    30.00 Ry     beta=0.70
     Davidson diagonalization with overlap
     ethr =  3.93E-06,  avg # of iterations =  3.0

     negative rho (up, down):  1.476E-05 0.000E+00

     total cpu time spent up to now is       15.2 secs

     total energy              =    -329.48416669 Ry
     Harris-Foulkes estimate   =    -329.48445279 Ry
     estimated scf accuracy    <       0.00165731 Ry

     iteration #  4     ecut=    30.00 Ry     beta=0.70
     Davidson diagonalization with overlap
     ethr =  3.01E-06,  avg # of iterations =  1.0

     negative rho (up, down):  8.031E-08 0.000E+00

     total cpu time spent up to now is       15.4 secs

     total energy              =    -329.48421980 Ry
     Harris-Foulkes estimate   =    -329.48430851 Ry
     estimated scf accuracy    <       0.00077732 Ry

     iteration #  5     ecut=    30.00 Ry     beta=0.70
     Davidson diagonalization with overlap
     ethr =  1.41E-06,  avg # of iterations =  1.0

     total cpu time spent up to now is       15.6 secs

     total energy              =    -329.48423134 Ry
     Harris-Foulkes estimate   =    -329.48426079 Ry
     estimated scf accuracy    <       0.00029456 Ry

     iteration #  6     ecut=    30.00 Ry     beta=0.70
     Davidson diagonalization with overlap
     ethr =  5.36E-07,  avg # of iterations =  1.0

     total cpu time spent up to now is       15.8 secs

     total energy              =    -329.48423498 Ry
     Harris-Foulkes estimate   =    -329.48424419 Ry
     estimated scf accuracy    <       0.00010596 Ry

     iteration #  7     ecut=    30.00 Ry     beta=0.70
     Davidson diagonalization with overlap
     ethr =  1.93E-07,  avg # of iterations =  1.0

     total cpu time spent up to now is       16.0 secs

     total energy              =    -329.48423357 Ry
     Harris-Foulkes estimate   =    -329.48424046 Ry
     estimated scf accuracy    <       0.00005581 Ry

     iteration #  8     ecut=    30.00 Ry     beta=0.70
     Davidson diagonalization with overlap
     ethr =  1.01E-07,  avg # of iterations =  1.0

     total cpu time spent up to now is       16.2 secs

     total energy              =    -329.48423564 Ry
     Harris-Foulkes estimate   =    -329.48423731 Ry
     estimated scf accuracy    <       0.00000659 Ry

     iteration #  9     ecut=    30.00 Ry     beta=0.70
     Davidson diagonalization with overlap
     ethr =  1.20E-08,  avg # of iterations =  3.0

     total cpu time spent up to now is       16.4 secs

     total energy              =    -329.48423714 Ry
     Harris-Foulkes estimate   =    -329.48423729 Ry
     estimated scf accuracy    <       0.00000148 Ry

     iteration # 10     ecut=    30.00 Ry     beta=0.70
     Davidson diagonalization with overlap
     ethr =  2.69E-09,  avg # of iterations =  2.0

     total cpu time spent up to now is       16.6 secs

     total energy              =    -329.48423718 Ry
     Harris-Foulkes estimate   =    -329.48423729 Ry
     estimated scf accuracy    <       0.00000112 Ry

     iteration # 11     ecut=    30.00 Ry     beta=0.70
     Davidson diagonalization with overlap
     ethr =  2.03E-09,  avg # of iterations =  1.0

     total cpu time spent up to now is       16.8 secs

     total energy              =    -329.48423718 Ry
     Harris-Foulkes estimate   =    -329.48423723 Ry
     estimated scf accuracy    <       0.00000027 Ry

     iteration # 12     ecut=    30.00 Ry     beta=0.70
     Davidson diagonalization with overlap
     ethr =  4.87E-10,  avg # of iterations =  1.0

     total cpu time spent up to now is       16.9 secs

     total energy              =    -329.48423719 Ry
     Harris-Foulkes estimate   =    -329.48423721 Ry
     estimated scf accuracy    <          3.9E-09 Ry

     iteration # 13     ecut=    30.00 Ry     beta=0.70
     Davidson diagonalization with overlap
     ethr =  7.02E-12,  avg # of iterations =  3.0

     total cpu time spent up to now is       17.2 secs

     total energy              =    -329.48423722 Ry
     Harris-Foulkes estimate   =    -329.48423720 Ry
     estimated scf accuracy    <          2.3E-09 Ry

     iteration # 14     ecut=    30.00 Ry     beta=0.70
     Davidson diagonalization with overlap
     ethr =  4.18E-12,  avg # of iterations =  2.0

     total cpu time spent up to now is       17.4 secs

     End of self-consistent calculation

          k = 0.0000 0.0000 0.0000 ( 22119 PWs)   bands (ev):

    -8.1614  -7.6246  -7.4989  -7.1489  -7.0242  -6.5850  -6.5249  -6.4715
    -6.1433  -6.0399  -5.7735  -5.6134  -5.5159  -5.4267  -5.3807  -5.3355
    -5.2781  -5.2153  -5.0943  -5.0710  -5.0519  -4.9451  -4.4843  -4.4405
    -4.4260  -4.2957  -4.2446  -3.8299  -2.3665  -2.1166  -0.4655  -0.2631
     0.5363   0.8786

     the Fermi energy is    -3.9350 ev

!    total energy              =    -329.48423725 Ry
     Harris-Foulkes estimate   =    -329.48423722 Ry
     estimated scf accuracy    <          1.4E-10 Ry

     The total energy is the sum of the following terms:

     one-electron contribution =    -603.74700163 Ry
     hartree contribution      =     323.69684421 Ry
     xc contribution           =     -51.49417420 Ry
     ewald contribution        =       2.03181901 Ry
     smearing contrib. (-TS)   =       0.02827536 Ry

     convergence has been achieved in  14 iterations

     Forces acting on atoms (Ry/au):

     atom    1 type  1   force =    -0.01389926   -0.00384977   -0.01597733
     atom    2 type  1   force =     0.01093826    0.00058448    0.00372589
     atom    3 type  1   force =     0.00005152    0.00585400    0.01587401
     atom    4 type  1   force =    -0.00371584   -0.00192168   -0.00320071
     atom    5 type  1   force =     0.00662533   -0.00066702   -0.00042185

     Total force =     0.030914     Total SCF correction =     0.000046

     number of scf cycles    =   5
     number of bfgs steps    =   4

     energy   old            =    -329.4825924188 Ry
     energy   new            =    -329.4842372520 Ry

     CASE: energy  _new < energy  _old

     new trust radius        =       0.0297320851 bohr
     new conv_thr            =       0.0000000016 Ry


ATOMIC_POSITIONS (bohr)
Au      -2.017326640   1.684084085  -0.440426101
Au      -0.225640795   3.544329700   3.862631963
Au       2.922907828   1.269496416   0.246807412
Au       4.681921215   4.027953291   5.765661759
Au       7.406119391   1.269392508   2.596749968



     Writing output data file pwscf.save
     Check: negative starting charge=   -0.006374
     NEW-OLD atomic charge density approx. for the potential
     Check: negative starting charge=   -0.006369

     negative rho (up, down):  1.247E-04 0.000E+00

     total cpu time spent up to now is       17.6 secs

     per-process dynamical memory:    50.7 Mb

     Self-consistent Calculation

     iteration #  1     ecut=    30.00 Ry     beta=0.70
     Davidson diagonalization with overlap
     ethr =  1.00E-06,  avg # of iterations =  4.0

     negative rho (up, down):  1.435E-06 0.000E+00

     total cpu time spent up to now is       18.0 secs

     total energy              =    -329.48493729 Ry
     Harris-Foulkes estimate   =    -329.48516449 Ry
     estimated scf accuracy    <       0.00040611 Ry

     iteration #  2     ecut=    30.00 Ry     beta=0.70
     Davidson diagonalization with overlap
     ethr =  7.38E-07,  avg # of iterations =  3.0

     negative rho (up, down):  8.372E-07 0.000E+00

     total cpu time spent up to now is       18.2 secs

     total energy              =    -329.48388297 Ry
     Harris-Foulkes estimate   =    -329.48618943 Ry
     estimated scf accuracy    <       0.01567770 Ry

     iteration #  3     ecut=    30.00 Ry     beta=0.70
     Davidson diagonalization with overlap
     ethr =  7.38E-07,  avg # of iterations =  3.0

     negative rho (up, down):  2.410E-07 0.000E+00

     total cpu time spent up to now is       18.4 secs

     total energy              =    -329.48510029 Ry
     Harris-Foulkes estimate   =    -329.48523212 Ry
     estimated scf accuracy    <       0.00057741 Ry

     iteration #  4     ecut=    30.00 Ry     beta=0.70
     Davidson diagonalization with overlap
     ethr =  7.38E-07,  avg # of iterations =  1.0

     total cpu time spent up to now is       18.6 secs

     total energy              =    -329.48515962 Ry
     Harris-Foulkes estimate   =    -329.48518914 Ry
     estimated scf accuracy    <       0.00015021 Ry

     iteration #  5     ecut=    30.00 Ry     beta=0.70
     Davidson diagonalization with overlap
     ethr =  2.73E-07,  avg # of iterations =  1.0

     total cpu time spent up to now is       18.8 secs

     total energy              =    -329.48517499 Ry
     Harris-Foulkes estimate   =    -329.48517940 Ry
     estimated scf accuracy    <       0.00002130 Ry

     iteration #  6     ecut=    30.00 Ry     beta=0.70
     Davidson diagonalization with overlap
     ethr =  3.87E-08,  avg # of iterations =  2.0

     total cpu time spent up to now is       19.0 secs

     total energy              =    -329.48517802 Ry
     Harris-Foulkes estimate   =    -329.48517848 Ry
     estimated scf accuracy    <       0.00000140 Ry

     iteration #  7     ecut=    30.00 Ry     beta=0.70
     Davidson diagonalization with overlap
     ethr =  2.55E-09,  avg # of iterations =  3.0

     total cpu time spent up to now is       19.2 secs

     total energy              =    -329.48517865 Ry
     Harris-Foulkes estimate   =    -329.48517860 Ry
     estimated scf accuracy    <       0.00000077 Ry

     iteration #  8     ecut=    30.00 Ry     beta=0.70
     Davidson diagonalization with overlap
     ethr =  1.40E-09,  avg # of iterations =  2.0

     total cpu time spent up to now is       19.4 secs

     total energy              =    -329.48517870 Ry
     Harris-Foulkes estimate   =    -329.48517875 Ry
     estimated scf accuracy    <       0.00000036 Ry

     iteration #  9     ecut=    30.00 Ry     beta=0.70
     Davidson diagonalization with overlap
     ethr =  6.56E-10,  avg # of iterations =  2.0

     total cpu time spent up to now is       19.6 secs

     total energy              =    -329.48517871 Ry
     Harris-Foulkes estimate   =    -329.48517873 Ry
     estimated scf accuracy    <       0.00000006 Ry

     iteration # 10     ecut=    30.00 Ry     beta=0.70
     Davidson diagonalization with overlap
     ethr =  1.01E-10,  avg # of iterations =  2.0

     total cpu time spent up to now is       19.8 secs

     total energy              =    -329.48517874 Ry
     Harris-Foulkes estimate   =    -329.48517872 Ry
     estimated scf accuracy    <          2.8E-09 Ry

     iteration # 11     ecut=    30.00 Ry     beta=0.70
     Davidson diagonalization with overlap
     ethr =  5.05E-12,  avg # of iterations =  3.0

     total cpu time spent up to now is       20.0 secs

     End of self-consistent calculation

          k = 0.0000 0.0000 0.0000 ( 22119 PWs)   bands (ev):

    -8.1780  -7.6502  -7.5045  -7.1594  -7.0419  -6.5996  -6.5299  -6.4844
    -6.1608  -6.0339  -5.7639  -5.6152  -5.5226  -5.4336  -5.3720  -5.3290
    -5.2748  -5.2113  -5.1037  -5.0717  -5.0536  -4.9415  -4.4798  -4.4365
    -4.4265  -4.2844  -4.2381  -3.8190  -2.3735  -2.1060  -0.4698  -0.2574
     0.5271   0.8812

     the Fermi energy is    -3.9247 ev

!    total energy              =    -329.48517874 Ry
     Harris-Foulkes estimate   =    -329.48517874 Ry
     estimated scf accuracy    <          4.4E-10 Ry

     The total energy is the sum of the following terms:

     one-electron contribution =    -604.46202516 Ry
     hartree contribution      =     324.04940157 Ry
     xc contribution           =     -51.49560776 Ry
     ewald contribution        =       2.39485007 Ry
     smearing contrib. (-TS)   =       0.02820254 Ry

     convergence has been achieved in  11 iterations

     Forces acting on atoms (Ry/au):

     atom    1 type  1   force =    -0.01091003   -0.00361813   -0.01470228
     atom    2 type  1   force =     0.00922432    0.00099295    0.00376993
     atom    3 type  1   force =    -0.00195575    0.00560681    0.01382698
     atom    4 type  1   force =    -0.00486170   -0.00113201   -0.00164348
     atom    5 type  1   force =     0.00850316   -0.00184961   -0.00125115

     Total force =     0.027927     Total SCF correction =     0.000089

     number of scf cycles    =   6
     number of bfgs steps    =   5

     energy   old            =    -329.4842372520 Ry
     energy   new            =    -329.4851787361 Ry

     CASE: energy  _new < energy  _old


     WARNING: bfgs curvature condition failed, Theta= 0.941
     new trust radius        =       0.0327052936 bohr
     new conv_thr            =       0.0000000009 Ry


ATOMIC_POSITIONS (bohr)
Au      -2.033070442   1.680530603  -0.460776168
Au      -0.215834551   3.540667660   3.857282120
Au       2.918061468   1.281326871   0.276910391
Au       4.684567745   4.022188673   5.759426744
Au       7.414256780   1.270542193   2.598581912



     Writing output data file pwscf.save
     Check: negative starting charge=   -0.006369
     NEW-OLD atomic charge density approx. for the potential
     Check: negative starting charge=   -0.006350

     negative rho (up, down):  1.650E-04 0.000E+00

     total cpu time spent up to now is       20.2 secs

     per-process dynamical memory:    50.7 Mb

     Self-consistent Calculation

     iteration #  1     ecut=    30.00 Ry     beta=0.70
     Davidson diagonalization with overlap
     ethr =  1.00E-06,  avg # of iterations =  4.0

     negative rho (up, down):  2.520E-06 0.000E+00

     total cpu time spent up to now is       20.6 secs

     total energy              =    -329.48588229 Ry
     Harris-Foulkes estimate   =    -329.48617760 Ry
     estimated scf accuracy    <       0.00053020 Ry

     iteration #  2     ecut=    30.00 Ry     beta=0.70
     Davidson diagonalization with overlap
     ethr =  9.64E-07,  avg # of iterations =  3.0

     negative rho (up, down):  1.492E-06 0.000E+00

     total cpu time spent up to now is       20.8 secs

     total energy              =    -329.48474165 Ry
     Harris-Foulkes estimate   =    -329.48738435 Ry
     estimated scf accuracy    <       0.01664037 Ry

     iteration #  3     ecut=    30.00 Ry     beta=0.70
     Davidson diagonalization with overlap
     ethr =  9.64E-07,  avg # of iterations =  3.0

     negative rho (up, down):  5.341E-07 0.000E+00

     total cpu time spent up to now is       21.1 secs

     total energy              =    -329.48607892 Ry
     Harris-Foulkes estimate   =    -329.48627642 Ry
     estimated scf accuracy    <       0.00088399 Ry

     iteration #  4     ecut=    30.00 Ry     beta=0.70
     Davidson diagonalization with overlap
     ethr =  9.64E-07,  avg # of iterations =  1.0

     total cpu time spent up to now is       21.2 secs

     total energy              =    -329.48616940 Ry
     Harris-Foulkes estimate   =    -329.48620351 Ry
     estimated scf accuracy    <       0.00016643 Ry

     iteration #  5     ecut=    30.00 Ry     beta=0.70
     Davidson diagonalization with overlap
     ethr =  3.03E-07,  avg # of iterations =  1.0

     total cpu time spent up to now is       21.4 secs

     total energy              =    -329.48618816 Ry
     Harris-Foulkes estimate   =    -329.48619272 Ry
     estimated scf accuracy    <       0.00002131 Ry

     iteration #  6     ecut=    30.00 Ry     beta=0.70
     Davidson diagonalization with overlap
     ethr =  3.87E-08,  avg # of iterations =  2.0

     total cpu time spent up to now is       21.6 secs

     total energy              =    -329.48619206 Ry
     Harris-Foulkes estimate   =    -329.48619232 Ry
     estimated scf accuracy    <       0.00000182 Ry

     iteration #  7     ecut=    30.00 Ry     beta=0.70
     Davidson diagonalization with overlap
     ethr =  3.31E-09,  avg # of iterations =  3.0

     total cpu time spent up to now is       21.9 secs

     total energy              =    -329.48619248 Ry
     Harris-Foulkes estimate   =    -329.48619266 Ry
     estimated scf accuracy    <       0.00000143 Ry

     iteration #  8     ecut=    30.00 Ry     beta=0.70
     Davidson diagonalization with overlap
     ethr =  2.59E-09,  avg # of iterations =  2.0

     total cpu time spent up to now is       22.0 secs

     total energy              =    -329.48619252 Ry
     Harris-Foulkes estimate   =    -329.48619261 Ry
     estimated scf accuracy    <       0.00000040 Ry

     iteration #  9     ecut=    30.00 Ry     beta=0.70
     Davidson diagonalization with overlap
     ethr =  7.33E-10,  avg # of iterations =  2.0

     total cpu time spent up to now is       22.2 secs

     total energy              =    -329.48619260 Ry
     Harris-Foulkes estimate   =    -329.48619256 Ry
     estimated scf accuracy    <       0.00000004 Ry

     iteration # 10     ecut=    30.00 Ry     beta=0.70
     Davidson diagonalization with overlap
     ethr =  7.45E-11,  avg # of iterations =  2.0

     total cpu time spent up to now is       22.4 secs

     total energy              =    -329.48619268 Ry
     Harris-Foulkes estimate   =    -329.48619261 Ry
     estimated scf accuracy    <          2.0E-09 Ry

     iteration # 11     ecut=    30.00 Ry     beta=0.70
     Davidson diagonalization with overlap
     ethr =  3.71E-12,  avg # of iterations =  3.0

     total cpu time spent up to now is       22.7 secs

     total energy              =    -329.48619269 Ry
     Harris-Foulkes estimate   =    -329.48619268 Ry
     estimated scf accuracy    <          1.5E-09 Ry

     iteration # 12     ecut=    30.00 Ry     beta=0.70
     Davidson diagonalization with overlap
     ethr =  2.80E-12,  avg # of iterations =  2.0

     total cpu time spent up to now is       22.9 secs

     End of self-consistent calculation

          k = 0.0000 0.0000 0.0000 ( 22119 PWs)   bands (ev):

    -8.1918  -7.6670  -7.5054  -7.1763  -7.0585  -6.6102  -6.5284  -6.4923
    -6.1816  -6.0273  -5.7529  -5.6145  -5.5313  -5.4426  -5.3638  -5.3211
    -5.2714  -5.2072  -5.1154  -5.0749  -5.0573  -4.9329  -4.4764  -4.4400
    -4.4256  -4.2750  -4.2331  -3.8108  -2.3823  -2.0972  -0.4741  -0.2521
     0.5159   0.8844

     the Fermi energy is    -3.9162 ev

!    total energy              =    -329.48619269 Ry
     Harris-Foulkes estimate   =    -329.48619269 Ry
     estimated scf accuracy    <          1.5E-10 Ry

     The total energy is the sum of the following terms:

     one-electron contribution =    -604.91156265 Ry
     hartree contribution      =     324.26900661 Ry
     xc contribution           =     -51.49532782 Ry
     ewald contribution        =       2.62364152 Ry
     smearing contrib. (-TS)   =       0.02804964 Ry

     convergence has been achieved in  12 iterations

     Forces acting on atoms (Ry/au):

     atom    1 type  1   force =    -0.00749572   -0.00294583   -0.01228436
     atom    2 type  1   force =     0.00671473    0.00106414    0.00301080
     atom    3 type  1   force =    -0.00344852    0.00523801    0.01152203
     atom    4 type  1   force =    -0.00519355   -0.00082316   -0.00056932
     atom    5 type  1   force =     0.00942306   -0.00253316   -0.00167916

     Total force =     0.023857     Total SCF correction =     0.000057

     number of scf cycles    =   7
     number of bfgs steps    =   6

     energy   old            =    -329.4851787360 Ry
     energy   new            =    -329.4861926940 Ry

     CASE: energy  _new < energy  _old

     new trust radius        =       0.0490579403 bohr
     new conv_thr            =       0.0000000010 Ry


ATOMIC_POSITIONS (bohr)
Au      -2.054961851   1.674929919  -0.492109476
Au      -0.201565011   3.536288215   3.850704730
Au       2.908423244   1.299669279   0.321377708
Au       4.685234718   4.014134300   5.751567288
Au       7.430849899   1.270234287   2.599884751



     Writing output data file pwscf.save
     Check: negative starting charge=   -0.006350
     NEW-OLD atomic charge density approx. for the potential
     Check: negative starting charge=   -0.006320

     negative rho (up, down):  4.039E-04 0.000E+00

     total cpu time spent up to now is       23.1 secs

     per-process dynamical memory:    50.7 Mb

     Self-consistent Calculation

     iteration #  1     ecut=    30.00 Ry     beta=0.70
     Davidson diagonalization with overlap
     ethr =  1.00E-06,  avg # of iterations =  5.0

     negative rho (up, down):  1.404E-05 0.000E+00

     total cpu time spent up to now is       23.5 secs

     total energy              =    -329.48671957 Ry
     Harris-Foulkes estimate   =    -329.48729158 Ry
     estimated scf accuracy    <       0.00118924 Ry

     iteration #  2     ecut=    30.00 Ry     beta=0.70
     Davidson diagonalization with overlap
     ethr =  2.16E-06,  avg # of iterations =  4.0

     negative rho (up, down):  9.322E-06 0.000E+00

     total cpu time spent up to now is       23.7 secs

     total energy              =    -329.48432731 Ry
     Harris-Foulkes estimate   =    -329.48996971 Ry
     estimated scf accuracy    <       0.03456301 Ry

     iteration #  3     ecut=    30.00 Ry     beta=0.70
     Davidson diagonalization with overlap
     ethr =  2.16E-06,  avg # of iterations =  3.0

     negative rho (up, down):  4.464E-06 0.000E+00

     total cpu time spent up to now is       24.0 secs

     total energy              =    -329.48715100 Ry
     Harris-Foulkes estimate   =    -329.48765412 Ry
     estimated scf accuracy    <       0.00228876 Ry

     iteration #  4     ecut=    30.00 Ry     beta=0.70
     Davidson diagonalization with overlap
     ethr =  2.16E-06,  avg # of iterations =  1.0

     negative rho (up, down):  7.849E-08 0.000E+00

     total cpu time spent up to now is       24.1 secs

     total energy              =    -329.48736684 Ry
     Harris-Foulkes estimate   =    -329.48742444 Ry
     estimated scf accuracy    <       0.00028530 Ry

     iteration #  5     ecut=    30.00 Ry     beta=0.70
     Davidson diagonalization with overlap
     ethr =  5.19E-07,  avg # of iterations =  2.0

     total cpu time spent up to now is       24.3 secs

     total energy              =    -329.48739738 Ry
     Harris-Foulkes estimate   =    -329.48740829 Ry
     estimated scf accuracy    <       0.00005341 Ry

     iteration #  6     ecut=    30.00 Ry     beta=0.70
     Davidson diagonalization with overlap
     ethr =  9.71E-08,  avg # of iterations =  2.0

     total cpu time spent up to now is       24.5 secs

     total energy              =    -329.48740662 Ry
     Harris-Foulkes estimate   =    -329.48740730 Ry
     estimated scf accuracy    <       0.00000559 Ry

     iteration #  7     ecut=    30.00 Ry     beta=0.70
     Davidson diagonalization with overlap
     ethr =  1.02E-08,  avg # of iterations =  2.0

     total cpu time spent up to now is       24.7 secs

     total energy              =    -329.48740724 Ry
     Harris-Foulkes estimate   =    -329.48740799 Ry
     estimated scf accuracy    <       0.00000518 Ry

     iteration #  8     ecut=    30.00 Ry     beta=0.70
     Davidson diagonalization with overlap
     ethr =  9.42E-09,  avg # of iterations =  2.0

     total cpu time spent up to now is       24.9 secs

     total energy              =    -329.48740758 Ry
     Harris-Foulkes estimate   =    -329.48740766 Ry
     estimated scf accuracy    <       0.00000088 Ry

     iteration #  9     ecut=    30.00 Ry     beta=0.70
     Davidson diagonalization with overlap
     ethr =  1.60E-09,  avg # of iterations =  2.0

     total cpu time spent up to now is       25.1 secs

     total energy              =    -329.48740776 Ry
     Harris-Foulkes estimate   =    -329.48740769 Ry
     estimated scf accuracy    <       0.00000005 Ry

     iteration # 10     ecut=    30.00 Ry     beta=0.70
     Davidson diagonalization with overlap
     ethr =  9.39E-11,  avg # of iterations =  3.0

     total cpu time spent up to now is       25.3 secs

     total energy              =    -329.48740775 Ry
     Harris-Foulkes estimate   =    -329.48740778 Ry
     estimated scf accuracy    <          9.8E-09 Ry

     iteration # 11     ecut=    30.00 Ry     beta=0.70
     Davidson diagonalization with overlap
     ethr =  1.78E-11,  avg # of iterations =  2.0

     total cpu time spent up to now is       25.6 secs

     total energy              =    -329.48740778 Ry
     Harris-Foulkes estimate   =    -329.48740776 Ry
     estimated scf accuracy    <          4.1E-09 Ry

     iteration # 12     ecut=    30.00 Ry     beta=0.70
     Davidson diagonalization with overlap
     ethr =  7.42E-12,  avg # of iterations =  2.0

     total cpu time spent up to now is       25.7 secs

     End of self-consistent calculation

          k = 0.0000 0.0000 0.0000 ( 22119 PWs)   bands (ev):

    -8.2116  -7.6842  -7.5043  -7.2089  -7.0817  -6.6215  -6.5190  -6.5013
    -6.2146  -6.0191  -5.7385  -5.6102  -5.5454  -5.4564  -5.3565  -5.3106
    -5.2664  -5.2028  -5.1323  -5.0816  -5.0643  -4.9141  -4.4716  -4.4513
    -4.4218  -4.2639  -4.2259  -3.8006  -2.3950  -2.0871  -0.4801  -0.2443
     0.4997   0.8888

     the Fermi energy is    -3.9047 ev

!    total energy              =    -329.48740782 Ry
     Harris-Foulkes estimate   =    -329.48740778 Ry
     estimated scf accuracy    <          2.2E-10 Ry

     The total energy is the sum of the following terms:

     one-electron contribution =    -605.39842011 Ry
     hartree contribution      =     324.50433153 Ry
     xc contribution           =     -51.49414432 Ry
     ewald contribution        =       2.87309405 Ry
     smearing contrib. (-TS)   =       0.02773102 Ry

     convergence has been achieved in  12 iterations

     Forces acting on atoms (Ry/au):

     atom    1 type  1   force =    -0.00320129   -0.00181825   -0.00828252
     atom    2 type  1   force =     0.00268324    0.00140988    0.00224721
     atom    3 type  1   force =    -0.00399603    0.00413184    0.00788548
     atom    4 type  1   force =    -0.00499683   -0.00081127    0.00025040
     atom    5 type  1   force =     0.00951092   -0.00291220   -0.00210058

     Total force =     0.017907     Total SCF correction =     0.000073

     number of scf cycles    =   8
     number of bfgs steps    =   7

     energy   old            =    -329.4861926940 Ry
     energy   new            =    -329.4874078222 Ry

     CASE: energy  _new < energy  _old

     new trust radius        =       0.0735869105 bohr
     new conv_thr            =       0.0000000010 Ry


ATOMIC_POSITIONS (bohr)
Au      -2.085975421   1.666062747  -0.540856706
Au      -0.181580374   3.532602584   3.844610386
Au       2.891768511   1.327858797   0.387279182
Au       4.680324428   4.002233612   5.741350482
Au       7.463443856   1.266498260   2.599041656



     Writing output data file pwscf.save
     Check: negative starting charge=   -0.006320
     NEW-OLD atomic charge density approx. for the potential
     Check: negative starting charge=   -0.006280

     negative rho (up, down):  8.951E-04 0.000E+00

     total cpu time spent up to now is       25.9 secs

     per-process dynamical memory:    50.7 Mb

     Self-consistent Calculation

     iteration #  1     ecut=    30.00 Ry     beta=0.70
     Davidson diagonalization with overlap
     ethr =  1.00E-06,  avg # of iterations =  6.0

     negative rho (up, down):  5.507E-05 0.000E+00

     total cpu time spent up to now is       26.4 secs

     total energy              =    -329.48695995 Ry
     Harris-Foulkes estimate   =    -329.48792575 Ry
     estimated scf accuracy    <       0.00259857 Ry

     iteration #  2     ecut=    30.00 Ry     beta=0.70
     Davidson diagonalization with overlap
     ethr =  4.72E-06,  avg # of iterations =  4.0

     negative rho (up, down):  3.898E-05 0.000E+00

     total cpu time spent up to now is       26.7 secs

     total energy              =    -329.48248009 Ry
     Harris-Foulkes estimate   =    -329.49358915 Ry
     estimated scf accuracy    <       0.06373905 Ry

     iteration #  3     ecut=    30.00 Ry     beta=0.70
     Davidson diagonalization with overlap
     ethr =  4.72E-06,  avg # of iterations =  3.0

     negative rho (up, down):  2.137E-05 0.000E+00

     total cpu time spent up to now is       26.9 secs

     total energy              =    -329.48802617 Ry
     Harris-Foulkes estimate   =    -329.48904212 Ry
     estimated scf accuracy    <       0.00425398 Ry

     iteration #  4     ecut=    30.00 Ry     beta=0.70
     Davidson diagonalization with overlap
     ethr =  4.72E-06,  avg # of iterations =  1.0

     negative rho (up, down):  7.089E-07 0.000E+00

     total cpu time spent up to now is       27.1 secs

     total energy              =    -329.48836398 Ry
     Harris-Foulkes estimate   =    -329.48846749 Ry
     estimated scf accuracy    <       0.00057670 Ry

     iteration #  5     ecut=    30.00 Ry     beta=0.70
     Davidson diagonalization with overlap
     ethr =  1.05E-06,  avg # of iterations =  2.0

     total cpu time spent up to now is       27.3 secs

     total energy              =    -329.48840843 Ry
     Harris-Foulkes estimate   =    -329.48843403 Ry
     estimated scf accuracy    <       0.00011418 Ry

     iteration #  6     ecut=    30.00 Ry     beta=0.70
     Davidson diagonalization with overlap
     ethr =  2.08E-07,  avg # of iterations =  3.0

     total cpu time spent up to now is       27.5 secs

     total energy              =    -329.48843203 Ry
     Harris-Foulkes estimate   =    -329.48843570 Ry
     estimated scf accuracy    <       0.00004508 Ry

     iteration #  7     ecut=    30.00 Ry     beta=0.70
     Davidson diagonalization with overlap
     ethr =  8.20E-08,  avg # of iterations =  1.0

     total cpu time spent up to now is       27.7 secs

     total energy              =    -329.48843465 Ry
     Harris-Foulkes estimate   =    -329.48843592 Ry
     estimated scf accuracy    <       0.00000813 Ry

     iteration #  8     ecut=    30.00 Ry     beta=0.70
     Davidson diagonalization with overlap
     ethr =  1.48E-08,  avg # of iterations =  2.0

     total cpu time spent up to now is       27.9 secs

     total energy              =    -329.48843599 Ry
     Harris-Foulkes estimate   =    -329.48843610 Ry
     estimated scf accuracy    <       0.00000069 Ry

     iteration #  9     ecut=    30.00 Ry     beta=0.70
     Davidson diagonalization with overlap
     ethr =  1.26E-09,  avg # of iterations =  2.0

     total cpu time spent up to now is       28.1 secs

     total energy              =    -329.48843619 Ry
     Harris-Foulkes estimate   =    -329.48843618 Ry
     estimated scf accuracy    <       0.00000019 Ry

     iteration # 10     ecut=    30.00 Ry     beta=0.70
     Davidson diagonalization with overlap
     ethr =  3.43E-10,  avg # of iterations =  2.0

     total cpu time spent up to now is       28.3 secs

     total energy              =    -329.48843630 Ry
     Harris-Foulkes estimate   =    -329.48843622 Ry
     estimated scf accuracy    <       0.00000002 Ry

     iteration # 11     ecut=    30.00 Ry     beta=0.70
     Davidson diagonalization with overlap
     ethr =  4.34E-11,  avg # of iterations =  2.0

     total cpu time spent up to now is       28.5 secs

     total energy              =    -329.48843632 Ry
     Harris-Foulkes estimate   =    -329.48843631 Ry
     estimated scf accuracy    <          2.5E-09 Ry

     iteration # 12     ecut=    30.00 Ry     beta=0.70
     Davidson diagonalization with overlap
     ethr =  4.62E-12,  avg # of iterations =  2.0

     total cpu time spent up to now is       28.7 secs

     End of self-consistent calculation

          k = 0.0000 0.0000 0.0000 ( 22119 PWs)   bands (ev):

    -8.2373  -7.6994  -7.5029  -7.2638  -7.1160  -6.6315  -6.5154  -6.4895
    -6.2626  -6.0084  -5.7224  -5.6038  -5.5605  -5.4744  -5.3552  -5.2992
    -5.2624  -5.2021  -5.1483  -5.0935  -5.0782  -4.8733  -4.4732  -4.4653
    -4.4152  -4.2541  -4.2154  -3.7897  -2.4136  -2.0779  -0.4884  -0.2329
     0.4767   0.8954

     the Fermi energy is    -3.8910 ev

!    total energy              =    -329.48843631 Ry
     Harris-Foulkes estimate   =    -329.48843632 Ry
     estimated scf accuracy    <          3.2E-10 Ry

     The total energy is the sum of the following terms:

     one-electron contribution =    -605.74887538 Ry
     hartree contribution      =     324.66764373 Ry
     xc contribution           =     -51.49113126 Ry
     ewald contribution        =       3.05678115 Ry
     smearing contrib. (-TS)   =       0.02714545 Ry

     convergence has been achieved in  12 iterations

     Forces acting on atoms (Ry/au):

     atom    1 type  1   force =     0.00265106    0.00017731   -0.00134322
     atom    2 type  1   force =    -0.00415337    0.00251496    0.00145129
     atom    3 type  1   force =    -0.00229035    0.00122387    0.00278138
     atom    4 type  1   force =    -0.00345341   -0.00152849   -0.00023583
     atom    5 type  1   force =     0.00724607   -0.00238766   -0.00265362

     Total force =     0.011340     Total SCF correction =     0.000094

     number of scf cycles    =   9
     number of bfgs steps    =   8

     energy   old            =    -329.4874078222 Ry
     energy   new            =    -329.4884363059 Ry

     CASE: energy  _new < energy  _old

     new trust radius        =       0.0273056837 bohr
     new conv_thr            =       0.0000000007 Ry


ATOMIC_POSITIONS (bohr)
Au      -2.094701253   1.662908963  -0.559417350
Au      -0.178357698   3.535378469   3.846506007
Au       2.885137560   1.337964657   0.411763921
Au       4.673118995   3.996704156   5.737326816
Au       7.482783396   1.262299756   2.595245606



     Writing output data file pwscf.save
     Check: negative starting charge=   -0.006280
     NEW-OLD atomic charge density approx. for the potential
     Check: negative starting charge=   -0.006274

     negative rho (up, down):  1.322E-04 0.000E+00

     total cpu time spent up to now is       29.0 secs

     per-process dynamical memory:    50.7 Mb

     Self-consistent Calculation

     iteration #  1     ecut=    30.00 Ry     beta=0.70
     Davidson diagonalization with overlap
     ethr =  1.00E-06,  avg # of iterations =  4.0

     negative rho (up, down):  1.589E-06 0.000E+00

     total cpu time spent up to now is       29.3 secs

     total energy              =    -329.48843183 Ry
     Harris-Foulkes estimate   =    -329.48861573 Ry
     estimated scf accuracy    <       0.00035768 Ry

     iteration #  2     ecut=    30.00 Ry     beta=0.70
     Davidson diagonalization with overlap
     ethr =  6.50E-07,  avg # of iterations =  3.0

     negative rho (up, down):  7.630E-07 0.000E+00

     total cpu time spent up to now is       29.6 secs

     total energy              =    -329.48800582 Ry
     Harris-Foulkes estimate   =    -329.48924726 Ry
     estimated scf accuracy    <       0.00604789 Ry

     iteration #  3     ecut=    30.00 Ry     beta=0.70
     Davidson diagonalization with overlap
     ethr =  6.50E-07,  avg # of iterations =  3.0

     negative rho (up, down):  1.103E-07 0.000E+00

     total cpu time spent up to now is       29.8 secs

     total energy              =    -329.48858690 Ry
     Harris-Foulkes estimate   =    -329.48864797 Ry
     estimated scf accuracy    <       0.00021205 Ry

     iteration #  4     ecut=    30.00 Ry     beta=0.70
     Davidson diagonalization with overlap
     ethr =  3.86E-07,  avg # of iterations =  2.0

     total cpu time spent up to now is       30.0 secs

     total energy              =    -329.48860400 Ry
     Harris-Foulkes estimate   =    -329.48865557 Ry
     estimated scf accuracy    <       0.00032896 Ry

     iteration #  5     ecut=    30.00 Ry     beta=0.70
     Davidson diagonalization with overlap
     ethr =  3.86E-07,  avg # of iterations =  1.0

     total cpu time spent up to now is       30.2 secs

     total energy              =    -329.48863254 Ry
     Harris-Foulkes estimate   =    -329.48863284 Ry
     estimated scf accuracy    <       0.00000428 Ry

     iteration #  6     ecut=    30.00 Ry     beta=0.70
     Davidson diagonalization with overlap
     ethr =  7.77E-09,  avg # of iterations =  3.0

     total cpu time spent up to now is       30.4 secs

     total energy              =    -329.48863404 Ry
     Harris-Foulkes estimate   =    -329.48863421 Ry
     estimated scf accuracy    <       0.00000129 Ry

     iteration #  7     ecut=    30.00 Ry     beta=0.70
     Davidson diagonalization with overlap
     ethr =  2.34E-09,  avg # of iterations =  2.0

     total cpu time spent up to now is       30.6 secs

     total energy              =    -329.48863441 Ry
     Harris-Foulkes estimate   =    -329.48863430 Ry
     estimated scf accuracy    <       0.00000026 Ry

     iteration #  8     ecut=    30.00 Ry     beta=0.70
     Davidson diagonalization with overlap
     ethr =  4.64E-10,  avg # of iterations =  2.0

     total cpu time spent up to now is       30.8 secs

     total energy              =    -329.48863447 Ry
     Harris-Foulkes estimate   =    -329.48863443 Ry
     estimated scf accuracy    <       0.00000005 Ry

     iteration #  9     ecut=    30.00 Ry     beta=0.70
     Davidson diagonalization with overlap
     ethr =  9.90E-11,  avg # of iterations =  2.0

     total cpu time spent up to now is       31.0 secs

     total energy              =    -329.48863448 Ry
     Harris-Foulkes estimate   =    -329.48863448 Ry
     estimated scf accuracy    <          6.8E-09 Ry

     iteration # 10     ecut=    30.00 Ry     beta=0.70
     Davidson diagonalization with overlap
     ethr =  1.24E-11,  avg # of iterations =  2.0

     total cpu time spent up to now is       31.3 secs

     total energy              =    -329.48863451 Ry
     Harris-Foulkes estimate   =    -329.48863448 Ry
     estimated scf accuracy    <          7.8E-10 Ry

     iteration # 11     ecut=    30.00 Ry     beta=0.70
     Davidson diagonalization with overlap
     ethr =  1.42E-12,  avg # of iterations =  2.0

     total cpu time spent up to now is       31.5 secs

     End of self-consistent calculation

          k = 0.0000 0.0000 0.0000 ( 22119 PWs)   bands (ev):

    -8.2413  -7.6944  -7.5009  -7.2734  -7.1251  -6.6289  -6.5155  -6.4693
    -6.2739  -6.0008  -5.7171  -5.6058  -5.5574  -5.4796  -5.3581  -5.2957
    -5.2617  -5.2017  -5.1496  -5.0986  -5.0842  -4.8554  -4.4793  -4.4660
    -4.4145  -4.2557  -4.2136  -3.7893  -2.4192  -2.0788  -0.4904  -0.2290
     0.4705   0.8985

     the Fermi energy is    -3.8901 ev

!    total energy              =    -329.48863451 Ry
     Harris-Foulkes estimate   =    -329.48863451 Ry
     estimated scf accuracy    <          1.4E-10 Ry

     The total energy is the sum of the following terms:

     one-electron contribution =    -605.53071310 Ry
     hartree contribution      =     324.55740632 Ry
     xc contribution           =     -51.48891248 Ry
     ewald contribution        =       2.94651318 Ry
     smearing contrib. (-TS)   =       0.02707157 Ry

     convergence has been achieved in  11 iterations

     Forces acting on atoms (Ry/au):

     atom    1 type  1   force =     0.00467978    0.00102089    0.00140356
     atom    2 type  1   force =    -0.00681073    0.00280640    0.00071319
     atom    3 type  1   force =    -0.00074039    0.00018691    0.00183635
     atom    4 type  1   force =    -0.00181737   -0.00254196   -0.00149275
     atom    5 type  1   force =     0.00468872   -0.00147224   -0.00246035

     Total force =     0.011218     Total SCF correction =     0.000042

     number of scf cycles    =  10
     number of bfgs steps    =   9

     energy   old            =    -329.4884363059 Ry
     energy   new            =    -329.4886345066 Ry

     CASE: energy  _new < energy  _old

     new trust radius        =       0.0257827130 bohr
     new conv_thr            =       0.0000000002 Ry


ATOMIC_POSITIONS (bohr)
Au      -2.095427066   1.662126631  -0.571940541
Au      -0.185435570   3.540748607   3.847597497
Au       2.879307722   1.346586590   0.435352553
Au       4.666446642   3.987904943   5.730884743
Au       7.503089272   1.257889229   2.589530748



     Writing output data file pwscf.save
     Check: negative starting charge=   -0.006274
     NEW-OLD atomic charge density approx. for the potential
     Check: negative starting charge=   -0.006273

     negative rho (up, down):  1.117E-04 0.000E+00

     total cpu time spent up to now is       31.7 secs

     per-process dynamical memory:    50.7 Mb

     Self-consistent Calculation

     iteration #  1     ecut=    30.00 Ry     beta=0.70
     Davidson diagonalization with overlap
     ethr =  1.00E-06,  avg # of iterations =  4.0

     negative rho (up, down):  1.113E-06 0.000E+00

     total cpu time spent up to now is       32.0 secs

     total energy              =    -329.48874670 Ry
     Harris-Foulkes estimate   =    -329.48882332 Ry
     estimated scf accuracy    <       0.00020046 Ry

     iteration #  2     ecut=    30.00 Ry     beta=0.70
     Davidson diagonalization with overlap
     ethr =  3.64E-07,  avg # of iterations =  3.0

     negative rho (up, down):  4.509E-07 0.000E+00

     total cpu time spent up to now is       32.3 secs

     total energy              =    -329.48855943 Ry
     Harris-Foulkes estimate   =    -329.48911050 Ry
     estimated scf accuracy    <       0.00239720 Ry

     iteration #  3     ecut=    30.00 Ry     beta=0.70
     Davidson diagonalization with overlap
     ethr =  3.64E-07,  avg # of iterations =  3.0

     total cpu time spent up to now is       32.5 secs

     total energy              =    -329.48883587 Ry
     Harris-Foulkes estimate   =    -329.48885329 Ry
     estimated scf accuracy    <       0.00007103 Ry

     iteration #  4     ecut=    30.00 Ry     beta=0.70
     Davidson diagonalization with overlap
     ethr =  1.29E-07,  avg # of iterations =  2.0

     total cpu time spent up to now is       32.7 secs

     total energy              =    -329.48883651 Ry
     Harris-Foulkes estimate   =    -329.48885705 Ry
     estimated scf accuracy    <       0.00011912 Ry

     iteration #  5     ecut=    30.00 Ry     beta=0.70
     Davidson diagonalization with overlap
     ethr =  1.29E-07,  avg # of iterations =  1.0

     total cpu time spent up to now is       32.9 secs

     total energy              =    -329.48884978 Ry
     Harris-Foulkes estimate   =    -329.48885070 Ry
     estimated scf accuracy    <       0.00001139 Ry

     iteration #  6     ecut=    30.00 Ry     beta=0.70
     Davidson diagonalization with overlap
     ethr =  2.07E-08,  avg # of iterations =  2.0

     total cpu time spent up to now is       33.1 secs

     total energy              =    -329.48885124 Ry
     Harris-Foulkes estimate   =    -329.48885146 Ry
     estimated scf accuracy    <       0.00000117 Ry

     iteration #  7     ecut=    30.00 Ry     beta=0.70
     Davidson diagonalization with overlap
     ethr =  2.13E-09,  avg # of iterations =  2.0

     total cpu time spent up to now is       33.3 secs

     total energy              =    -329.48885160 Ry
     Harris-Foulkes estimate   =    -329.48885153 Ry
[...]
     xc contribution           =     -51.38814627 Ry
     ewald contribution        =       3.10985933 Ry
     smearing contrib. (-TS)   =      -0.00638484 Ry

     convergence has been achieved in   8 iterations

     Forces acting on atoms (Ry/au):

     atom    1 type  1   force =     0.00231156    0.00019824    0.00132464
     atom    2 type  1   force =    -0.00030124    0.00724385    0.01161910
     atom    3 type  1   force =     0.01945447   -0.00565244   -0.00121739
     atom    4 type  1   force =    -0.01127116   -0.00082437   -0.00621586
     atom    5 type  1   force =    -0.01019362   -0.00096527   -0.00551048

     Total force =     0.030136     Total SCF correction =     0.000114

     number of scf cycles    =  47
     number of bfgs steps    =  15

     energy   old            =    -329.4917833612 Ry
     energy   new            =    -329.4879926242 Ry

     CASE: energy  _new > energy  _old

     new trust radius        =       0.0016473719 bohr
     new conv_thr            =       0.0000000014 Ry


ATOMIC_POSITIONS (bohr)
Au      -2.026953470   1.676841132  -0.638530350
Au      -0.360772810   3.631460499   3.874204519
Au       2.864381680   1.410353057   0.653963143
Au       4.597494359   3.862021697   5.625918894
Au       7.693831241   1.214579615   2.515868794



     Writing output data file pwscf.save
     Check: negative starting charge=   -0.006409
     NEW-OLD atomic charge density approx. for the potential
     Check: negative starting charge=   -0.006409

     negative rho (up, down):  4.378E-05 0.000E+00

     total cpu time spent up to now is      116.0 secs

     per-process dynamical memory:    50.7 Mb

     Self-consistent Calculation

     iteration #  1     ecut=    30.00 Ry     beta=0.70
     Davidson diagonalization with overlap
     ethr =  1.00E-06,  avg # of iterations =  4.0

     negative rho (up, down):  1.590E-07 0.000E+00

     total cpu time spent up to now is      116.4 secs

     total energy              =    -329.48733040 Ry
     Harris-Foulkes estimate   =    -329.48734892 Ry
     estimated scf accuracy    <       0.00006919 Ry

     iteration #  2     ecut=    30.00 Ry     beta=0.70
     Davidson diagonalization with overlap
     ethr =  1.26E-07,  avg # of iterations =  3.0

     negative rho (up, down):  3.220E-08 0.000E+00

     total cpu time spent up to now is      116.6 secs

     total energy              =    -329.48731263 Ry
     Harris-Foulkes estimate   =    -329.48741081 Ry
     estimated scf accuracy    <       0.00027612 Ry

     iteration #  3     ecut=    30.00 Ry     beta=0.70
     Davidson diagonalization with overlap
     ethr =  1.26E-07,  avg # of iterations =  3.0

     total cpu time spent up to now is      116.8 secs

     total energy              =    -329.48736243 Ry
     Harris-Foulkes estimate   =    -329.48736510 Ry
     estimated scf accuracy    <       0.00001180 Ry

     iteration #  4     ecut=    30.00 Ry     beta=0.70
     Davidson diagonalization with overlap
     ethr =  2.14E-08,  avg # of iterations =  2.0

     total cpu time spent up to now is      117.0 secs

     total energy              =    -329.48736471 Ry
     Harris-Foulkes estimate   =    -329.48736555 Ry
     estimated scf accuracy    <       0.00000263 Ry

     iteration #  5     ecut=    30.00 Ry     beta=0.70
     Davidson diagonalization with overlap
     ethr =  4.77E-09,  avg # of iterations =  2.0

     total cpu time spent up to now is      117.2 secs

     total energy              =    -329.48736513 Ry
     Harris-Foulkes estimate   =    -329.48736550 Ry
     estimated scf accuracy    <       0.00000064 Ry

     iteration #  6     ecut=    30.00 Ry     beta=0.70
     Davidson diagonalization with overlap
     ethr =  1.17E-09,  avg # of iterations =  2.0

     total cpu time spent up to now is      117.4 secs

     total energy              =    -329.48736529 Ry
     Harris-Foulkes estimate   =    -329.48736528 Ry
     estimated scf accuracy    <       0.00000004 Ry

     iteration #  7     ecut=    30.00 Ry     beta=0.70
     Davidson diagonalization with overlap
     ethr =  7.11E-11,  avg # of iterations =  3.0

     total cpu time spent up to now is      117.7 secs

     total energy              =    -329.48736528 Ry
     Harris-Foulkes estimate   =    -329.48736530 Ry
     estimated scf accuracy    <          8.7E-09 Ry

     iteration #  8     ecut=    30.00 Ry     beta=0.70
     Davidson diagonalization with overlap
     ethr =  1.59E-11,  avg # of iterations =  3.0

     total cpu time spent up to now is      117.9 secs

     End of self-consistent calculation

          k = 0.0000 0.0000 0.0000 ( 22119 PWs)   bands (ev):

    -8.4837  -7.7412  -7.6230  -7.2460  -6.9872  -6.8097  -6.5103  -6.4939
    -6.2836  -6.0370  -5.9690  -5.7541  -5.7088  -5.6576  -5.4307  -5.3950
    -5.3239  -5.2195  -5.2138  -5.2048  -5.1730  -5.1263  -5.0297  -4.9691
    -4.9483  -4.5920  -4.5861  -3.7356  -2.5631  -2.2068  -0.5423  -0.1740
     0.4251   0.8228

     the Fermi energy is    -3.6944 ev

!    total energy              =    -329.48736530 Ry
     Harris-Foulkes estimate   =    -329.48736528 Ry
     estimated scf accuracy    <          1.1E-09 Ry

     The total energy is the sum of the following terms:

     one-electron contribution =    -604.79701651 Ry
     hartree contribution      =     323.82185594 Ry
     xc contribution           =     -51.38677438 Ry
     ewald contribution        =       2.88094392 Ry
     smearing contrib. (-TS)   =      -0.00637427 Ry

     convergence has been achieved in   8 iterations

     Forces acting on atoms (Ry/au):

     atom    1 type  1   force =     0.00174251    0.00042088    0.00146601
     atom    2 type  1   force =    -0.00221111    0.00837036    0.01270945
     atom    3 type  1   force =     0.02343814   -0.00681207   -0.00164169
     atom    4 type  1   force =    -0.00979387   -0.00222644   -0.00779147
     atom    5 type  1   force =    -0.01317567    0.00024727   -0.00474230

     Total force =     0.034612     Total SCF correction =     0.000117

     number of scf cycles    =  48
     number of bfgs steps    =  15

     energy   old            =    -329.4917833612 Ry
     energy   new            =    -329.4873652952 Ry

     CASE: energy  _new > energy  _old

     new trust radius        =       0.0000178510 bohr

     trust_radius < trust_radius_min

     resetting bfgs history

     new conv_thr            =       0.0000000014 Ry


ATOMIC_POSITIONS (bohr)
Au      -2.021141601   1.679330750  -0.632554666
Au      -0.372555716   3.636241828   3.878418672
Au       2.878418131   1.406400735   0.653417069
Au       4.599328054   3.855395989   5.613741171
Au       7.683932132   1.217886699   2.518402754



     Writing output data file pwscf.save
     Check: negative starting charge=   -0.006409
     NEW-OLD atomic charge density approx. for the potential
     Check: negative starting charge=   -0.006409

     negative rho (up, down):  4.321E-05 0.000E+00

     total cpu time spent up to now is      118.1 secs

     per-process dynamical memory:    50.7 Mb

     Self-consistent Calculation

     iteration #  1     ecut=    30.00 Ry     beta=0.70
     Davidson diagonalization with overlap
     ethr =  1.00E-06,  avg # of iterations =  4.0

     negative rho (up, down):  1.512E-07 0.000E+00

     total cpu time spent up to now is      118.5 secs

     total energy              =    -329.48795896 Ry
     Harris-Foulkes estimate   =    -329.48797942 Ry
     estimated scf accuracy    <       0.00006917 Ry

     iteration #  2     ecut=    30.00 Ry     beta=0.70
     Davidson diagonalization with overlap
     ethr =  1.26E-07,  avg # of iterations =  3.0

     negative rho (up, down):  2.590E-08 0.000E+00

     total cpu time spent up to now is      118.7 secs

     total energy              =    -329.48794127 Ry
     Harris-Foulkes estimate   =    -329.48803864 Ry
     estimated scf accuracy    <       0.00027175 Ry

     iteration #  3     ecut=    30.00 Ry     beta=0.70
     Davidson diagonalization with overlap
     ethr =  1.26E-07,  avg # of iterations =  3.0

     total cpu time spent up to now is      119.0 secs

     total energy              =    -329.48798922 Ry
     Harris-Foulkes estimate   =    -329.48799321 Ry
     estimated scf accuracy    <       0.00001199 Ry

     iteration #  4     ecut=    30.00 Ry     beta=0.70
     Davidson diagonalization with overlap
     ethr =  2.18E-08,  avg # of iterations =  2.0

     total cpu time spent up to now is      119.2 secs

     total energy              =    -329.48799194 Ry
     Harris-Foulkes estimate   =    -329.48799240 Ry
     estimated scf accuracy    <       0.00000260 Ry

     iteration #  5     ecut=    30.00 Ry     beta=0.70
     Davidson diagonalization with overlap
     ethr =  4.72E-09,  avg # of iterations =  2.0

     total cpu time spent up to now is      119.4 secs

     total energy              =    -329.48799247 Ry
     Harris-Foulkes estimate   =    -329.48799270 Ry
     estimated scf accuracy    <       0.00000061 Ry

     iteration #  6     ecut=    30.00 Ry     beta=0.70
     Davidson diagonalization with overlap
     ethr =  1.10E-09,  avg # of iterations =  2.0

     total cpu time spent up to now is      119.6 secs

     total energy              =    -329.48799261 Ry
     Harris-Foulkes estimate   =    -329.48799262 Ry
     estimated scf accuracy    <       0.00000004 Ry

     iteration #  7     ecut=    30.00 Ry     beta=0.70
     Davidson diagonalization with overlap
     ethr =  7.04E-11,  avg # of iterations =  3.0

     total cpu time spent up to now is      119.8 secs

     total energy              =    -329.48799262 Ry
     Harris-Foulkes estimate   =    -329.48799263 Ry
     estimated scf accuracy    <          9.5E-09 Ry

     iteration #  8     ecut=    30.00 Ry     beta=0.70
     Davidson diagonalization with overlap
     ethr =  1.73E-11,  avg # of iterations =  3.0

     total cpu time spent up to now is      120.0 secs

     End of self-consistent calculation

          k = 0.0000 0.0000 0.0000 ( 22119 PWs)   bands (ev):

    -8.4805  -7.7552  -7.6125  -7.2501  -6.9884  -6.8045  -6.5302  -6.5011
    -6.2862  -6.0418  -5.9813  -5.7509  -5.7121  -5.6580  -5.4340  -5.3935
    -5.3231  -5.2203  -5.2136  -5.2024  -5.1741  -5.1278  -5.0283  -4.9663
    -4.9457  -4.5970  -4.5782  -3.7333  -2.5599  -2.2046  -0.5430  -0.1743
     0.4286   0.8221

     the Fermi energy is    -3.6920 ev

!    total energy              =    -329.48799262 Ry
     Harris-Foulkes estimate   =    -329.48799262 Ry
     estimated scf accuracy    <          1.2E-09 Ry

     The total energy is the sum of the following terms:

     one-electron contribution =    -605.25000299 Ry
     hartree contribution      =     324.04668214 Ry
     xc contribution           =     -51.38814627 Ry
     ewald contribution        =       3.10985933 Ry
     smearing contrib. (-TS)   =      -0.00638484 Ry

     convergence has been achieved in   8 iterations

     Forces acting on atoms (Ry/au):

     atom    1 type  1   force =     0.00231156    0.00019824    0.00132464
     atom    2 type  1   force =    -0.00030124    0.00724385    0.01161910
     atom    3 type  1   force =     0.01945447   -0.00565244   -0.00121739
     atom    4 type  1   force =    -0.01127116   -0.00082437   -0.00621586
     atom    5 type  1   force =    -0.01019362   -0.00096527   -0.00551048

     Total force =     0.030136     Total SCF correction =     0.000114

     number of scf cycles    =  49
     number of bfgs steps    =  15

     energy   old            =    -329.4917833612 Ry
     energy   new            =    -329.4879926242 Ry

     CASE: energy  _new > energy  _old

     new trust radius        =       0.0016473719 bohr
     new conv_thr            =       0.0000000014 Ry


ATOMIC_POSITIONS (bohr)
Au      -2.026953470   1.676841132  -0.638530350
Au      -0.360772810   3.631460499   3.874204519
Au       2.864381680   1.410353057   0.653963143
Au       4.597494359   3.862021697   5.625918894
Au       7.693831241   1.214579615   2.515868794



     Writing output data file pwscf.save
     Check: negative starting charge=   -0.006409
     NEW-OLD atomic charge density approx. for the potential
     Check: negative starting charge=   -0.006409

     negative rho (up, down):  4.378E-05 0.000E+00

     total cpu time spent up to now is      120.2 secs

     per-process dynamical memory:    50.7 Mb

     Self-consistent Calculation

     iteration #  1     ecut=    30.00 Ry     beta=0.70
     Davidson diagonalization with overlap
     ethr =  1.00E-06,  avg # of iterations =  4.0

     negative rho (up, down):  1.590E-07 0.000E+00

     total cpu time spent up to now is      120.8 secs

     total energy              =    -329.48733040 Ry
     Harris-Foulkes estimate   =    -329.48734892 Ry
     estimated scf accuracy    <       0.00006919 Ry

     iteration #  2     ecut=    30.00 Ry     beta=0.70
     Davidson diagonalization with overlap
     ethr =  1.26E-07,  avg # of iterations =  3.0

     negative rho (up, down):  3.220E-08 0.000E+00

     total cpu time spent up to now is      121.1 secs

     total energy              =    -329.48731263 Ry
     Harris-Foulkes estimate   =    -329.48741081 Ry
     estimated scf accuracy    <       0.00027612 Ry

     iteration #  3     ecut=    30.00 Ry     beta=0.70
     Davidson diagonalization with overlap
     ethr =  1.26E-07,  avg # of iterations =  3.0

     total cpu time spent up to now is      121.3 secs

     total energy              =    -329.48736243 Ry
     Harris-Foulkes estimate   =    -329.48736510 Ry
     estimated scf accuracy    <       0.00001180 Ry

     iteration #  4     ecut=    30.00 Ry     beta=0.70
     Davidson diagonalization with overlap
     ethr =  2.14E-08,  avg # of iterations =  2.0

     total cpu time spent up to now is      121.5 secs

     total energy              =    -329.48736471 Ry
     Harris-Foulkes estimate   =    -329.48736555 Ry
     estimated scf accuracy    <       0.00000263 Ry

     iteration #  5     ecut=    30.00 Ry     beta=0.70
     Davidson diagonalization with overlap
     ethr =  4.77E-09,  avg # of iterations =  2.0

     total cpu time spent up to now is      121.7 secs

     total energy              =    -329.48736513 Ry
     Harris-Foulkes estimate   =    -329.48736550 Ry
     estimated scf accuracy    <       0.00000064 Ry

     iteration #  6     ecut=    30.00 Ry     beta=0.70
     Davidson diagonalization with overlap
     ethr =  1.17E-09,  avg # of iterations =  2.0

     total cpu time spent up to now is      121.9 secs

     total energy              =    -329.48736529 Ry
     Harris-Foulkes estimate   =    -329.48736528 Ry
     estimated scf accuracy    <       0.00000004 Ry

     iteration #  7     ecut=    30.00 Ry     beta=0.70
     Davidson diagonalization with overlap
     ethr =  7.11E-11,  avg # of iterations =  3.0

     total cpu time spent up to now is      122.1 secs

     total energy              =    -329.48736528 Ry
     Harris-Foulkes estimate   =    -329.48736530 Ry
     estimated scf accuracy    <          8.7E-09 Ry

     iteration #  8     ecut=    30.00 Ry     beta=0.70
     Davidson diagonalization with overlap
     ethr =  1.59E-11,  avg # of iterations =  3.0

     total cpu time spent up to now is      122.4 secs

     End of self-consistent calculation

          k = 0.0000 0.0000 0.0000 ( 22119 PWs)   bands (ev):

    -8.4837  -7.7412  -7.6230  -7.2460  -6.9872  -6.8097  -6.5103  -6.4939
    -6.2836  -6.0370  -5.9690  -5.7541  -5.7088  -5.6576  -5.4307  -5.3950
    -5.3239  -5.2195  -5.2138  -5.2048  -5.1730  -5.1263  -5.0297  -4.9691
    -4.9483  -4.5920  -4.5861  -3.7356  -2.5631  -2.2068  -0.5423  -0.1740
     0.4251   0.8228

     the Fermi energy is    -3.6944 ev

!    total energy              =    -329.48736530 Ry
     Harris-Foulkes estimate   =    -329.48736528 Ry
     estimated scf accuracy    <          1.1E-09 Ry

     The total energy is the sum of the following terms:

     one-electron contribution =    -604.79701651 Ry
     hartree contribution      =     323.82185594 Ry
     xc contribution           =     -51.38677438 Ry
     ewald contribution        =       2.88094392 Ry
     smearing contrib. (-TS)   =      -0.00637427 Ry

     convergence has been achieved in   8 iterations

     Forces acting on atoms (Ry/au):

     atom    1 type  1   force =     0.00174251    0.00042088    0.00146601
     atom    2 type  1   force =    -0.00221111    0.00837036    0.01270945
     atom    3 type  1   force =     0.02343814   -0.00681207   -0.00164169
     atom    4 type  1   force =    -0.00979387   -0.00222644   -0.00779147
     atom    5 type  1   force =    -0.01317567    0.00024727   -0.00474230

     Total force =     0.034612     Total SCF correction =     0.000117

     number of scf cycles    =  50
     number of bfgs steps    =  15

     energy   old            =    -329.4917833612 Ry
     energy   new            =    -329.4873652952 Ry

     CASE: energy  _new > energy  _old

     new trust radius        =       0.0000178510 bohr

     trust_radius < trust_radius_min

     resetting bfgs history

     new conv_thr            =       0.0000000014 Ry


ATOMIC_POSITIONS (bohr)
Au      -2.021141601   1.679330750  -0.632554666
Au      -0.372555716   3.636241828   3.878418672
Au       2.878418131   1.406400735   0.653417069
Au       4.599328054   3.855395989   5.613741171
Au       7.683932132   1.217886699   2.518402754



     Writing output data file pwscf.save
     Check: negative starting charge=   -0.006409
     NEW-OLD atomic charge density approx. for the potential
     Check: negative starting charge=   -0.006409

     negative rho (up, down):  4.321E-05 0.000E+00

     Writing output data file pwscf.save
 
     init_run     :      0.16s CPU      0.18s WALL (       1 calls)
     electrons    :    105.98s CPU    113.47s WALL (      50 calls)
     update_pot   :      3.34s CPU      4.01s WALL (      50 calls)
     forces       :      2.05s CPU      2.09s WALL (      50 calls)

     Called by init_run:
     wfcinit      :      0.07s CPU      0.08s WALL (       1 calls)
     potinit      :      0.03s CPU      0.03s WALL (       1 calls)

     Called by electrons:
     c_bands      :     80.75s CPU     81.70s WALL (     476 calls)
     sum_band     :     11.16s CPU     11.44s WALL (     476 calls)
     v_of_rho     :      9.55s CPU      9.70s WALL (     526 calls)
     mix_rho      :      3.76s CPU      8.11s WALL (     476 calls)

     Called by c_bands:
     init_us_2    :      1.47s CPU      1.55s WALL (     953 calls)
     cegterg      :     72.08s CPU     72.67s WALL (     476 calls)

     Called by sum_band:

     Called by *egterg:
     h_psi        :     55.34s CPU     55.75s WALL (    1817 calls)
     g_psi        :      0.55s CPU      0.55s WALL (    1340 calls)
     cdiaghg      :      4.28s CPU      4.29s WALL (    1766 calls)

     Called by h_psi:
     h_psi:pot    :     54.49s CPU     54.88s WALL (    1817 calls)
     h_psi:calbec :      3.11s CPU      3.12s WALL (    1817 calls)
     vloc_psi     :     47.91s CPU     48.28s WALL (    1817 calls)
     add_vuspsi   :      3.47s CPU      3.48s WALL (    1817 calls)

     General routines
     calbec       :      3.71s CPU      3.74s WALL (    2017 calls)
     fft          :      5.29s CPU      5.44s WALL (    5888 calls)
     fftw         :     50.28s CPU     51.05s WALL (  106600 calls)
     davcio       :      0.60s CPU      4.10s WALL (    4916 calls)
 
     Parallel routines
     fft_scatter  :     13.06s CPU     12.63s WALL (  112488 calls)
 
     PWSCF        :  1m52.88s CPU     2m 2.65s WALL

 
   This run was terminated on:   0:18:59   4Aug2017            

=------------------------------------------------------------------------------=
   JOB DONE.
=------------------------------------------------------------------------------=
