
     Program PWSCF v.6.0 (svn rev. 13079) starts on  4Aug2017 at  0: 3:25 

     This program is part of the open-source Quantum ESPRESSO suite
     for quantum simulation of materials; please cite
         "P. Giannozzi et al., J. Phys.:Condens. Matter 21 395502 (2009);
          URL http://www.quantum-espresso.org", 
     in publications or presentations arising from this work. More details at
     http://www.quantum-espresso.org/quote

     Parallel version (MPI), running on    10 processors
     R & G space division:  proc/nbgrp/npool/nimage =      10
     Reading input from input/multi/minchecks-Gold5-582.in

     Current dimensions of program PWSCF are:
     Max number of different atomic species (ntypx) = 10
     Max number of k-points (npk) =  40000
     Max angular momentum in pseudopotentials (lmaxx) =  3
     Message from routine iosys:
     pot_extrapolation='second-order' not available, using 'atomic'
     Message from routine iosys:
     wfc_extrapolation='second-order' not available, using 'atomic'

     Subspace diagonalization in iterative solution of the eigenvalue problem:
     a serial algorithm will be used

 
     Parallelization info
     --------------------
     sticks:   dense  smooth     PW     G-vecs:    dense   smooth      PW
     Min         380     380     94                17748    17748    2208
     Max         381     381     95                17753    17753    2213
     Sum        3809    3809    949               177509   177509   22119
 


     bravais-lattice index     =            1
     lattice parameter (alat)  =      20.0000  a.u.
     unit-cell volume          =    8000.0000 (a.u.)^3
     number of atoms/cell      =            5
     number of atomic types    =            1
     number of electrons       =        55.00
     number of Kohn-Sham states=           34
     kinetic-energy cutoff     =      30.0000  Ry
     charge density cutoff     =     120.0000  Ry
     convergence threshold     =      1.0E-08
     mixing beta               =       0.7000
     number of iterations used =            8  plain     mixing
     Exchange-correlation      = BLYP ( 1  3  1  3 0 0)
     nstep                     =           50


     celldm(1)=  20.000000  celldm(2)=   0.000000  celldm(3)=   0.000000
     celldm(4)=   0.000000  celldm(5)=   0.000000  celldm(6)=   0.000000

     crystal axes: (cart. coord. in units of alat)
               a(1) = (   1.000000   0.000000   0.000000 )  
               a(2) = (   0.000000   1.000000   0.000000 )  
               a(3) = (   0.000000   0.000000   1.000000 )  

     reciprocal axes: (cart. coord. in units 2 pi/alat)
               b(1) = (  1.000000  0.000000  0.000000 )  
               b(2) = (  0.000000  1.000000  0.000000 )  
               b(3) = (  0.000000  0.000000  1.000000 )  


     PseudoPot. # 1 for Au read from file:
     ./Au.blyp-d-hgh.UPF
     MD5 check sum: c10d8bae01f806c36a1643a1c69a8479
     Pseudo is Norm-conserving, Zval = 11.0
     Generated in analytical, separable form
     Using radial grid of 1279 points,  6 beta functions with: 
                l(1) =   0
                l(2) =   0
                l(3) =   1
                l(4) =   1
                l(5) =   2
                l(6) =   2

     atomic species   valence    mass     pseudopotential
        Au            11.00    28.08600     Au( 1.00)

     No symmetry found



   Cartesian axes

     site n.     atom                  positions (alat units)
         1           Au  tau(   1) = (  -0.1205977   0.1564926  -0.0165305  )
         2           Au  tau(   2) = (  -0.0192917   0.2252206   0.2078548  )
         3           Au  tau(   3) = (   0.1462749   0.1009696   0.0141441  )
         4           Au  tau(   4) = (   0.2279548   0.2122790   0.2709042  )
         5           Au  tau(   5) = (   0.3731760   0.0609650   0.1327009  )

     number of k points=     1  Marzari-Vanderbilt smearing, width (Ry)=  0.0250
                       cart. coord. in units 2pi/alat
        k(    1) = (   0.0000000   0.0000000   0.0000000), wk =   2.0000000

     Dense  grid:   177509 G-vectors     FFT dimensions: (  72,  72,  72)

     Estimated max dynamical RAM per process >      15.04Mb

     Estimated total allocated dynamical RAM >     150.39Mb

     Initial potential from superposition of free atoms
     Check: negative starting charge=   -0.006304

     starting charge   54.99940, renormalised to   55.00000

     negative rho (up, down):  6.304E-03 0.000E+00
     Starting wfc are   45 randomized atomic wfcs

     total cpu time spent up to now is        0.3 secs

     per-process dynamical memory:    41.0 Mb

     Self-consistent Calculation

     iteration #  1     ecut=    30.00 Ry     beta=0.70
     Davidson diagonalization with overlap
     ethr =  1.00E-02,  avg # of iterations =  3.0

     Threshold (ethr) on eigenvalues was too large:
     Diagonalizing with lowered threshold

     Davidson diagonalization with overlap
     ethr =  4.02E-04,  avg # of iterations =  7.0

     negative rho (up, down):  8.465E-04 0.000E+00

     total cpu time spent up to now is        0.8 secs

     total energy              =    -329.36286176 Ry
     Harris-Foulkes estimate   =    -329.53040192 Ry
     estimated scf accuracy    <       0.27692002 Ry

     iteration #  2     ecut=    30.00 Ry     beta=0.70
     Davidson diagonalization with overlap
     ethr =  5.03E-04,  avg # of iterations =  4.0

     negative rho (up, down):  4.022E-04 0.000E+00

     total cpu time spent up to now is        1.0 secs

     total energy              =    -329.38734694 Ry
     Harris-Foulkes estimate   =    -329.56303641 Ry
     estimated scf accuracy    <       0.37454025 Ry

     iteration #  3     ecut=    30.00 Ry     beta=0.70
     Davidson diagonalization with overlap
     ethr =  5.03E-04,  avg # of iterations =  2.0

     negative rho (up, down):  1.469E-04 0.000E+00

     total cpu time spent up to now is        1.3 secs

     total energy              =    -329.46136746 Ry
     Harris-Foulkes estimate   =    -329.49115280 Ry
     estimated scf accuracy    <       0.07825615 Ry

     iteration #  4     ecut=    30.00 Ry     beta=0.70
     Davidson diagonalization with overlap
     ethr =  1.42E-04,  avg # of iterations =  2.0

     negative rho (up, down):  1.389E-05 0.000E+00

     total cpu time spent up to now is        1.5 secs

     total energy              =    -329.47522157 Ry
     Harris-Foulkes estimate   =    -329.47705591 Ry
     estimated scf accuracy    <       0.00445495 Ry

     iteration #  5     ecut=    30.00 Ry     beta=0.70
     Davidson diagonalization with overlap
     ethr =  8.10E-06,  avg # of iterations =  5.0

     total cpu time spent up to now is        1.7 secs

     total energy              =    -329.47621960 Ry
     Harris-Foulkes estimate   =    -329.47722328 Ry
     estimated scf accuracy    <       0.00276433 Ry

     iteration #  6     ecut=    30.00 Ry     beta=0.70
     Davidson diagonalization with overlap
     ethr =  5.03E-06,  avg # of iterations =  2.0

     total cpu time spent up to now is        1.9 secs

     total energy              =    -329.47665643 Ry
     Harris-Foulkes estimate   =    -329.47685191 Ry
     estimated scf accuracy    <       0.00046748 Ry

     iteration #  7     ecut=    30.00 Ry     beta=0.70
     Davidson diagonalization with overlap
     ethr =  8.50E-07,  avg # of iterations =  2.0

     total cpu time spent up to now is        2.2 secs

     total energy              =    -329.47674956 Ry
     Harris-Foulkes estimate   =    -329.47676821 Ry
     estimated scf accuracy    <       0.00004454 Ry

     iteration #  8     ecut=    30.00 Ry     beta=0.70
     Davidson diagonalization with overlap
     ethr =  8.10E-08,  avg # of iterations =  2.0

     total cpu time spent up to now is        2.4 secs

     total energy              =    -329.47675903 Ry
     Harris-Foulkes estimate   =    -329.47676490 Ry
     estimated scf accuracy    <       0.00001302 Ry

     iteration #  9     ecut=    30.00 Ry     beta=0.70
     Davidson diagonalization with overlap
     ethr =  2.37E-08,  avg # of iterations =  2.0

     total cpu time spent up to now is        2.6 secs

     total energy              =    -329.47676134 Ry
     Harris-Foulkes estimate   =    -329.47676228 Ry
     estimated scf accuracy    <       0.00000137 Ry

     iteration # 10     ecut=    30.00 Ry     beta=0.70
     Davidson diagonalization with overlap
     ethr =  2.49E-09,  avg # of iterations =  2.0

     total cpu time spent up to now is        2.8 secs

     total energy              =    -329.47676161 Ry
     Harris-Foulkes estimate   =    -329.47676180 Ry
     estimated scf accuracy    <       0.00000032 Ry

     iteration # 11     ecut=    30.00 Ry     beta=0.70
     Davidson diagonalization with overlap
     ethr =  5.88E-10,  avg # of iterations =  2.0

     total cpu time spent up to now is        3.1 secs

     total energy              =    -329.47676166 Ry
     Harris-Foulkes estimate   =    -329.47676169 Ry
     estimated scf accuracy    <       0.00000004 Ry

     iteration # 12     ecut=    30.00 Ry     beta=0.70
     Davidson diagonalization with overlap
     ethr =  7.32E-11,  avg # of iterations =  3.0

     total cpu time spent up to now is        3.3 secs

     End of self-consistent calculation

          k = 0.0000 0.0000 0.0000 ( 22119 PWs)   bands (ev):

    -8.0403  -7.5260  -7.5090  -7.1292  -6.8591  -6.6862  -6.5503  -6.3772
    -6.2222  -6.0352  -5.8157  -5.6251  -5.6131  -5.5637  -5.4371  -5.4101
    -5.3453  -5.2177  -5.1988  -5.1662  -5.1451  -5.1111  -5.0622  -4.9135
    -4.8297  -4.7307  -4.4086  -3.8002  -2.7551  -2.0984  -0.4818  -0.2065
     0.4434   0.6360

     the Fermi energy is    -3.7812 ev

!    total energy              =    -329.47676160 Ry
     Harris-Foulkes estimate   =    -329.47676167 Ry
     estimated scf accuracy    <          9.3E-09 Ry

     The total energy is the sum of the following terms:

     one-electron contribution =    -593.95323976 Ry
     hartree contribution      =     318.52469867 Ry
     xc contribution           =     -51.36550715 Ry
     ewald contribution        =      -2.68120554 Ry
     smearing contrib. (-TS)   =      -0.00150782 Ry

     convergence has been achieved in  12 iterations

     Forces acting on atoms (Ry/au):

     atom    1 type  1   force =     0.02816741   -0.00463173    0.00270190
     atom    2 type  1   force =     0.00207088   -0.00466210   -0.01203750
     atom    3 type  1   force =    -0.02116749    0.01081017    0.02253791
     atom    4 type  1   force =    -0.00335366    0.00241962    0.00072986
     atom    5 type  1   force =    -0.00571715   -0.00393595   -0.01393217

     Total force =     0.048227     Total SCF correction =     0.000326

     BFGS Geometry Optimization

     number of scf cycles    =   1
     number of bfgs steps    =   0

     energy   new            =    -329.4767616019 Ry

     new trust radius        =       0.0327548490 bohr
     new conv_thr            =       0.0000000100 Ry


ATOMIC_POSITIONS (bohr)
Au      -2.383786585   3.125220271  -0.327908096
Au      -0.383763121   4.499750895   4.145057498
Au       2.904329507   2.030201170   0.305420915
Au       4.555742345   4.247999617   5.418814855
Au       7.457803855   1.215364047   2.640084828



     Writing output data file pwscf.save
     Check: negative starting charge=   -0.006304
     NEW-OLD atomic charge density approx. for the potential
     Check: negative starting charge=   -0.006297

     negative rho (up, down):  1.882E-04 0.000E+00

     total cpu time spent up to now is        3.5 secs

     per-process dynamical memory:    42.9 Mb

     Self-consistent Calculation

     iteration #  1     ecut=    30.00 Ry     beta=0.70
     Davidson diagonalization with overlap
     ethr =  1.00E-06,  avg # of iterations =  4.0

     negative rho (up, down):  3.123E-06 0.000E+00

     total cpu time spent up to now is        3.9 secs

     total energy              =    -329.47890804 Ry
     Harris-Foulkes estimate   =    -329.47889614 Ry
     estimated scf accuracy    <       0.00014314 Ry

     iteration #  2     ecut=    30.00 Ry     beta=0.70
     Davidson diagonalization with overlap
     ethr =  2.60E-07,  avg # of iterations =  3.0

     negative rho (up, down):  7.102E-07 0.000E+00

     total cpu time spent up to now is        4.1 secs

     total energy              =    -329.47888089 Ry
     Harris-Foulkes estimate   =    -329.47903566 Ry
     estimated scf accuracy    <       0.00040232 Ry

     iteration #  3     ecut=    30.00 Ry     beta=0.70
     Davidson diagonalization with overlap
     ethr =  2.60E-07,  avg # of iterations =  2.0

     total cpu time spent up to now is        4.3 secs

     total energy              =    -329.47896000 Ry
     Harris-Foulkes estimate   =    -329.47897263 Ry
     estimated scf accuracy    <       0.00004256 Ry

     iteration #  4     ecut=    30.00 Ry     beta=0.70
     Davidson diagonalization with overlap
     ethr =  7.74E-08,  avg # of iterations =  2.0

     total cpu time spent up to now is        4.5 secs

     total energy              =    -329.47896754 Ry
     Harris-Foulkes estimate   =    -329.47896955 Ry
     estimated scf accuracy    <       0.00000520 Ry

     iteration #  5     ecut=    30.00 Ry     beta=0.70
     Davidson diagonalization with overlap
     ethr =  9.45E-09,  avg # of iterations =  2.0

     total cpu time spent up to now is        4.7 secs

     total energy              =    -329.47896843 Ry
     Harris-Foulkes estimate   =    -329.47896905 Ry
     estimated scf accuracy    <       0.00000115 Ry

     iteration #  6     ecut=    30.00 Ry     beta=0.70
     Davidson diagonalization with overlap
     ethr =  2.10E-09,  avg # of iterations =  2.0

     total cpu time spent up to now is        5.0 secs

     total energy              =    -329.47896858 Ry
     Harris-Foulkes estimate   =    -329.47896875 Ry
     estimated scf accuracy    <       0.00000023 Ry

     iteration #  7     ecut=    30.00 Ry     beta=0.70
     Davidson diagonalization with overlap
     ethr =  4.26E-10,  avg # of iterations =  2.0

     total cpu time spent up to now is        5.2 secs

     total energy              =    -329.47896858 Ry
     Harris-Foulkes estimate   =    -329.47896864 Ry
     estimated scf accuracy    <       0.00000003 Ry

     iteration #  8     ecut=    30.00 Ry     beta=0.70
     Davidson diagonalization with overlap
     ethr =  4.91E-11,  avg # of iterations =  2.0

     total cpu time spent up to now is        5.4 secs

     End of self-consistent calculation

          k = 0.0000 0.0000 0.0000 ( 22119 PWs)   bands (ev):

    -8.0706  -7.5548  -7.5295  -7.1523  -6.8824  -6.6964  -6.5570  -6.3976
    -6.2424  -6.0404  -5.8308  -5.6357  -5.6313  -5.5751  -5.4376  -5.4129
    -5.3447  -5.2225  -5.1966  -5.1658  -5.1516  -5.1108  -5.0693  -4.9126
    -4.8323  -4.7219  -4.4122  -3.7929  -2.7341  -2.0956  -0.4867  -0.2036
     0.4527   0.6386

     the Fermi energy is    -3.7722 ev

!    total energy              =    -329.47896857 Ry
     Harris-Foulkes estimate   =    -329.47896859 Ry
     estimated scf accuracy    <          1.8E-09 Ry

     The total energy is the sum of the following terms:

     one-electron contribution =    -595.87953687 Ry
     hartree contribution      =     319.47328635 Ry
     xc contribution           =     -51.37013914 Ry
     ewald contribution        =      -1.70072593 Ry
     smearing contrib. (-TS)   =      -0.00185298 Ry

     convergence has been achieved in   8 iterations

     Forces acting on atoms (Ry/au):

     atom    1 type  1   force =     0.02557282   -0.00517818    0.00007873
     atom    2 type  1   force =     0.00242275   -0.00316260   -0.00817112
     atom    3 type  1   force =    -0.01939516    0.00970211    0.02069740
     atom    4 type  1   force =    -0.00237259    0.00189896    0.00089227
     atom    5 type  1   force =    -0.00622782   -0.00326029   -0.01349728

     Total force =     0.043632     Total SCF correction =     0.000183

     number of scf cycles    =   2
     number of bfgs steps    =   1

     energy   old            =    -329.4767616019 Ry
     energy   new            =    -329.4789685687 Ry

     CASE: energy  _new < energy  _old


     WARNING: bfgs curvature condition failed, Theta= 0.888
     new trust radius        =       0.0360303339 bohr
     new conv_thr            =       0.0000000022 Ry


ATOMIC_POSITIONS (bohr)
Au      -2.352993978   3.119254625  -0.327155787
Au      -0.380996118   4.495646431   4.134454878
Au       2.881024656   2.041914719   0.330277738
Au       4.552699337   4.250368647   5.419825658
Au       7.450592104   1.211351578   2.624067513



     Writing output data file pwscf.save
     Check: negative starting charge=   -0.006297
     NEW-OLD atomic charge density approx. for the potential
     Check: negative starting charge=   -0.006296

     negative rho (up, down):  2.305E-04 0.000E+00

     total cpu time spent up to now is        5.6 secs

     per-process dynamical memory:    50.7 Mb

     Self-consistent Calculation

     iteration #  1     ecut=    30.00 Ry     beta=0.70
     Davidson diagonalization with overlap
     ethr =  1.00E-06,  avg # of iterations =  4.0

     negative rho (up, down):  4.792E-06 0.000E+00

     total cpu time spent up to now is        5.9 secs

     total energy              =    -329.48106637 Ry
     Harris-Foulkes estimate   =    -329.48103917 Ry
     estimated scf accuracy    <       0.00016427 Ry

     iteration #  2     ecut=    30.00 Ry     beta=0.70
     Davidson diagonalization with overlap
     ethr =  2.99E-07,  avg # of iterations =  3.0

     negative rho (up, down):  1.098E-06 0.000E+00

     total cpu time spent up to now is        6.2 secs

     total energy              =    -329.48104071 Ry
     Harris-Foulkes estimate   =    -329.48120259 Ry
     estimated scf accuracy    <       0.00041033 Ry

     iteration #  3     ecut=    30.00 Ry     beta=0.70
     Davidson diagonalization with overlap
     ethr =  2.99E-07,  avg # of iterations =  2.0

     total cpu time spent up to now is        6.4 secs

     total energy              =    -329.48112380 Ry
     Harris-Foulkes estimate   =    -329.48114034 Ry
     estimated scf accuracy    <       0.00005476 Ry

     iteration #  4     ecut=    30.00 Ry     beta=0.70
     Davidson diagonalization with overlap
     ethr =  9.96E-08,  avg # of iterations =  2.0

     total cpu time spent up to now is        6.6 secs

     total energy              =    -329.48113386 Ry
     Harris-Foulkes estimate   =    -329.48113577 Ry
     estimated scf accuracy    <       0.00000599 Ry

     iteration #  5     ecut=    30.00 Ry     beta=0.70
     Davidson diagonalization with overlap
     ethr =  1.09E-08,  avg # of iterations =  2.0

     total cpu time spent up to now is        6.8 secs

     total energy              =    -329.48113501 Ry
     Harris-Foulkes estimate   =    -329.48113560 Ry
     estimated scf accuracy    <       0.00000130 Ry

     iteration #  6     ecut=    30.00 Ry     beta=0.70
     Davidson diagonalization with overlap
     ethr =  2.36E-09,  avg # of iterations =  2.0

     total cpu time spent up to now is        7.1 secs

     total energy              =    -329.48113524 Ry
     Harris-Foulkes estimate   =    -329.48113538 Ry
     estimated scf accuracy    <       0.00000026 Ry

     iteration #  7     ecut=    30.00 Ry     beta=0.70
     Davidson diagonalization with overlap
     ethr =  4.69E-10,  avg # of iterations =  2.0

     total cpu time spent up to now is        7.3 secs

     total energy              =    -329.48113524 Ry
     Harris-Foulkes estimate   =    -329.48113531 Ry
     estimated scf accuracy    <       0.00000004 Ry

     iteration #  8     ecut=    30.00 Ry     beta=0.70
     Davidson diagonalization with overlap
     ethr =  6.51E-11,  avg # of iterations =  2.0

     total cpu time spent up to now is        7.5 secs

     End of self-consistent calculation

          k = 0.0000 0.0000 0.0000 ( 22119 PWs)   bands (ev):

    -8.1090  -7.5878  -7.5499  -7.1765  -6.9068  -6.7044  -6.5701  -6.4174
    -6.2630  -6.0437  -5.8476  -5.6509  -5.6473  -5.5871  -5.4381  -5.4149
    -5.3435  -5.2268  -5.1938  -5.1653  -5.1587  -5.1110  -5.0741  -4.9118
    -4.8351  -4.7115  -4.4158  -3.7859  -2.7102  -2.0934  -0.4920  -0.2008
     0.4627   0.6425

     the Fermi energy is    -3.7635 ev

!    total energy              =    -329.48113516 Ry
     Harris-Foulkes estimate   =    -329.48113525 Ry
     estimated scf accuracy    <          1.9E-09 Ry

     The total energy is the sum of the following terms:

     one-electron contribution =    -597.93070722 Ry
     hartree contribution      =     320.48293869 Ry
     xc contribution           =     -51.37529472 Ry
     ewald contribution        =      -0.65589370 Ry
     smearing contrib. (-TS)   =      -0.00217821 Ry

     convergence has been achieved in   8 iterations

     Forces acting on atoms (Ry/au):

     atom    1 type  1   force =     0.02292544   -0.00562560   -0.00252311
     atom    2 type  1   force =     0.00242615   -0.00160488   -0.00431677
     atom    3 type  1   force =    -0.01719702    0.00849466    0.01879294
     atom    4 type  1   force =    -0.00143038    0.00135885    0.00110636
     atom    5 type  1   force =    -0.00672420   -0.00262302   -0.01305942

     Total force =     0.039237     Total SCF correction =     0.000193

     number of scf cycles    =   3
     number of bfgs steps    =   2

     energy   old            =    -329.4789685687 Ry
     energy   new            =    -329.4811351632 Ry

     CASE: energy  _new < energy  _old

     new trust radius        =       0.0540455009 bohr
     new conv_thr            =       0.0000000022 Ry


ATOMIC_POSITIONS (bohr)
Au      -2.306755542   3.108871999  -0.329801025
Au      -0.376500232   4.491279034   4.122912137
Au       2.846339824   2.059201450   0.367947985
Au       4.549140539   4.253424464   5.421794292
Au       7.438101412   1.205759053   2.598616611



     Writing output data file pwscf.save
     Check: negative starting charge=   -0.006296
     NEW-OLD atomic charge density approx. for the potential
     Check: negative starting charge=   -0.006308

     negative rho (up, down):  5.324E-04 0.000E+00

     total cpu time spent up to now is        7.7 secs

     per-process dynamical memory:    50.7 Mb

     Self-consistent Calculation

     iteration #  1     ecut=    30.00 Ry     beta=0.70
     Davidson diagonalization with overlap
     ethr =  1.00E-06,  avg # of iterations =  5.0

     negative rho (up, down):  2.299E-05 0.000E+00

     total cpu time spent up to now is        8.0 secs

     total energy              =    -329.48379086 Ry
     Harris-Foulkes estimate   =    -329.48357982 Ry
     estimated scf accuracy    <       0.00035723 Ry

     iteration #  2     ecut=    30.00 Ry     beta=0.70
     Davidson diagonalization with overlap
     ethr =  6.50E-07,  avg # of iterations =  4.0

     negative rho (up, down):  7.050E-06 0.000E+00

     total cpu time spent up to now is        8.3 secs

     total energy              =    -329.48374614 Ry
     Harris-Foulkes estimate   =    -329.48406500 Ry
     estimated scf accuracy    <       0.00078235 Ry

     iteration #  3     ecut=    30.00 Ry     beta=0.70
     Davidson diagonalization with overlap
     ethr =  6.50E-07,  avg # of iterations =  2.0

     negative rho (up, down):  1.145E-07 0.000E+00

     total cpu time spent up to now is        8.5 secs

     total energy              =    -329.48390993 Ry
     Harris-Foulkes estimate   =    -329.48395036 Ry
     estimated scf accuracy    <       0.00013335 Ry

     iteration #  4     ecut=    30.00 Ry     beta=0.70
     Davidson diagonalization with overlap
     ethr =  2.42E-07,  avg # of iterations =  2.0

     total cpu time spent up to now is        8.7 secs

     total energy              =    -329.48393441 Ry
     Harris-Foulkes estimate   =    -329.48393806 Ry
     estimated scf accuracy    <       0.00001193 Ry

     iteration #  5     ecut=    30.00 Ry     beta=0.70
     Davidson diagonalization with overlap
     ethr =  2.17E-08,  avg # of iterations =  2.0

     total cpu time spent up to now is        8.9 secs

     total energy              =    -329.48393694 Ry
     Harris-Foulkes estimate   =    -329.48393807 Ry
     estimated scf accuracy    <       0.00000276 Ry

     iteration #  6     ecut=    30.00 Ry     beta=0.70
     Davidson diagonalization with overlap
     ethr =  5.02E-09,  avg # of iterations =  2.0

     total cpu time spent up to now is        9.1 secs

     total energy              =    -329.48393745 Ry
     Harris-Foulkes estimate   =    -329.48393769 Ry
     estimated scf accuracy    <       0.00000050 Ry

     iteration #  7     ecut=    30.00 Ry     beta=0.70
     Davidson diagonalization with overlap
     ethr =  9.09E-10,  avg # of iterations =  2.0

     total cpu time spent up to now is        9.4 secs

     total energy              =    -329.48393755 Ry
     Harris-Foulkes estimate   =    -329.48393759 Ry
     estimated scf accuracy    <       0.00000008 Ry

     iteration #  8     ecut=    30.00 Ry     beta=0.70
     Davidson diagonalization with overlap
     ethr =  1.54E-10,  avg # of iterations =  2.0

     total cpu time spent up to now is        9.6 secs

     total energy              =    -329.48393755 Ry
     Harris-Foulkes estimate   =    -329.48393757 Ry
     estimated scf accuracy    <          6.4E-09 Ry

     iteration #  9     ecut=    30.00 Ry     beta=0.70
     Davidson diagonalization with overlap
     ethr =  1.16E-11,  avg # of iterations =  3.0

     total cpu time spent up to now is        9.8 secs

     End of self-consistent calculation

          k = 0.0000 0.0000 0.0000 ( 22119 PWs)   bands (ev):

    -8.1756  -7.6346  -7.5809  -7.2116  -6.9394  -6.7115  -6.6024  -6.4396
    -6.2909  -6.0458  -5.8732  -5.6788  -5.6654  -5.6050  -5.4385  -5.4168
    -5.3411  -5.2307  -5.1901  -5.1697  -5.1643  -5.1139  -5.0733  -4.9112
    -4.8394  -4.6949  -4.4208  -3.7769  -2.6727  -2.0919  -0.4998  -0.1973
     0.4773   0.6500

     the Fermi energy is    -3.7525 ev

!    total energy              =    -329.48393760 Ry
     Harris-Foulkes estimate   =    -329.48393755 Ry
     estimated scf accuracy    <          1.7E-09 Ry

     The total energy is the sum of the following terms:

     one-electron contribution =    -600.89602429 Ry
     hartree contribution      =     321.94263171 Ry
     xc contribution           =     -51.38335298 Ry
     ewald contribution        =       0.85538750 Ry
     smearing contrib. (-TS)   =      -0.00257954 Ry

     convergence has been achieved in   9 iterations

     Forces acting on atoms (Ry/au):

     atom    1 type  1   force =     0.01799792   -0.00584273   -0.00608599
     atom    2 type  1   force =     0.00195018    0.00054753    0.00066352
     atom    3 type  1   force =    -0.01271433    0.00654133    0.01628536
     atom    4 type  1   force =    -0.00006013    0.00058859    0.00141555
     atom    5 type  1   force =    -0.00717364   -0.00183472   -0.01227843

     Total force =     0.032821     Total SCF correction =     0.000180

     number of scf cycles    =   4
     number of bfgs steps    =   3

     energy   old            =    -329.4811351632 Ry
     energy   new            =    -329.4839376038 Ry

     CASE: energy  _new < energy  _old

     new trust radius        =       0.0810682513 bohr
     new conv_thr            =       0.0000000018 Ry


ATOMIC_POSITIONS (bohr)
Au      -2.238175828   3.091381206  -0.339857550
Au      -0.369888103   4.487479469   4.111690769
Au       2.796229357   2.084681758   0.426358227
Au       4.545436245   4.257254237   5.425552405
Au       7.416724328   1.197739330   2.557726149



     Writing output data file pwscf.save
     Check: negative starting charge=   -0.006308
     NEW-OLD atomic charge density approx. for the potential
     Check: negative starting charge=   -0.006345

     negative rho (up, down):  1.105E-03 0.000E+00

     total cpu time spent up to now is       10.0 secs

     per-process dynamical memory:    50.7 Mb

     Self-consistent Calculation

     iteration #  1     ecut=    30.00 Ry     beta=0.70
     Davidson diagonalization with overlap
     ethr =  1.00E-06,  avg # of iterations =  9.0

     negative rho (up, down):  7.712E-05 0.000E+00

     total cpu time spent up to now is       10.5 secs

     total energy              =    -329.48669078 Ry
     Harris-Foulkes estimate   =    -329.48593268 Ry
     estimated scf accuracy    <       0.00076904 Ry

     iteration #  2     ecut=    30.00 Ry     beta=0.70
     Davidson diagonalization with overlap
     ethr =  1.40E-06,  avg # of iterations =  5.0

     negative rho (up, down):  2.777E-05 0.000E+00

     total cpu time spent up to now is       10.7 secs

     total energy              =    -329.48662369 Ry
     Harris-Foulkes estimate   =    -329.48720728 Ry
     estimated scf accuracy    <       0.00138145 Ry

     iteration #  3     ecut=    30.00 Ry     beta=0.70
     Davidson diagonalization with overlap
     ethr =  1.40E-06,  avg # of iterations =  3.0

     negative rho (up, down):  1.173E-06 0.000E+00

     total cpu time spent up to now is       11.0 secs

     total energy              =    -329.48692568 Ry
     Harris-Foulkes estimate   =    -329.48702678 Ry
     estimated scf accuracy    <       0.00033095 Ry

     iteration #  4     ecut=    30.00 Ry     beta=0.70
     Davidson diagonalization with overlap
     ethr =  6.02E-07,  avg # of iterations =  2.0

     total cpu time spent up to now is       11.2 secs

     total energy              =    -329.48698707 Ry
     Harris-Foulkes estimate   =    -329.48699263 Ry
     estimated scf accuracy    <       0.00002420 Ry

     iteration #  5     ecut=    30.00 Ry     beta=0.70
     Davidson diagonalization with overlap
     ethr =  4.40E-08,  avg # of iterations =  2.0

     total cpu time spent up to now is       11.4 secs

     total energy              =    -329.48699208 Ry
     Harris-Foulkes estimate   =    -329.48699441 Ry
     estimated scf accuracy    <       0.00000530 Ry

     iteration #  6     ecut=    30.00 Ry     beta=0.70
     Davidson diagonalization with overlap
     ethr =  9.63E-09,  avg # of iterations =  2.0

     total cpu time spent up to now is       11.6 secs

     total energy              =    -329.48699298 Ry
     Harris-Foulkes estimate   =    -329.48699352 Ry
     estimated scf accuracy    <       0.00000094 Ry

     iteration #  7     ecut=    30.00 Ry     beta=0.70
     Davidson diagonalization with overlap
     ethr =  1.71E-09,  avg # of iterations =  2.0

     total cpu time spent up to now is       11.8 secs

     total energy              =    -329.48699318 Ry
     Harris-Foulkes estimate   =    -329.48699323 Ry
     estimated scf accuracy    <       0.00000018 Ry

     iteration #  8     ecut=    30.00 Ry     beta=0.70
     Davidson diagonalization with overlap
     ethr =  3.22E-10,  avg # of iterations =  2.0

     total cpu time spent up to now is       12.0 secs

     total energy              =    -329.48699316 Ry
     Harris-Foulkes estimate   =    -329.48699323 Ry
     estimated scf accuracy    <       0.00000001 Ry

     iteration #  9     ecut=    30.00 Ry     beta=0.70
     Davidson diagonalization with overlap
     ethr =  1.87E-11,  avg # of iterations =  2.0

     total cpu time spent up to now is       12.3 secs

     total energy              =    -329.48699318 Ry
     Harris-Foulkes estimate   =    -329.48699317 Ry
     estimated scf accuracy    <          2.7E-09 Ry

     iteration # 10     ecut=    30.00 Ry     beta=0.70
     Davidson diagonalization with overlap
     ethr =  4.93E-12,  avg # of iterations =  2.0

     total cpu time spent up to now is       12.5 secs

     End of self-consistent calculation

          k = 0.0000 0.0000 0.0000 ( 22119 PWs)   bands (ev):

    -8.2920  -7.7019  -7.6288  -7.2641  -6.9787  -6.7150  -6.6717  -6.4622
    -6.3262  -6.0463  -5.9129  -5.7192  -5.6909  -5.6322  -5.4378  -5.4186
    -5.3366  -5.2306  -5.1922  -5.1777  -5.1686  -5.1187  -5.0593  -4.9119
    -4.8460  -4.6692  -4.4280  -3.7658  -2.6142  -2.0925  -0.5114  -0.1931
     0.4990   0.6641

     the Fermi energy is    -3.7390 ev

!    total energy              =    -329.48699318 Ry
     Harris-Foulkes estimate   =    -329.48699318 Ry
     estimated scf accuracy    <          7.1E-10 Ry

     The total energy is the sum of the following terms:

     one-electron contribution =    -605.16939662 Ry
     hartree contribution      =     324.04701534 Ry
     xc contribution           =     -51.39632395 Ry
     ewald contribution        =       3.03476104 Ry
     smearing contrib. (-TS)   =      -0.00304899 Ry

     convergence has been achieved in  10 iterations

     Forces acting on atoms (Ry/au):

     atom    1 type  1   force =     0.00726373   -0.00491240   -0.01202162
     atom    2 type  1   force =     0.00070026    0.00341338    0.00694041
     atom    3 type  1   force =    -0.00304053    0.00307411    0.01360200
     atom    4 type  1   force =     0.00220431   -0.00058326    0.00186872
     atom    5 type  1   force =    -0.00712777   -0.00099183   -0.01038952

     Total force =     0.025571     Total SCF correction =     0.000110

     number of scf cycles    =   5
     number of bfgs steps    =   4

     energy   old            =    -329.4839376038 Ry
     energy   new            =    -329.4869931778 Ry

     CASE: energy  _new < energy  _old

     new trust radius        =       0.1216023770 bohr
     new conv_thr            =       0.0000000014 Ry


ATOMIC_POSITIONS (bohr)
Au      -2.142883919   3.063025971  -0.370684517
Au      -0.361249393   4.487304177   4.106204542
Au       2.730795210   2.121263420   0.522104206
Au       4.544068145   4.261292867   5.433123093
Au       7.379595957   1.185649566   2.490722676



     Writing output data file pwscf.save
     Check: negative starting charge=   -0.006345
     NEW-OLD atomic charge density approx. for the potential
     Check: negative starting charge=   -0.006391

     negative rho (up, down):  2.115E-03 0.000E+00

     total cpu time spent up to now is       12.7 secs

     per-process dynamical memory:    50.7 Mb

     Self-consistent Calculation

     iteration #  1     ecut=    30.00 Ry     beta=0.70
     Davidson diagonalization with overlap
     ethr =  1.00E-06,  avg # of iterations = 11.0

     negative rho (up, down):  2.026E-04 0.000E+00

     total cpu time spent up to now is       13.2 secs

     total energy              =    -329.48827682 Ry
     Harris-Foulkes estimate   =    -329.48690992 Ry
     estimated scf accuracy    <       0.00165432 Ry

     iteration #  2     ecut=    30.00 Ry     beta=0.70
     Davidson diagonalization with overlap
     ethr =  3.01E-06,  avg # of iterations =  7.0

     negative rho (up, down):  7.292E-05 0.000E+00

     total cpu time spent up to now is       13.5 secs

     total energy              =    -329.48829537 Ry
     Harris-Foulkes estimate   =    -329.48917904 Ry
     estimated scf accuracy    <       0.00198359 Ry

     iteration #  3     ecut=    30.00 Ry     beta=0.70
     Davidson diagonalization with overlap
     ethr =  3.01E-06,  avg # of iterations =  3.0

     negative rho (up, down):  7.408E-06 0.000E+00

     total cpu time spent up to now is       13.7 secs

     total energy              =    -329.48873522 Ry
     Harris-Foulkes estimate   =    -329.48899825 Ry
     estimated scf accuracy    <       0.00082310 Ry

     iteration #  4     ecut=    30.00 Ry     beta=0.70
     Davidson diagonalization with overlap
     ethr =  1.50E-06,  avg # of iterations =  2.0

     total cpu time spent up to now is       13.9 secs

     total energy              =    -329.48888876 Ry
     Harris-Foulkes estimate   =    -329.48890014 Ry
     estimated scf accuracy    <       0.00005118 Ry

     iteration #  5     ecut=    30.00 Ry     beta=0.70
     Davidson diagonalization with overlap
     ethr =  9.31E-08,  avg # of iterations =  2.0

     total cpu time spent up to now is       14.1 secs

     total energy              =    -329.48889958 Ry
     Harris-Foulkes estimate   =    -329.48890298 Ry
     estimated scf accuracy    <       0.00000632 Ry

     iteration #  6     ecut=    30.00 Ry     beta=0.70
     Davidson diagonalization with overlap
     ethr =  1.15E-08,  avg # of iterations =  2.0

     total cpu time spent up to now is       14.4 secs

     total energy              =    -329.48890058 Ry
     Harris-Foulkes estimate   =    -329.48890123 Ry
     estimated scf accuracy    <       0.00000079 Ry

     iteration #  7     ecut=    30.00 Ry     beta=0.70
     Davidson diagonalization with overlap
     ethr =  1.44E-09,  avg # of iterations =  2.0

     total cpu time spent up to now is       14.6 secs

     total energy              =    -329.48890070 Ry
     Harris-Foulkes estimate   =    -329.48890080 Ry
     estimated scf accuracy    <       0.00000018 Ry

     iteration #  8     ecut=    30.00 Ry     beta=0.70
     Davidson diagonalization with overlap
     ethr =  3.22E-10,  avg # of iterations =  2.0

     total cpu time spent up to now is       14.8 secs

     total energy              =    -329.48890069 Ry
     Harris-Foulkes estimate   =    -329.48890076 Ry
     estimated scf accuracy    <       0.00000005 Ry

     iteration #  9     ecut=    30.00 Ry     beta=0.70
     Davidson diagonalization with overlap
     ethr =  8.75E-11,  avg # of iterations =  2.0

     total cpu time spent up to now is       15.0 secs

     total energy              =    -329.48890064 Ry
     Harris-Foulkes estimate   =    -329.48890070 Ry
     estimated scf accuracy    <          5.2E-09 Ry

     iteration # 10     ecut=    30.00 Ry     beta=0.70
     Davidson diagonalization with overlap
     ethr =  9.53E-12,  avg # of iterations =  2.0

     total cpu time spent up to now is       15.2 secs

     total energy              =    -329.48890063 Ry
     Harris-Foulkes estimate   =    -329.48890064 Ry
     estimated scf accuracy    <          1.8E-09 Ry

     iteration # 11     ecut=    30.00 Ry     beta=0.70
     Davidson diagonalization with overlap
     ethr =  3.32E-12,  avg # of iterations =  2.0

     total cpu time spent up to now is       15.4 secs

     End of self-consistent calculation

          k = 0.0000 0.0000 0.0000 ( 22119 PWs)   bands (ev):

    -8.4804  -7.8011  -7.7041  -7.3334  -7.0118  -6.7999  -6.6916  -6.4999
    -6.3583  -6.0460  -5.9730  -5.7707  -5.7226  -5.6728  -5.4329  -5.4189
    -5.3296  -5.2203  -5.2109  -5.1827  -5.1746  -5.1154  -5.0243  -4.9142
    -4.8557  -4.6349  -4.4406  -3.7544  -2.5240  -2.1009  -0.5276  -0.1882
     0.5292   0.6895

     the Fermi energy is    -3.7251 ev

!    total energy              =    -329.48890063 Ry
     Harris-Foulkes estimate   =    -329.48890063 Ry
     estimated scf accuracy    <          1.6E-10 Ry

     The total energy is the sum of the following terms:

     one-electron contribution =    -610.95635752 Ry
     hartree contribution      =     326.89807793 Ry
     xc contribution           =     -51.41617566 Ry
     ewald contribution        =       5.98911499 Ry
     smearing contrib. (-TS)   =      -0.00356036 Ry

     convergence has been achieved in  11 iterations

     Forces acting on atoms (Ry/au):

     atom    1 type  1   force =    -0.01031941   -0.00308185   -0.01545931
     atom    2 type  1   force =    -0.00313553    0.00743987    0.01291672
     atom    3 type  1   force =     0.01434989   -0.00274526    0.00680589
     atom    4 type  1   force =     0.00539021   -0.00160634    0.00231445
     atom    5 type  1   force =    -0.00628516   -0.00000642   -0.00657776

     Total force =     0.031089     Total SCF correction =     0.000039

     number of scf cycles    =   6
     number of bfgs steps    =   5

     energy   old            =    -329.4869931778 Ry
     energy   new            =    -329.4889006272 Ry

     CASE: energy  _new < energy  _old

     new trust radius        =       0.0146617351 bohr
     new conv_thr            =       0.0000000015 Ry


ATOMIC_POSITIONS (bohr)
Au      -2.146148414   3.059191386  -0.384405807
Au      -0.363797457   4.493086045   4.115181000
Au       2.739506106   2.121216049   0.533897617
Au       4.548302619   4.260381097   5.435452145
Au       7.372463146   1.184661422   2.481345046



     Writing output data file pwscf.save
     Check: negative starting charge=   -0.006391
     NEW-OLD atomic charge density approx. for the potential
     Check: negative starting charge=   -0.006387

     negative rho (up, down):  4.079E-05 0.000E+00

     total cpu time spent up to now is       15.7 secs

     per-process dynamical memory:    50.7 Mb

     Self-consistent Calculation

     iteration #  1     ecut=    30.00 Ry     beta=0.70
     Davidson diagonalization with overlap
     ethr =  1.00E-06,  avg # of iterations =  4.0

     Threshold (ethr) on eigenvalues was too large:
     Diagonalizing with lowered threshold

     Davidson diagonalization with overlap
     ethr =  9.38E-08,  avg # of iterations =  1.0

     negative rho (up, down):  1.364E-07 0.000E+00

     total cpu time spent up to now is       16.1 secs

     total energy              =    -329.48956135 Ry
     Harris-Foulkes estimate   =    -329.48956968 Ry
     estimated scf accuracy    <       0.00005189 Ry

     iteration #  2     ecut=    30.00 Ry     beta=0.70
     Davidson diagonalization with overlap
     ethr =  9.43E-08,  avg # of iterations =  3.0

     negative rho (up, down):  2.024E-08 0.000E+00

     total cpu time spent up to now is       16.4 secs

     total energy              =    -329.48955201 Ry
     Harris-Foulkes estimate   =    -329.48961319 Ry
     estimated scf accuracy    <       0.00016004 Ry

     iteration #  3     ecut=    30.00 Ry     beta=0.70
     Davidson diagonalization with overlap
     ethr =  9.43E-08,  avg # of iterations =  2.0

     total cpu time spent up to now is       16.6 secs

     total energy              =    -329.48958263 Ry
     Harris-Foulkes estimate   =    -329.48958563 Ry
     estimated scf accuracy    <       0.00000977 Ry

     iteration #  4     ecut=    30.00 Ry     beta=0.70
     Davidson diagonalization with overlap
     ethr =  1.78E-08,  avg # of iterations =  2.0

     total cpu time spent up to now is       16.8 secs

     total energy              =    -329.48958371 Ry
     Harris-Foulkes estimate   =    -329.48958502 Ry
     estimated scf accuracy    <       0.00000144 Ry

     iteration #  5     ecut=    30.00 Ry     beta=0.70
     Davidson diagonalization with overlap
     ethr =  2.63E-09,  avg # of iterations =  2.0

     total cpu time spent up to now is       17.0 secs

     total energy              =    -329.48958345 Ry
     Harris-Foulkes estimate   =    -329.48958438 Ry
     estimated scf accuracy    <       0.00000114 Ry

     iteration #  6     ecut=    30.00 Ry     beta=0.70
     Davidson diagonalization with overlap
     ethr =  2.07E-09,  avg # of iterations =  2.0

     total cpu time spent up to now is       17.2 secs

     total energy              =    -329.48958350 Ry
     Harris-Foulkes estimate   =    -329.48958364 Ry
     estimated scf accuracy    <       0.00000002 Ry

     iteration #  7     ecut=    30.00 Ry     beta=0.70
     Davidson diagonalization with overlap
     ethr =  2.79E-11,  avg # of iterations =  4.0

     total cpu time spent up to now is       17.5 secs

     total energy              =    -329.48958351 Ry
     Harris-Foulkes estimate   =    -329.48958351 Ry
     estimated scf accuracy    <          4.9E-09 Ry

     iteration #  8     ecut=    30.00 Ry     beta=0.70
     Davidson diagonalization with overlap
     ethr =  8.91E-12,  avg # of iterations =  2.0

     total cpu time spent up to now is       17.7 secs

     End of self-consistent calculation

          k = 0.0000 0.0000 0.0000 ( 22119 PWs)   bands (ev):

    -8.4715  -7.7961  -7.6966  -7.3214  -7.0046  -6.7913  -6.6838  -6.4996
    -6.3500  -6.0413  -5.9777  -5.7654  -5.7232  -5.6711  -5.4302  -5.4175
    -5.3291  -5.2201  -5.2112  -5.1810  -5.1758  -5.1174  -5.0211  -4.9136
    -4.8586  -4.6403  -4.4444  -3.7583  -2.5186  -2.1100  -0.5265  -0.1898
     0.5276   0.6917

     the Fermi energy is    -3.7289 ev

!    total energy              =    -329.48958349 Ry
     Harris-Foulkes estimate   =    -329.48958352 Ry
     estimated scf accuracy    <          8.4E-10 Ry

     The total energy is the sum of the following terms:

     one-electron contribution =    -610.49784285 Ry
     hartree contribution      =     326.67185848 Ry
     xc contribution           =     -51.41380555 Ry
     ewald contribution        =       5.75377448 Ry
     smearing contrib. (-TS)   =      -0.00356804 Ry

     convergence has been achieved in   8 iterations

     Forces acting on atoms (Ry/au):

     atom    1 type  1   force =    -0.00717985   -0.00244380   -0.01236265
     atom    2 type  1   force =    -0.00333618    0.00626367    0.00992315
     atom    3 type  1   force =     0.00992414   -0.00191981    0.00551106
     atom    4 type  1   force =     0.00493977   -0.00146287    0.00242941
     atom    5 type  1   force =    -0.00434788   -0.00043719   -0.00550098

     Total force =     0.023949     Total SCF correction =     0.000135

     number of scf cycles    =   7
     number of bfgs steps    =   6

     energy   old            =    -329.4889006272 Ry
     energy   new            =    -329.4895834931 Ry

     CASE: energy  _new < energy  _old

     new trust radius        =       0.0161279086 bohr
     new conv_thr            =       0.0000000007 Ry


ATOMIC_POSITIONS (bohr)
Au      -2.143801370   3.054300823  -0.398695904
Au      -0.366692074   4.498853768   4.122924945
Au       2.743214391   2.123121813   0.549477287
Au       4.552879932   4.259536741   5.438587282
Au       7.364725120   1.182722856   2.469176389



     Writing output data file pwscf.save
     Check: negative starting charge=   -0.006387
     NEW-OLD atomic charge density approx. for the potential
     Check: negative starting charge=   -0.006384

     negative rho (up, down):  5.392E-05 0.000E+00

     total cpu time spent up to now is       17.9 secs

     per-process dynamical memory:    50.7 Mb

     Self-consistent Calculation

     iteration #  1     ecut=    30.00 Ry     beta=0.70
     Davidson diagonalization with overlap
     ethr =  1.00E-06,  avg # of iterations =  4.0

     Threshold (ethr) on eigenvalues was too large:
     Diagonalizing with lowered threshold

     Davidson diagonalization with overlap
     ethr =  9.62E-08,  avg # of iterations =  1.0

     negative rho (up, down):  2.383E-07 0.000E+00

     total cpu time spent up to now is       18.4 secs

     total energy              =    -329.49005447 Ry
     Harris-Foulkes estimate   =    -329.49005917 Ry
     estimated scf accuracy    <       0.00005291 Ry

     iteration #  2     ecut=    30.00 Ry     beta=0.70
     Davidson diagonalization with overlap
     ethr =  9.62E-08,  avg # of iterations =  3.0

     negative rho (up, down):  2.180E-08 0.000E+00

     total cpu time spent up to now is       18.6 secs

     total energy              =    -329.49005142 Ry
     Harris-Foulkes estimate   =    -329.49009165 Ry
     estimated scf accuracy    <       0.00009246 Ry

     iteration #  3     ecut=    30.00 Ry     beta=0.70
     Davidson diagonalization with overlap
     ethr =  9.62E-08,  avg # of iterations =  2.0

     total cpu time spent up to now is       18.8 secs

     total energy              =    -329.49007068 Ry
     Harris-Foulkes estimate   =    -329.49007732 Ry
     estimated scf accuracy    <       0.00001814 Ry

     iteration #  4     ecut=    30.00 Ry     beta=0.70
     Davidson diagonalization with overlap
     ethr =  3.30E-08,  avg # of iterations =  2.0

     total cpu time spent up to now is       19.0 secs

     total energy              =    -329.49007331 Ry
     Harris-Foulkes estimate   =    -329.49007454 Ry
     estimated scf accuracy    <       0.00000135 Ry

     iteration #  5     ecut=    30.00 Ry     beta=0.70
     Davidson diagonalization with overlap
     ethr =  2.45E-09,  avg # of iterations =  3.0

     total cpu time spent up to now is       19.3 secs

     total energy              =    -329.49007335 Ry
     Harris-Foulkes estimate   =    -329.49007395 Ry
     estimated scf accuracy    <       0.00000117 Ry

     iteration #  6     ecut=    30.00 Ry     beta=0.70
     Davidson diagonalization with overlap
     ethr =  2.12E-09,  avg # of iterations =  2.0

     total cpu time spent up to now is       19.5 secs

     total energy              =    -329.49007346 Ry
     Harris-Foulkes estimate   =    -329.49007355 Ry
     estimated scf accuracy    <       0.00000003 Ry

     iteration #  7     ecut=    30.00 Ry     beta=0.70
     Davidson diagonalization with overlap
     ethr =  5.18E-11,  avg # of iterations =  3.0

     total cpu time spent up to now is       19.7 secs

     total energy              =    -329.49007335 Ry
     Harris-Foulkes estimate   =    -329.49007348 Ry
     estimated scf accuracy    <          5.7E-09 Ry

     iteration #  8     ecut=    30.00 Ry     beta=0.70
     Davidson diagonalization with overlap
     ethr =  1.04E-11,  avg # of iterations =  3.0

     total cpu time spent up to now is       20.0 secs

     total energy              =    -329.49007333 Ry
     Harris-Foulkes estimate   =    -329.49007336 Ry
     estimated scf accuracy    <          1.6E-09 Ry

     iteration #  9     ecut=    30.00 Ry     beta=0.70
     Davidson diagonalization with overlap
     ethr =  2.88E-12,  avg # of iterations =  3.0

     total cpu time spent up to now is       20.2 secs

     End of self-consistent calculation

          k = 0.0000 0.0000 0.0000 ( 22119 PWs)   bands (ev):

    -8.4749  -7.7963  -7.6934  -7.3119  -6.9981  -6.7920  -6.6748  -6.5006
    -6.3424  -6.0390  -5.9833  -5.7633  -5.7249  -5.6717  -5.4279  -5.4158
    -5.3280  -5.2197  -5.2125  -5.1829  -5.1735  -5.1185  -5.0163  -4.9140
    -4.8615  -4.6436  -4.4490  -3.7611  -2.5092  -2.1195  -0.5263  -0.1910
     0.5275   0.6949

     the Fermi energy is    -3.7315 ev

!    total energy              =    -329.49007328 Ry
     Harris-Foulkes estimate   =    -329.49007333 Ry
     estimated scf accuracy    <          3.1E-10 Ry

     The total energy is the sum of the following terms:

     one-electron contribution =    -610.31037798 Ry
     hartree contribution      =     326.57899994 Ry
     xc contribution           =     -51.41257172 Ry
     ewald contribution        =       5.65749548 Ry
     smearing contrib. (-TS)   =      -0.00361901 Ry

     convergence has been achieved in   9 iterations

     Forces acting on atoms (Ry/au):

     atom    1 type  1   force =    -0.00546240   -0.00174404   -0.01012965
     atom    2 type  1   force =    -0.00347192    0.00544764    0.00783187
     atom    3 type  1   force =     0.00705603   -0.00156034    0.00397982
     atom    4 type  1   force =     0.00452295   -0.00143753    0.00252428
     atom    5 type  1   force =    -0.00264466   -0.00070574   -0.00420632

     Total force =     0.018992     Total SCF correction =     0.000080

     number of scf cycles    =   8
     number of bfgs steps    =   7

     energy   old            =    -329.4895834931 Ry
     energy   new            =    -329.4900732847 Ry

     CASE: energy  _new < energy  _old

     new trust radius        =       0.0241918630 bohr
     new conv_thr            =       0.0000000005 Ry


ATOMIC_POSITIONS (bohr)
Au      -2.140139582   3.047149139  -0.421514558
Au      -0.372785255   4.508763899   4.134991505
Au       2.747797727   2.125862631   0.572673051
Au       4.561160867   4.257680064   5.444565514
Au       7.354292243   1.179080267   2.450754488



     Writing output data file pwscf.save
     Check: negative starting charge=   -0.006384
     NEW-OLD atomic charge density approx. for the potential
     Check: negative starting charge=   -0.006383

     negative rho (up, down):  1.719E-04 0.000E+00

     total cpu time spent up to now is       20.4 secs

     per-process dynamical memory:    50.7 Mb

     Self-consistent Calculation

     iteration #  1     ecut=    30.00 Ry     beta=0.70
     Davidson diagonalization with overlap
     ethr =  1.00E-06,  avg # of iterations =  4.0

     negative rho (up, down):  2.805E-06 0.000E+00

     total cpu time spent up to now is       20.7 secs

     total energy              =    -329.49057742 Ry
     Harris-Foulkes estimate   =    -329.49056794 Ry
     estimated scf accuracy    <       0.00012421 Ry

     iteration #  2     ecut=    30.00 Ry     beta=0.70
     Davidson diagonalization with overlap
     ethr =  2.26E-07,  avg # of iterations =  3.0

     negative rho (up, down):  3.641E-07 0.000E+00

     total cpu time spent up to now is       21.0 secs

     total energy              =    -329.49057504 Ry
     Harris-Foulkes estimate   =    -329.49066075 Ry
     estimated scf accuracy    <       0.00019174 Ry

     iteration #  3     ecut=    30.00 Ry     beta=0.70
     Davidson diagonalization with overlap
     ethr =  2.26E-07,  avg # of iterations =  2.0

     total cpu time spent up to now is       21.2 secs

     total energy              =    -329.49061602 Ry
     Harris-Foulkes estimate   =    -329.49063169 Ry
     estimated scf accuracy    <       0.00004541 Ry

     iteration #  4     ecut=    30.00 Ry     beta=0.70
     Davidson diagonalization with overlap
     ethr =  8.26E-08,  avg # of iterations =  2.0

     total cpu time spent up to now is       21.4 secs

     total energy              =    -329.49062413 Ry
     Harris-Foulkes estimate   =    -329.49062569 Ry
     estimated scf accuracy    <       0.00000317 Ry

     iteration #  5     ecut=    30.00 Ry     beta=0.70
     Davidson diagonalization with overlap
     ethr =  5.77E-09,  avg # of iterations =  3.0

     total cpu time spent up to now is       21.6 secs

     total energy              =    -329.49062466 Ry
     Harris-Foulkes estimate   =    -329.49062553 Ry
     estimated scf accuracy    <       0.00000235 Ry

     iteration #  6     ecut=    30.00 Ry     beta=0.70
     Davidson diagonalization with overlap
     ethr =  4.27E-09,  avg # of iterations =  2.0

     total cpu time spent up to now is       21.8 secs

     total energy              =    -329.49062503 Ry
     Harris-Foulkes estimate   =    -329.49062507 Ry
     estimated scf accuracy    <       0.00000008 Ry

     iteration #  7     ecut=    30.00 Ry     beta=0.70
     Davidson diagonalization with overlap
     ethr =  1.49E-10,  avg # of iterations =  3.0

     total cpu time spent up to now is       22.1 secs

     total energy              =    -329.49062492 Ry
     Harris-Foulkes estimate   =    -329.49062505 Ry
     estimated scf accuracy    <       0.00000001 Ry

     iteration #  8     ecut=    30.00 Ry     beta=0.70
     Davidson diagonalization with overlap
     ethr =  2.11E-11,  avg # of iterations =  2.0

     total cpu time spent up to now is       22.3 secs

     total energy              =    -329.49062489 Ry
     Harris-Foulkes estimate   =    -329.49062492 Ry
     estimated scf accuracy    <          3.1E-09 Ry

     iteration #  9     ecut=    30.00 Ry     beta=0.70
     Davidson diagonalization with overlap
     ethr =  5.67E-12,  avg # of iterations =  2.0

     total cpu time spent up to now is       22.5 secs

     total energy              =    -329.49062487 Ry
     Harris-Foulkes estimate   =    -329.49062489 Ry
     estimated scf accuracy    <          5.6E-10 Ry

     iteration # 10     ecut=    30.00 Ry     beta=0.70
     Davidson diagonalization with overlap
     ethr =  1.02E-12,  avg # of iterations =  2.0

     total cpu time spent up to now is       22.7 secs

     End of self-consistent calculation

          k = 0.0000 0.0000 0.0000 ( 22119 PWs)   bands (ev):

    -8.4801  -7.7940  -7.6862  -7.2938  -6.9854  -6.7942  -6.6593  -6.4995
    -6.3288  -6.0386  -5.9873  -5.7598  -5.7266  -5.6719  -5.4254  -5.4116
    -5.3260  -5.2214  -5.2133  -5.1860  -5.1690  -5.1199  -5.0090  -4.9164
    -4.8654  -4.6491  -4.4570  -3.7655  -2.4958  -2.1359  -0.5255  -0.1927
     0.5269   0.6994

     the Fermi energy is    -3.7354 ev

!    total energy              =    -329.49062486 Ry
     Harris-Foulkes estimate   =    -329.49062487 Ry
     estimated scf accuracy    <          1.4E-10 Ry

     The total energy is the sum of the following terms:

     one-electron contribution =    -609.83708656 Ry
     hartree contribution      =     326.34461585 Ry
     xc contribution           =     -51.41008801 Ry
     ewald contribution        =       5.41565719 Ry
     smearing contrib. (-TS)   =      -0.00372332 Ry

     convergence has been achieved in  10 iterations

     Forces acting on atoms (Ry/au):

     atom    1 type  1   force =    -0.00296079   -0.00075635   -0.00706603
     atom    2 type  1   force =    -0.00324394    0.00416130    0.00485199
     atom    3 type  1   force =     0.00278178   -0.00085404    0.00192322
     atom    4 type  1   force =     0.00360031   -0.00152405    0.00249720
     atom    5 type  1   force =    -0.00017736   -0.00102685   -0.00220638

     Total force =     0.012259     Total SCF correction =     0.000056

     number of scf cycles    =   9
     number of bfgs steps    =   8

     energy   old            =    -329.4900732847 Ry
     energy   new            =    -329.4906248557 Ry

     CASE: energy  _new < energy  _old

     new trust radius        =       0.0362877944 bohr
     new conv_thr            =       0.0000000006 Ry


ATOMIC_POSITIONS (bohr)
Au      -2.133697395   3.037480038  -0.455892032
Au      -0.383623222   4.524508821   4.152209275
Au       2.750901013   2.130172451   0.605153519
Au       4.574553847   4.253741829   5.455013037
Au       7.342191757   1.172632861   2.424986202



     Writing output data file pwscf.save
     Check: negative starting charge=   -0.006383
     NEW-OLD atomic charge density approx. for the potential
     Check: negative starting charge=   -0.006381

     negative rho (up, down):  3.903E-04 0.000E+00

     total cpu time spent up to now is       23.0 secs

     per-process dynamical memory:    50.7 Mb

     Self-consistent Calculation

     iteration #  1     ecut=    30.00 Ry     beta=0.70
     Davidson diagonalization with overlap
     ethr =  1.00E-06,  avg # of iterations =  4.0

     negative rho (up, down):  1.320E-05 0.000E+00

     total cpu time spent up to now is       23.3 secs

     total energy              =    -329.49093287 Ry
     Harris-Foulkes estimate   =    -329.49082720 Ry
     estimated scf accuracy    <       0.00025547 Ry

     iteration #  2     ecut=    30.00 Ry     beta=0.70
     Davidson diagonalization with overlap
     ethr =  4.64E-07,  avg # of iterations =  3.0

     negative rho (up, down):  2.376E-06 0.000E+00

     total cpu time spent up to now is       23.6 secs

     total energy              =    -329.49094286 Ry
     Harris-Foulkes estimate   =    -329.49108948 Ry
     estimated scf accuracy    <       0.00032116 Ry

     iteration #  3     ecut=    30.00 Ry     beta=0.70
     Davidson diagonalization with overlap
     ethr =  4.64E-07,  avg # of iterations =  2.0

     negative rho (up, down):  4.646E-08 0.000E+00

     total cpu time spent up to now is       23.8 secs

     total energy              =    -329.49101162 Ry
     Harris-Foulkes estimate   =    -329.49104513 Ry
     estimated scf accuracy    <       0.00009569 Ry

     iteration #  4     ecut=    30.00 Ry     beta=0.70
     Davidson diagonalization with overlap
     ethr =  1.74E-07,  avg # of iterations =  2.0

     total cpu time spent up to now is       24.0 secs

     total energy              =    -329.49102967 Ry
     Harris-Foulkes estimate   =    -329.49103256 Ry
     estimated scf accuracy    <       0.00000696 Ry

     iteration #  5     ecut=    30.00 Ry     beta=0.70
     Davidson diagonalization with overlap
     ethr =  1.27E-08,  avg # of iterations =  2.0

     total cpu time spent up to now is       24.2 secs

     total energy              =    -329.49103072 Ry
     Harris-Foulkes estimate   =    -329.49103219 Ry
     estimated scf accuracy    <       0.00000353 Ry

     iteration #  6     ecut=    30.00 Ry     beta=0.70
     Davidson diagonalization with overlap
     ethr =  6.42E-09,  avg # of iterations =  2.0

     total cpu time spent up to now is       24.4 secs

     total energy              =    -329.49103127 Ry
     Harris-Foulkes estimate   =    -329.49103138 Ry
     estimated scf accuracy    <       0.00000019 Ry

     iteration #  7     ecut=    30.00 Ry     beta=0.70
     Davidson diagonalization with overlap
     ethr =  3.54E-10,  avg # of iterations =  3.0

     total cpu time spent up to now is       24.6 secs

     total energy              =    -329.49103122 Ry
     Harris-Foulkes estimate   =    -329.49103133 Ry
     estimated scf accuracy    <       0.00000002 Ry

     iteration #  8     ecut=    30.00 Ry     beta=0.70
     Davidson diagonalization with overlap
     ethr =  4.49E-11,  avg # of iterations =  2.0

     total cpu time spent up to now is       24.9 secs

     total energy              =    -329.49103133 Ry
     Harris-Foulkes estimate   =    -329.49103123 Ry
     estimated scf accuracy    <          5.7E-09 Ry

     iteration #  9     ecut=    30.00 Ry     beta=0.70
     Davidson diagonalization with overlap
     ethr =  1.04E-11,  avg # of iterations =  2.0

     total cpu time spent up to now is       25.1 secs

     total energy              =    -329.49103130 Ry
     Harris-Foulkes estimate   =    -329.49103133 Ry
     estimated scf accuracy    <          1.2E-09 Ry

     iteration # 10     ecut=    30.00 Ry     beta=0.70
     Davidson diagonalization with overlap
     ethr =  2.22E-12,  avg # of iterations =  3.0

     total cpu time spent up to now is       25.3 secs

     End of self-consistent calculation

          k = 0.0000 0.0000 0.0000 ( 22119 PWs)   bands (ev):

    -8.4890  -7.7876  -7.6734  -7.2633  -6.9630  -6.7996  -6.6337  -6.4943
    -6.3071  -6.0457  -5.9824  -5.7556  -5.7277  -5.6717  -5.4241  -5.4030
    -5.3225  -5.2273  -5.2124  -5.1891  -5.1627  -5.1210  -4.9989  -4.9233
    -4.8686  -4.6571  -4.4699  -3.7718  -2.4781  -2.1615  -0.5238  -0.1948
     0.5250   0.7055

     the Fermi energy is    -3.7408 ev

!    total energy              =    -329.49103127 Ry
     Harris-Foulkes estimate   =    -329.49103130 Ry
     estimated scf accuracy    <          3.4E-10 Ry

     The total energy is the sum of the following terms:

     one-electron contribution =    -608.92440147 Ry
     hartree contribution      =     325.89260341 Ry
     xc contribution           =     -51.40592645 Ry
     ewald contribution        =       4.95060101 Ry
     smearing contrib. (-TS)   =      -0.00390776 Ry

     convergence has been achieved in  10 iterations

     Forces acting on atoms (Ry/au):

     atom    1 type  1   force =     0.00003763    0.00047527   -0.00308228
     atom    2 type  1   force =    -0.00251804    0.00244686    0.00102750
     atom    3 type  1   force =    -0.00248657    0.00030931   -0.00050301
     atom    4 type  1   force =     0.00205908   -0.00192063    0.00215040
     atom    5 type  1   force =     0.00290790   -0.00131080    0.00040739

     Total force =     0.007248     Total SCF correction =     0.000083

     number of scf cycles    =  10
     number of bfgs steps    =   9

     energy   old            =    -329.4906248557 Ry
     energy   new            =    -329.4910312732 Ry

     CASE: energy  _new < energy  _old

     new trust radius        =       0.0191331496 bohr
     new conv_thr            =       0.0000000003 Ry


ATOMIC_POSITIONS (bohr)
Au      -2.129510823   3.033631809  -0.474160616
Au      -0.390841122   4.533829891   4.160248397
Au       2.748293478   2.133021466   0.619718868
Au       4.582336071   4.249843374   5.461908235
Au       7.340048397   1.168209460   2.413755116



     Writing output data file pwscf.save
     Check: negative starting charge=   -0.006381
     NEW-OLD atomic charge density approx. for the potential
     Check: negative starting charge=   -0.006382

     negative rho (up, down):  7.662E-05 0.000E+00

     total cpu time spent up to now is       25.5 secs

     per-process dynamical memory:    50.7 Mb

     Self-consistent Calculation

     iteration #  1     ecut=    30.00 Ry     beta=0.70
     Davidson diagonalization with overlap
     ethr =  1.00E-06,  avg # of iterations =  4.0

     negative rho (up, down):  4.890E-07 0.000E+00

     total cpu time spent up to now is       25.9 secs

     total energy              =    -329.49110862 Ry
     Harris-Foulkes estimate   =    -329.49110787 Ry
     estimated scf accuracy    <       0.00006213 Ry

     iteration #  2     ecut=    30.00 Ry     beta=0.70
     Davidson diagonalization with overlap
     ethr =  1.13E-07,  avg # of iterations =  3.0

     total cpu time spent up to now is       26.1 secs

     total energy              =    -329.49111664 Ry
     Harris-Foulkes estimate   =    -329.49113942 Ry
     estimated scf accuracy    <       0.00004626 Ry

     iteration #  3     ecut=    30.00 Ry     beta=0.70
     Davidson diagonalization with overlap
     ethr =  8.41E-08,  avg # of iterations =  2.0

     total cpu time spent up to now is       26.3 secs

     total energy              =    -329.49112588 Ry
     Harris-Foulkes estimate   =    -329.49113222 Ry
     estimated scf accuracy    <       0.00001635 Ry

     iteration #  4     ecut=    30.00 Ry     beta=0.70
     Davidson diagonalization with overlap
     ethr =  2.97E-08,  avg # of iterations =  2.0

     total cpu time spent up to now is       26.5 secs

     total energy              =    -329.49112893 Ry
     Harris-Foulkes estimate   =    -329.49113060 Ry
     estimated scf accuracy    <       0.00000333 Ry

     iteration #  5     ecut=    30.00 Ry     beta=0.70
     Davidson diagonalization with overlap
     ethr =  6.05E-09,  avg # of iterations =  2.0

     total cpu time spent up to now is       26.7 secs

     total energy              =    -329.49112949 Ry
     Harris-Foulkes estimate   =    -329.49112964 Ry
     estimated scf accuracy    <       0.00000037 Ry

     iteration #  6     ecut=    30.00 Ry     beta=0.70
     Davidson diagonalization with overlap
     ethr =  6.68E-10,  avg # of iterations =  2.0

     total cpu time spent up to now is       26.9 secs

     total energy              =    -329.49112957 Ry
     Harris-Foulkes estimate   =    -329.49112959 Ry
     estimated scf accuracy    <       0.00000005 Ry

     iteration #  7     ecut=    30.00 Ry     beta=0.70
     Davidson diagonalization with overlap
     ethr =  8.43E-11,  avg # of iterations =  2.0

     total cpu time spent up to now is       27.2 secs

     total energy              =    -329.49112954 Ry
     Harris-Foulkes estimate   =    -329.49112959 Ry
     estimated scf accuracy    <       0.00000001 Ry

     iteration #  8     ecut=    30.00 Ry     beta=0.70
     Davidson diagonalization with overlap
     ethr =  1.83E-11,  avg # of iterations =  2.0

     total cpu time spent up to now is       27.4 secs

     total energy              =    -329.49112951 Ry
     Harris-Foulkes estimate   =    -329.49112955 Ry
     estimated scf accuracy    <          6.7E-10 Ry

     iteration #  9     ecut=    30.00 Ry     beta=0.70
     Davidson diagonalization with overlap
     ethr =  1.23E-12,  avg # of iterations =  3.0

     total cpu time spent up to now is       27.6 secs

     End of self-consistent calculation

          k = 0.0000 0.0000 0.0000 ( 22119 PWs)   bands (ev):

    -8.4910  -7.7812  -7.6633  -7.2453  -6.9482  -6.8006  -6.6188  -6.4893
    -6.2947  -6.0510  -5.9755  -5.7542  -5.7275  -5.6714  -5.4245  -5.3979
    -5.3203  -5.2308  -5.2118  -5.1896  -5.1607  -5.1214  -4.9951  -4.9286
    -4.8700  -4.6612  -4.4776  -3.7746  -2.4712  -2.1761  -0.5224  -0.1954
     0.5230   0.7078

     the Fermi energy is    -3.7430 ev

!    total energy              =    -329.49112951 Ry
     Harris-Foulkes estimate   =    -329.49112951 Ry
     estimated scf accuracy    <          2.1E-10 Ry

     The total energy is the sum of the following terms:

     one-electron contribution =    -608.24013711 Ry
     hartree contribution      =     325.55365629 Ry
     xc contribution           =     -51.40302045 Ry
     ewald contribution        =       4.60241629 Ry
     smearing contrib. (-TS)   =      -0.00404453 Ry

     convergence has been achieved in   9 iterations

     Forces acting on atoms (Ry/au):

     atom    1 type  1   force =     0.00096579    0.00104922   -0.00125754
     atom    2 type  1   force =    -0.00190183    0.00174075   -0.00059370
     atom    3 type  1   force =    -0.00355679    0.00067528   -0.00101985
     atom    4 type  1   force =     0.00107464   -0.00232915    0.00160386
     atom    5 type  1   force =     0.00341818   -0.00113610    0.00126723

     Total force =     0.006964     Total SCF correction =     0.000057

     number of scf cycles    =  11
     number of bfgs steps    =  10

     energy   old            =    -329.4910312732 Ry
     energy   new            =    -329.4911295108 Ry

     CASE: energy  _new < energy  _old

     new trust radius        =       0.0159996668 bohr
     new conv_thr            =            1.0E-10 Ry


ATOMIC_POSITIONS (bohr)
Au      -2.125598355   3.032222025  -0.489610355
Au      -0.398612233   4.543218876   4.165651130
Au       2.742304986   2.135945412   0.629280825
Au       4.589441887   4.243612599   5.469027197
Au       7.342789715   1.163537088   2.407121202



     Writing output data file pwscf.save
     Check: negative starting charge=   -0.006382
     NEW-OLD atomic charge density approx. for the potential
     Check: negative starting charge=   -0.006383

     negative rho (up, down):  4.814E-05 0.000E+00

     total cpu time spent up to now is       27.8 secs

     per-process dynamical memory:    50.7 Mb

     Self-consistent Calculation

     iteration #  1     ecut=    30.00 Ry     beta=0.70
     Davidson diagonalization with overlap
     ethr =  1.00E-06,  avg # of iterations =  4.0

     Threshold (ethr) on eigenvalues was too large:
     Diagonalizing with lowered threshold

     Davidson diagonalization with overlap
     ethr =  8.18E-08,  avg # of iterations =  1.0

     negative rho (up, down):  1.792E-07 0.000E+00

     total cpu time spent up to now is       28.3 secs

     total energy              =    -329.49119296 Ry
     Harris-Foulkes estimate   =    -329.49119405 Ry
     estimated scf accuracy    <       0.00004484 Ry

     iteration #  2     ecut=    30.00 Ry     beta=0.70
     Davidson diagonalization with overlap
     ethr =  8.15E-08,  avg # of iterations =  3.0

     total cpu time spent up to now is       28.5 secs

     total energy              =    -329.49120094 Ry
     Harris-Foulkes estimate   =    -329.49121298 Ry
     estimated scf accuracy    <       0.00002505 Ry

     iteration #  3     ecut=    30.00 Ry     beta=0.70
     Davidson diagonalization with overlap
     ethr =  4.55E-08,  avg # of iterations =  2.0

     total cpu time spent up to now is       28.8 secs

     total energy              =    -329.49120670 Ry
     Harris-Foulkes estimate   =    -329.49120776 Ry
     estimated scf accuracy    <       0.00000326 Ry

     iteration #  4     ecut=    30.00 Ry     beta=0.70
     Davidson diagonalization with overlap
     ethr =  5.93E-09,  avg # of iterations =  3.0

     total cpu time spent up to now is       29.0 secs

     total energy              =    -329.49120729 Ry
     Harris-Foulkes estimate   =    -329.49120839 Ry
     estimated scf accuracy    <       0.00000321 Ry

     iteration #  5     ecut=    30.00 Ry     beta=0.70
     Davidson diagonalization with overlap
     ethr =  5.85E-09,  avg # of iterations =  2.0

     total cpu time spent up to now is       29.2 secs

     total energy              =    -329.49120773 Ry
     Harris-Foulkes estimate   =    -329.49120798 Ry
     estimated scf accuracy    <       0.00000032 Ry

     iteration #  6     ecut=    30.00 Ry     beta=0.70
     Davidson diagonalization with overlap
     ethr =  5.76E-10,  avg # of iterations =  2.0

     total cpu time spent up to now is       29.4 secs

     total energy              =    -329.49120780 Ry
     Harris-Foulkes estimate   =    -329.49120781 Ry
     estimated scf accuracy    <       0.00000002 Ry

     iteration #  7     ecut=    30.00 Ry     beta=0.70
     Davidson diagonalization with overlap
     ethr =  2.89E-11,  avg # of iterations =  3.0

     total cpu time spent up to now is       29.7 secs

     total energy              =    -329.49120777 Ry
     Harris-Foulkes estimate   =    -329.49120780 Ry
     estimated scf accuracy    <          8.6E-09 Ry

     iteration #  8     ecut=    30.00 Ry     beta=0.70
     Davidson diagonalization with overlap
     ethr =  1.56E-11,  avg # of iterations =  2.0

     total cpu time spent up to now is       29.9 secs

     total energy              =    -329.49120780 Ry
     Harris-Foulkes estimate   =    -329.49120777 Ry
     estimated scf accuracy    <          8.9E-10 Ry

     iteration #  9     ecut=    30.00 Ry     beta=0.70
     Davidson diagonalization with overlap
     ethr =  1.62E-12,  avg # of iterations =  3.0

     total cpu time spent up to now is       30.2 secs

     total energy              =    -329.49120782 Ry
     Harris-Foulkes estimate   =    -329.49120780 Ry
     estimated scf accuracy    <          1.3E-10 Ry

     iteration # 10     ecut=    30.00 Ry     beta=0.70
     Davidson diagonalization with overlap
     ethr =  2.35E-13,  avg # of iterations =  2.0

     total cpu time spent up to now is       30.4 secs

     End of self-consistent calculation

          k = 0.0000 0.0000 0.0000 ( 22119 PWs)   bands (ev):

    -8.4883  -7.7726  -7.6508  -7.2288  -6.9328  -6.7983  -6.6058  -6.4832
    -6.2834  -6.0547  -5.9680  -5.7536  -5.7269  -5.6710  -5.4256  -5.3934
    -5.3180  -5.2335  -5.2111  -5.1890  -5.1604  -5.1221  -4.9936  -4.9341
    -4.8720  -4.6648  -4.4851  -3.7762  -2.4681  -2.1893  -0.5207  -0.1953
     0.5201   0.7086

     the Fermi energy is    -3.7439 ev

!    total energy              =    -329.49120780 Ry
     Harris-Foulkes estimate   =    -329.49120782 Ry
     estimated scf accuracy    <          1.5E-11 Ry

     The total energy is the sum of the following terms:

     one-electron contribution =    -607.45849629 Ry
     hartree contribution      =     325.16643854 Ry
     xc contribution           =     -51.39973630 Ry
     ewald contribution        =       4.20479474 Ry
     smearing contrib. (-TS)   =      -0.00420848 Ry

     convergence has been achieved in  10 iterations

     Forces acting on atoms (Ry/au):

     atom    1 type  1   force =     0.00122474    0.00147856    0.00003137
     atom    2 type  1   force =    -0.00115348    0.00129692   -0.00164919
     atom    3 type  1   force =    -0.00273509    0.00067967   -0.00071389
     atom    4 type  1   force =     0.00001732   -0.00278889    0.00083408
     atom    5 type  1   force =     0.00264651   -0.00066626    0.00149763

     Total force =     0.006003     Total SCF correction =     0.000013

     number of scf cycles    =  12
     number of bfgs steps    =  11

     energy   old            =    -329.4911295108 Ry
     energy   new            =    -329.4912078012 Ry

     CASE: energy  _new < energy  _old

     new trust radius        =       0.0141043503 bohr
     new conv_thr            =            1.0E-10 Ry


ATOMIC_POSITIONS (bohr)
Au      -2.122135990   3.033984212  -0.502691818
Au      -0.407298026   4.553689762   4.168031574
Au       2.734035907   2.138861544   0.634572608
Au       4.595607372   4.233294507   5.476406659
Au       7.350116736   1.158705976   2.405150978



     Writing output data file pwscf.save
     Check: negative starting charge=   -0.006383
     NEW-OLD atomic charge density approx. for the potential
     Check: negative starting charge=   -0.006384

     negative rho (up, down):  4.560E-05 0.000E+00

     total cpu time spent up to now is       30.6 secs

     per-process dynamical memory:    50.7 Mb

     Self-consistent Calculation

     iteration #  1     ecut=    30.00 Ry     beta=0.70
     Davidson diagonalization with overlap
     ethr =  1.00E-06,  avg # of iterations =  4.0

     Threshold (ethr) on eigenvalues was too large:
     Diagonalizing with lowered threshold

     Davidson diagonalization with overlap
     ethr =  8.57E-08,  avg # of iterations =  1.0

     negative rho (up, down):  1.710E-07 0.000E+00

     total cpu time spent up to now is       31.1 secs

     total energy              =    -329.49126238 Ry
     Harris-Foulkes estimate   =    -329.49126766 Ry
     estimated scf accuracy    <       0.00004705 Ry

     iteration #  2     ecut=    30.00 Ry     beta=0.70
     Davidson diagonalization with overlap
     ethr =  8.55E-08,  avg # of iterations =  3.0

     total cpu time spent up to now is       31.3 secs

     total energy              =    -329.49126824 Ry
     Harris-Foulkes estimate   =    -329.49128773 Ry
     estimated scf accuracy    <       0.00004319 Ry

     iteration #  3     ecut=    30.00 Ry     beta=0.70
     Davidson diagonalization with overlap
     ethr =  7.85E-08,  avg # of iterations =  2.0

     total cpu time spent up to now is       31.5 secs

     total energy              =    -329.49127725 Ry
     Harris-Foulkes estimate   =    -329.49128113 Ry
     estimated scf accuracy    <       0.00001051 Ry

     iteration #  4     ecut=    30.00 Ry     beta=0.70
     Davidson diagonalization with overlap
     ethr =  1.91E-08,  avg # of iterations =  2.0

     total cpu time spent up to now is       31.7 secs

     total energy              =    -329.49127995 Ry
     Harris-Foulkes estimate   =    -329.49128082 Ry
     estimated scf accuracy    <       0.00000378 Ry

     iteration #  5     ecut=    30.00 Ry     beta=0.70
     Davidson diagonalization with overlap
     ethr =  6.87E-09,  avg # of iterations =  2.0

     total cpu time spent up to now is       31.9 secs

     total energy              =    -329.49128055 Ry
     Harris-Foulkes estimate   =    -329.49128071 Ry
     estimated scf accuracy    <       0.00000025 Ry

     iteration #  6     ecut=    30.00 Ry     beta=0.70
     Davidson diagonalization with overlap
     ethr =  4.62E-10,  avg # of iterations =  2.0

     total cpu time spent up to now is       32.1 secs

     total energy              =    -329.49128054 Ry
     Harris-Foulkes estimate   =    -329.49128063 Ry
     estimated scf accuracy    <       0.00000003 Ry

     iteration #  7     ecut=    30.00 Ry     beta=0.70
     Davidson diagonalization with overlap
     ethr =  6.06E-11,  avg # of iterations =  2.0

     total cpu time spent up to now is       32.4 secs

     total energy              =    -329.49128064 Ry
     Harris-Foulkes estimate   =    -329.49128055 Ry
     estimated scf accuracy    <       0.00000001 Ry

     iteration #  8     ecut=    30.00 Ry     beta=0.70
     Davidson diagonalization with overlap
     ethr =  1.82E-11,  avg # of iterations =  2.0

     total cpu time spent up to now is       32.6 secs

     total energy              =    -329.49128070 Ry
     Harris-Foulkes estimate   =    -329.49128064 Ry
     estimated scf accuracy    <          8.7E-10 Ry

     iteration #  9     ecut=    30.00 Ry     beta=0.70
     Davidson diagonalization with overlap
     ethr =  1.57E-12,  avg # of iterations =  2.0

[...]

     per-process dynamical memory:    50.7 Mb

     Self-consistent Calculation

     iteration #  1     ecut=    30.00 Ry     beta=0.70
     Davidson diagonalization with overlap
     ethr =  1.00E-06,  avg # of iterations =  3.0

     Threshold (ethr) on eigenvalues was too large:
     Diagonalizing with lowered threshold

     Davidson diagonalization with overlap
     ethr =  1.45E-08,  avg # of iterations =  2.0

     total cpu time spent up to now is       66.4 secs

     total energy              =    -329.49269327 Ry
     Harris-Foulkes estimate   =    -329.49269614 Ry
     estimated scf accuracy    <       0.00000849 Ry

     iteration #  2     ecut=    30.00 Ry     beta=0.70
     Davidson diagonalization with overlap
     ethr =  1.54E-08,  avg # of iterations =  2.0

     total cpu time spent up to now is       66.6 secs

     total energy              =    -329.49269292 Ry
     Harris-Foulkes estimate   =    -329.49269983 Ry
     estimated scf accuracy    <       0.00001712 Ry

     iteration #  3     ecut=    30.00 Ry     beta=0.70
     Davidson diagonalization with overlap
     ethr =  1.54E-08,  avg # of iterations =  2.0

     total cpu time spent up to now is       66.8 secs

     total energy              =    -329.49269663 Ry
     Harris-Foulkes estimate   =    -329.49269739 Ry
     estimated scf accuracy    <       0.00000250 Ry

     iteration #  4     ecut=    30.00 Ry     beta=0.70
     Davidson diagonalization with overlap
     ethr =  4.54E-09,  avg # of iterations =  2.0

     total cpu time spent up to now is       67.0 secs

     total energy              =    -329.49269672 Ry
     Harris-Foulkes estimate   =    -329.49269717 Ry
     estimated scf accuracy    <       0.00000020 Ry

     iteration #  5     ecut=    30.00 Ry     beta=0.70
     Davidson diagonalization with overlap
     ethr =  3.58E-10,  avg # of iterations =  3.0

     total cpu time spent up to now is       67.3 secs

     total energy              =    -329.49269677 Ry
     Harris-Foulkes estimate   =    -329.49269680 Ry
     estimated scf accuracy    <       0.00000008 Ry

     iteration #  6     ecut=    30.00 Ry     beta=0.70
     Davidson diagonalization with overlap
     ethr =  1.37E-10,  avg # of iterations =  2.0

     total cpu time spent up to now is       67.5 secs

     total energy              =    -329.49269680 Ry
     Harris-Foulkes estimate   =    -329.49269679 Ry
     estimated scf accuracy    <          6.7E-09 Ry

     iteration #  7     ecut=    30.00 Ry     beta=0.70
     Davidson diagonalization with overlap
     ethr =  1.21E-11,  avg # of iterations =  2.0

     total cpu time spent up to now is       67.7 secs

     total energy              =    -329.49269676 Ry
     Harris-Foulkes estimate   =    -329.49269680 Ry
     estimated scf accuracy    <          1.3E-09 Ry

     iteration #  8     ecut=    30.00 Ry     beta=0.70
     Davidson diagonalization with overlap
     ethr =  2.30E-12,  avg # of iterations =  2.0

     total cpu time spent up to now is       67.9 secs

     total energy              =    -329.49269677 Ry
     Harris-Foulkes estimate   =    -329.49269677 Ry
     estimated scf accuracy    <          3.2E-10 Ry

     iteration #  9     ecut=    30.00 Ry     beta=0.70
     Davidson diagonalization with overlap
     ethr =  5.83E-13,  avg # of iterations =  2.0

     total cpu time spent up to now is       68.1 secs

     End of self-consistent calculation

          k = 0.0000 0.0000 0.0000 ( 22119 PWs)   bands (ev):

    -8.5078  -7.7838  -7.6558  -7.2314  -6.8314  -6.8126  -6.6037  -6.4835
    -6.3028  -6.0793  -5.9431  -5.7670  -5.7268  -5.6801  -5.4632  -5.3549
    -5.3089  -5.2535  -5.1969  -5.1747  -5.1699  -5.1169  -5.0018  -4.9250
    -4.8256  -4.7382  -4.4868  -3.7782  -2.4591  -2.1853  -0.5311  -0.1915
     0.5309   0.7626

     the Fermi energy is    -3.7447 ev

!    total energy              =    -329.49269677 Ry
     Harris-Foulkes estimate   =    -329.49269677 Ry
     estimated scf accuracy    <          7.8E-11 Ry

     The total energy is the sum of the following terms:

     one-electron contribution =    -606.67025341 Ry
     hartree contribution      =     324.77071794 Ry
     xc contribution           =     -51.39775378 Ry
     ewald contribution        =       3.80915502 Ry
     smearing contrib. (-TS)   =      -0.00456252 Ry

     convergence has been achieved in   9 iterations

     Forces acting on atoms (Ry/au):

     atom    1 type  1   force =     0.00091677    0.00051308    0.00015691
     atom    2 type  1   force =    -0.00059769    0.00003794    0.00004833
     atom    3 type  1   force =     0.00012896   -0.00087277   -0.00001960
     atom    4 type  1   force =     0.00078324   -0.00052196   -0.00117174
     atom    5 type  1   force =    -0.00123128    0.00084371    0.00098611

     Total force =     0.002780     Total SCF correction =     0.000033

     number of scf cycles    =  26
     number of bfgs steps    =  25

     energy   old            =    -329.4926794209 Ry
     energy   new            =    -329.4926967674 Ry

     CASE: energy  _new < energy  _old

     new trust radius        =       0.0093180444 bohr
     new conv_thr            =            1.0E-10 Ry


ATOMIC_POSITIONS (bohr)
Au      -1.968856155   3.206851419  -0.598513117
Au      -0.478030082   4.854051242   4.055808734
Au       2.789337421   2.121416775   0.696871725
Au       4.375928701   3.838007007   5.586590376
Au       7.431946114   1.098209556   2.440712281



     Writing output data file pwscf.save
     Check: negative starting charge=   -0.006359
     NEW-OLD atomic charge density approx. for the potential
     Check: negative starting charge=   -0.006351

     negative rho (up, down):  4.027E-06 0.000E+00

     total cpu time spent up to now is       68.3 secs

     per-process dynamical memory:    50.7 Mb

     Self-consistent Calculation

     iteration #  1     ecut=    30.00 Ry     beta=0.70
     Davidson diagonalization with overlap
     ethr =  1.00E-06,  avg # of iterations =  4.0

     Threshold (ethr) on eigenvalues was too large:
     Diagonalizing with lowered threshold

     Davidson diagonalization with overlap
     ethr =  2.83E-08,  avg # of iterations =  1.0

     total cpu time spent up to now is       68.8 secs

     total energy              =    -329.49270543 Ry
     Harris-Foulkes estimate   =    -329.49271112 Ry
     estimated scf accuracy    <       0.00001654 Ry

     iteration #  2     ecut=    30.00 Ry     beta=0.70
     Davidson diagonalization with overlap
     ethr =  3.01E-08,  avg # of iterations =  2.0

     total cpu time spent up to now is       69.0 secs

     total energy              =    -329.49270526 Ry
     Harris-Foulkes estimate   =    -329.49271707 Ry
     estimated scf accuracy    <       0.00002645 Ry

     iteration #  3     ecut=    30.00 Ry     beta=0.70
     Davidson diagonalization with overlap
     ethr =  3.01E-08,  avg # of iterations =  2.0

     total cpu time spent up to now is       69.2 secs

     total energy              =    -329.49271091 Ry
     Harris-Foulkes estimate   =    -329.49271264 Ry
     estimated scf accuracy    <       0.00000500 Ry

     iteration #  4     ecut=    30.00 Ry     beta=0.70
     Davidson diagonalization with overlap
     ethr =  9.10E-09,  avg # of iterations =  2.0

     total cpu time spent up to now is       69.4 secs

     total energy              =    -329.49271182 Ry
     Harris-Foulkes estimate   =    -329.49271208 Ry
     estimated scf accuracy    <       0.00000056 Ry

     iteration #  5     ecut=    30.00 Ry     beta=0.70
     Davidson diagonalization with overlap
     ethr =  1.01E-09,  avg # of iterations =  2.0

     total cpu time spent up to now is       69.6 secs

     total energy              =    -329.49271183 Ry
     Harris-Foulkes estimate   =    -329.49271200 Ry
     estimated scf accuracy    <       0.00000013 Ry

     iteration #  6     ecut=    30.00 Ry     beta=0.70
     Davidson diagonalization with overlap
     ethr =  2.33E-10,  avg # of iterations =  2.0

     total cpu time spent up to now is       69.8 secs

     total energy              =    -329.49271175 Ry
     Harris-Foulkes estimate   =    -329.49271186 Ry
     estimated scf accuracy    <       0.00000002 Ry

     iteration #  7     ecut=    30.00 Ry     beta=0.70
     Davidson diagonalization with overlap
     ethr =  2.74E-11,  avg # of iterations =  2.0

     total cpu time spent up to now is       70.0 secs

     total energy              =    -329.49271172 Ry
     Harris-Foulkes estimate   =    -329.49271175 Ry
     estimated scf accuracy    <          2.9E-09 Ry

     iteration #  8     ecut=    30.00 Ry     beta=0.70
     Davidson diagonalization with overlap
     ethr =  5.29E-12,  avg # of iterations =  2.0

     total cpu time spent up to now is       70.3 secs

     total energy              =    -329.49271170 Ry
     Harris-Foulkes estimate   =    -329.49271173 Ry
     estimated scf accuracy    <          7.4E-10 Ry

     iteration #  9     ecut=    30.00 Ry     beta=0.70
     Davidson diagonalization with overlap
     ethr =  1.34E-12,  avg # of iterations =  2.0

     total cpu time spent up to now is       70.5 secs

     total energy              =    -329.49271171 Ry
     Harris-Foulkes estimate   =    -329.49271170 Ry
     estimated scf accuracy    <          1.3E-10 Ry

     iteration # 10     ecut=    30.00 Ry     beta=0.70
     Davidson diagonalization with overlap
     ethr =  2.38E-13,  avg # of iterations =  2.0

     total cpu time spent up to now is       70.7 secs

     End of self-consistent calculation

          k = 0.0000 0.0000 0.0000 ( 22119 PWs)   bands (ev):

    -8.5050  -7.7827  -7.6500  -7.2317  -6.8353  -6.8117  -6.6098  -6.4800
    -6.3024  -6.0761  -5.9484  -5.7669  -5.7272  -5.6799  -5.4603  -5.3563
    -5.3092  -5.2510  -5.1962  -5.1761  -5.1697  -5.1179  -5.0016  -4.9234
    -4.8292  -4.7371  -4.4844  -3.7779  -2.4603  -2.1835  -0.5306  -0.1928
     0.5313   0.7618

     the Fermi energy is    -3.7446 ev

!    total energy              =    -329.49271171 Ry
     Harris-Foulkes estimate   =    -329.49271171 Ry
     estimated scf accuracy    <          6.3E-12 Ry

     The total energy is the sum of the following terms:

     one-electron contribution =    -606.64522962 Ry
     hartree contribution      =     324.75877775 Ry
     xc contribution           =     -51.39792957 Ry
     ewald contribution        =       3.79618468 Ry
     smearing contrib. (-TS)   =      -0.00451496 Ry

     convergence has been achieved in  10 iterations

     Forces acting on atoms (Ry/au):

     atom    1 type  1   force =     0.00021382    0.00058095   -0.00024616
     atom    2 type  1   force =    -0.00022764    0.00002307    0.00026711
     atom    3 type  1   force =     0.00077854   -0.00085952    0.00059401
     atom    4 type  1   force =     0.00063337   -0.00031594   -0.00122695
     atom    5 type  1   force =    -0.00139809    0.00057144    0.00061198

     Total force =     0.002632     Total SCF correction =     0.000013

     number of scf cycles    =  27
     number of bfgs steps    =  26

     energy   old            =    -329.4926967674 Ry
     energy   new            =    -329.4927117129 Ry

     CASE: energy  _new < energy  _old

     new trust radius        =       0.0079368497 bohr
     new conv_thr            =            1.0E-10 Ry


ATOMIC_POSITIONS (bohr)
Au      -1.964857890   3.210270729  -0.596832269
Au      -0.480021309   4.855834830   4.056681817
Au       2.790133093   2.115597499   0.691533512
Au       4.375428685   3.836068231   5.583863393
Au       7.429643420   1.100764710   2.446223547



     Writing output data file pwscf.save
     Check: negative starting charge=   -0.006351
     NEW-OLD atomic charge density approx. for the potential
     Check: negative starting charge=   -0.006343

     negative rho (up, down):  2.035E-06 0.000E+00

     total cpu time spent up to now is       70.9 secs

     per-process dynamical memory:    50.7 Mb

     Self-consistent Calculation

     iteration #  1     ecut=    30.00 Ry     beta=0.70
     Davidson diagonalization with overlap
     ethr =  1.00E-06,  avg # of iterations =  3.0

     Threshold (ethr) on eigenvalues was too large:
     Diagonalizing with lowered threshold

     Davidson diagonalization with overlap
     ethr =  2.07E-08,  avg # of iterations =  2.0

     total cpu time spent up to now is       71.4 secs

     total energy              =    -329.49271887 Ry
     Harris-Foulkes estimate   =    -329.49272361 Ry
     estimated scf accuracy    <       0.00001231 Ry

     iteration #  2     ecut=    30.00 Ry     beta=0.70
     Davidson diagonalization with overlap
     ethr =  2.24E-08,  avg # of iterations =  2.0

     total cpu time spent up to now is       71.6 secs

     total energy              =    -329.49271920 Ry
     Harris-Foulkes estimate   =    -329.49272731 Ry
     estimated scf accuracy    <       0.00001878 Ry

     iteration #  3     ecut=    30.00 Ry     beta=0.70
     Davidson diagonalization with overlap
     ethr =  2.24E-08,  avg # of iterations =  2.0

     total cpu time spent up to now is       71.8 secs

     total energy              =    -329.49272326 Ry
     Harris-Foulkes estimate   =    -329.49272455 Ry
     estimated scf accuracy    <       0.00000369 Ry

     iteration #  4     ecut=    30.00 Ry     beta=0.70
     Davidson diagonalization with overlap
     ethr =  6.71E-09,  avg # of iterations =  2.0

     total cpu time spent up to now is       72.0 secs

     total energy              =    -329.49272355 Ry
     Harris-Foulkes estimate   =    -329.49272410 Ry
     estimated scf accuracy    <       0.00000037 Ry

     iteration #  5     ecut=    30.00 Ry     beta=0.70
     Davidson diagonalization with overlap
     ethr =  6.79E-10,  avg # of iterations =  2.0

     total cpu time spent up to now is       72.2 secs

     total energy              =    -329.49272365 Ry
     Harris-Foulkes estimate   =    -329.49272367 Ry
     estimated scf accuracy    <       0.00000010 Ry

     iteration #  6     ecut=    30.00 Ry     beta=0.70
     Davidson diagonalization with overlap
     ethr =  1.79E-10,  avg # of iterations =  2.0

     total cpu time spent up to now is       72.4 secs

     total energy              =    -329.49272360 Ry
     Harris-Foulkes estimate   =    -329.49272368 Ry
     estimated scf accuracy    <          7.5E-09 Ry

     iteration #  7     ecut=    30.00 Ry     beta=0.70
     Davidson diagonalization with overlap
     ethr =  1.37E-11,  avg # of iterations =  2.0

     total cpu time spent up to now is       72.7 secs

     total energy              =    -329.49272359 Ry
     Harris-Foulkes estimate   =    -329.49272360 Ry
     estimated scf accuracy    <          1.2E-09 Ry

     iteration #  8     ecut=    30.00 Ry     beta=0.70
     Davidson diagonalization with overlap
     ethr =  2.27E-12,  avg # of iterations =  2.0

     total cpu time spent up to now is       72.9 secs

     total energy              =    -329.49272358 Ry
     Harris-Foulkes estimate   =    -329.49272359 Ry
     estimated scf accuracy    <          2.1E-10 Ry

     iteration #  9     ecut=    30.00 Ry     beta=0.70
     Davidson diagonalization with overlap
     ethr =  3.73E-13,  avg # of iterations =  2.0

     total cpu time spent up to now is       73.1 secs

     total energy              =    -329.49272358 Ry
     Harris-Foulkes estimate   =    -329.49272358 Ry
     estimated scf accuracy    <          1.4E-10 Ry

     iteration # 10     ecut=    30.00 Ry     beta=0.70
     Davidson diagonalization with overlap
     ethr =  2.61E-13,  avg # of iterations =  2.0

     total cpu time spent up to now is       73.3 secs

     End of self-consistent calculation

          k = 0.0000 0.0000 0.0000 ( 22119 PWs)   bands (ev):

    -8.5047  -7.7841  -7.6457  -7.2330  -6.8393  -6.8121  -6.6173  -6.4783
    -6.3021  -6.0741  -5.9543  -5.7672  -5.7280  -5.6800  -5.4580  -5.3574
    -5.3091  -5.2489  -5.1953  -5.1771  -5.1701  -5.1188  -5.0013  -4.9218
    -4.8324  -4.7353  -4.4822  -3.7768  -2.4606  -2.1815  -0.5304  -0.1936
     0.5317   0.7622

     the Fermi energy is    -3.7436 ev

!    total energy              =    -329.49272358 Ry
     Harris-Foulkes estimate   =    -329.49272358 Ry
     estimated scf accuracy    <          4.9E-12 Ry

     The total energy is the sum of the following terms:

     one-electron contribution =    -606.72710132 Ry
     hartree contribution      =     324.79948030 Ry
     xc contribution           =     -51.39849120 Ry
     ewald contribution        =       3.83787856 Ry
     smearing contrib. (-TS)   =      -0.00448992 Ry

     convergence has been achieved in  10 iterations

     Forces acting on atoms (Ry/au):

     atom    1 type  1   force =    -0.00020602    0.00063546   -0.00053511
     atom    2 type  1   force =     0.00012696    0.00000361    0.00040220
     atom    3 type  1   force =     0.00080170   -0.00076240    0.00084471
     atom    4 type  1   force =     0.00018572    0.00002600   -0.00092253
     atom    5 type  1   force =    -0.00090836    0.00009733    0.00021074

     Total force =     0.002148     Total SCF correction =     0.000009

     bfgs converged in  28 scf cycles and  27 bfgs steps
     (criteria: energy <  1.0E-04, force <  1.0E-03)

     End of BFGS Geometry Optimization

     Final energy   =    -329.4927235807 Ry
Begin final coordinates

ATOMIC_POSITIONS (bohr)
Au      -1.964857890   3.210270729  -0.596832269
Au      -0.480021309   4.855834830   4.056681817
Au       2.790133093   2.115597499   0.691533512
Au       4.375428685   3.836068231   5.583863393
Au       7.429643420   1.100764710   2.446223547
End final coordinates



     Writing output data file pwscf.save
 
     init_run     :      0.16s CPU      0.18s WALL (       1 calls)
     electrons    :     63.99s CPU     68.21s WALL (      28 calls)
     update_pot   :      1.76s CPU      2.14s WALL (      27 calls)
     forces       :      1.15s CPU      1.17s WALL (      28 calls)

     Called by init_run:
     wfcinit      :      0.07s CPU      0.08s WALL (       1 calls)
     potinit      :      0.03s CPU      0.03s WALL (       1 calls)

     Called by electrons:
     c_bands      :     48.93s CPU     49.50s WALL (     290 calls)
     sum_band     :      6.82s CPU      6.99s WALL (     290 calls)
     v_of_rho     :      5.55s CPU      5.64s WALL (     306 calls)
     mix_rho      :      2.28s CPU      4.75s WALL (     290 calls)

     Called by c_bands:
     init_us_2    :      0.90s CPU      0.94s WALL (     581 calls)
     cegterg      :     43.69s CPU     44.04s WALL (     290 calls)

     Called by sum_band:

     Called by *egterg:
     h_psi        :     33.83s CPU     34.08s WALL (    1049 calls)
     g_psi        :      0.34s CPU      0.34s WALL (     758 calls)
     cdiaghg      :      2.45s CPU      2.46s WALL (    1009 calls)

     Called by h_psi:
     h_psi:pot    :     33.29s CPU     33.54s WALL (    1049 calls)
     h_psi:calbec :      1.89s CPU      1.89s WALL (    1049 calls)
     vloc_psi     :     29.26s CPU     29.49s WALL (    1049 calls)
     add_vuspsi   :      2.14s CPU      2.15s WALL (    1049 calls)

     General routines
     calbec       :      2.22s CPU      2.24s WALL (    1161 calls)
     fft          :      3.04s CPU      3.12s WALL (    3445 calls)
     fftw         :     30.71s CPU     31.18s WALL (   65012 calls)
     davcio       :      0.33s CPU      2.32s WALL (    2963 calls)
 
     Parallel routines
     fft_scatter  :      7.92s CPU      7.64s WALL (   68457 calls)
 
     PWSCF        :  1m 7.80s CPU     1m13.46s WALL

 
   This run was terminated on:   0: 4:39   4Aug2017            

=------------------------------------------------------------------------------=
   JOB DONE.
=------------------------------------------------------------------------------=
