
     Program PWSCF v.6.0 (svn rev. 13079) starts on  3Aug2017 at 23:35:40 

     This program is part of the open-source Quantum ESPRESSO suite
     for quantum simulation of materials; please cite
         "P. Giannozzi et al., J. Phys.:Condens. Matter 21 395502 (2009);
          URL http://www.quantum-espresso.org", 
     in publications or presentations arising from this work. More details at
     http://www.quantum-espresso.org/quote

     Parallel version (MPI), running on    10 processors
     R & G space division:  proc/nbgrp/npool/nimage =      10
     Reading input from input/multi/minchecks-Gold5-566.in

     Current dimensions of program PWSCF are:
     Max number of different atomic species (ntypx) = 10
     Max number of k-points (npk) =  40000
     Max angular momentum in pseudopotentials (lmaxx) =  3
     Message from routine iosys:
     pot_extrapolation='second-order' not available, using 'atomic'
     Message from routine iosys:
     wfc_extrapolation='second-order' not available, using 'atomic'

     Subspace diagonalization in iterative solution of the eigenvalue problem:
     a serial algorithm will be used

 
     Parallelization info
     --------------------
     sticks:   dense  smooth     PW     G-vecs:    dense   smooth      PW
     Min         380     380     94                17748    17748    2208
     Max         381     381     95                17753    17753    2213
     Sum        3809    3809    949               177509   177509   22119
 


     bravais-lattice index     =            1
     lattice parameter (alat)  =      20.0000  a.u.
     unit-cell volume          =    8000.0000 (a.u.)^3
     number of atoms/cell      =            5
     number of atomic types    =            1
     number of electrons       =        55.00
     number of Kohn-Sham states=           34
     kinetic-energy cutoff     =      30.0000  Ry
     charge density cutoff     =     120.0000  Ry
     convergence threshold     =      1.0E-08
     mixing beta               =       0.7000
     number of iterations used =            8  plain     mixing
     Exchange-correlation      = BLYP ( 1  3  1  3 0 0)
     nstep                     =           50


     celldm(1)=  20.000000  celldm(2)=   0.000000  celldm(3)=   0.000000
     celldm(4)=   0.000000  celldm(5)=   0.000000  celldm(6)=   0.000000

     crystal axes: (cart. coord. in units of alat)
               a(1) = (   1.000000   0.000000   0.000000 )  
               a(2) = (   0.000000   1.000000   0.000000 )  
               a(3) = (   0.000000   0.000000   1.000000 )  

     reciprocal axes: (cart. coord. in units 2 pi/alat)
               b(1) = (  1.000000  0.000000  0.000000 )  
               b(2) = (  0.000000  1.000000  0.000000 )  
               b(3) = (  0.000000  0.000000  1.000000 )  


     PseudoPot. # 1 for Au read from file:
     ./Au.blyp-d-hgh.UPF
     MD5 check sum: c10d8bae01f806c36a1643a1c69a8479
     Pseudo is Norm-conserving, Zval = 11.0
     Generated in analytical, separable form
     Using radial grid of 1279 points,  6 beta functions with: 
                l(1) =   0
                l(2) =   0
                l(3) =   1
                l(4) =   1
                l(5) =   2
                l(6) =   2

     atomic species   valence    mass     pseudopotential
        Au            11.00    28.08600     Au( 1.00)

     No symmetry found



   Cartesian axes

     site n.     atom                  positions (alat units)
         1           Au  tau(   1) = (  -0.0951477   0.0776807  -0.0214453  )
         2           Au  tau(   2) = (  -0.0313109   0.1364364   0.2319567  )
         3           Au  tau(   3) = (   0.1503917   0.0827907   0.0288575  )
         4           Au  tau(   4) = (   0.2071401   0.1824511   0.2778113  )
         5           Au  tau(   5) = (   0.3835839   0.0993841   0.1205871  )

     number of k points=     1  Marzari-Vanderbilt smearing, width (Ry)=  0.0250
                       cart. coord. in units 2pi/alat
        k(    1) = (   0.0000000   0.0000000   0.0000000), wk =   2.0000000

     Dense  grid:   177509 G-vectors     FFT dimensions: (  72,  72,  72)

     Estimated max dynamical RAM per process >      15.04Mb

     Estimated total allocated dynamical RAM >     150.39Mb

     Initial potential from superposition of free atoms
     Check: negative starting charge=   -0.006526

     starting charge   54.99940, renormalised to   55.00000

     negative rho (up, down):  6.526E-03 0.000E+00
     Starting wfc are   45 randomized atomic wfcs

     total cpu time spent up to now is        0.4 secs

     per-process dynamical memory:    41.0 Mb

     Self-consistent Calculation

     iteration #  1     ecut=    30.00 Ry     beta=0.70
     Davidson diagonalization with overlap
     ethr =  1.00E-02,  avg # of iterations =  3.0

     Threshold (ethr) on eigenvalues was too large:
     Diagonalizing with lowered threshold

     Davidson diagonalization with overlap
     ethr =  4.09E-04,  avg # of iterations =  7.0

     negative rho (up, down):  8.993E-04 0.000E+00

     total cpu time spent up to now is        0.8 secs

     total energy              =    -329.37163829 Ry
     Harris-Foulkes estimate   =    -329.54204065 Ry
     estimated scf accuracy    <       0.28337688 Ry

     iteration #  2     ecut=    30.00 Ry     beta=0.70
     Davidson diagonalization with overlap
     ethr =  5.15E-04,  avg # of iterations =  6.0

     negative rho (up, down):  3.848E-04 0.000E+00

     total cpu time spent up to now is        1.1 secs

     total energy              =    -329.42041286 Ry
     Harris-Foulkes estimate   =    -329.54925443 Ry
     estimated scf accuracy    <       0.25798977 Ry

     iteration #  3     ecut=    30.00 Ry     beta=0.70
     Davidson diagonalization with overlap
     ethr =  4.69E-04,  avg # of iterations =  2.0

     negative rho (up, down):  1.602E-04 0.000E+00

     total cpu time spent up to now is        1.4 secs

     total energy              =    -329.47107879 Ry
     Harris-Foulkes estimate   =    -329.49515713 Ry
     estimated scf accuracy    <       0.06288071 Ry

     iteration #  4     ecut=    30.00 Ry     beta=0.70
     Davidson diagonalization with overlap
     ethr =  1.14E-04,  avg # of iterations =  2.0

     negative rho (up, down):  1.309E-05 0.000E+00

     total cpu time spent up to now is        1.6 secs

     total energy              =    -329.48223196 Ry
     Harris-Foulkes estimate   =    -329.48405911 Ry
     estimated scf accuracy    <       0.00465726 Ry

     iteration #  5     ecut=    30.00 Ry     beta=0.70
     Davidson diagonalization with overlap
     ethr =  8.47E-06,  avg # of iterations =  6.0

     total cpu time spent up to now is        1.9 secs

     total energy              =    -329.48329102 Ry
     Harris-Foulkes estimate   =    -329.48410856 Ry
     estimated scf accuracy    <       0.00223165 Ry

     iteration #  6     ecut=    30.00 Ry     beta=0.70
     Davidson diagonalization with overlap
     ethr =  4.06E-06,  avg # of iterations =  2.0

     total cpu time spent up to now is        2.1 secs

     total energy              =    -329.48364066 Ry
     Harris-Foulkes estimate   =    -329.48378441 Ry
     estimated scf accuracy    <       0.00032551 Ry

     iteration #  7     ecut=    30.00 Ry     beta=0.70
     Davidson diagonalization with overlap
     ethr =  5.92E-07,  avg # of iterations =  2.0

     total cpu time spent up to now is        2.4 secs

     total energy              =    -329.48370589 Ry
     Harris-Foulkes estimate   =    -329.48374467 Ry
     estimated scf accuracy    <       0.00009577 Ry

     iteration #  8     ecut=    30.00 Ry     beta=0.70
     Davidson diagonalization with overlap
     ethr =  1.74E-07,  avg # of iterations =  2.0

     total cpu time spent up to now is        2.6 secs

     total energy              =    -329.48372331 Ry
     Harris-Foulkes estimate   =    -329.48373440 Ry
     estimated scf accuracy    <       0.00002853 Ry

     iteration #  9     ecut=    30.00 Ry     beta=0.70
     Davidson diagonalization with overlap
     ethr =  5.19E-08,  avg # of iterations =  2.0

     total cpu time spent up to now is        2.8 secs

     total energy              =    -329.48372868 Ry
     Harris-Foulkes estimate   =    -329.48372916 Ry
     estimated scf accuracy    <       0.00000090 Ry

     iteration # 10     ecut=    30.00 Ry     beta=0.70
     Davidson diagonalization with overlap
     ethr =  1.63E-09,  avg # of iterations =  3.0

     total cpu time spent up to now is        3.1 secs

     total energy              =    -329.48372884 Ry
     Harris-Foulkes estimate   =    -329.48372912 Ry
     estimated scf accuracy    <       0.00000040 Ry

     iteration # 11     ecut=    30.00 Ry     beta=0.70
     Davidson diagonalization with overlap
     ethr =  7.35E-10,  avg # of iterations =  2.0

     total cpu time spent up to now is        3.3 secs

     total energy              =    -329.48372888 Ry
     Harris-Foulkes estimate   =    -329.48372892 Ry
     estimated scf accuracy    <       0.00000003 Ry

     iteration # 12     ecut=    30.00 Ry     beta=0.70
     Davidson diagonalization with overlap
     ethr =  6.13E-11,  avg # of iterations =  3.0

     total cpu time spent up to now is        3.6 secs

     total energy              =    -329.48372887 Ry
     Harris-Foulkes estimate   =    -329.48372890 Ry
     estimated scf accuracy    <       0.00000002 Ry

     iteration # 13     ecut=    30.00 Ry     beta=0.70
     Davidson diagonalization with overlap
     ethr =  3.15E-11,  avg # of iterations =  2.0

     total cpu time spent up to now is        3.8 secs

     End of self-consistent calculation

          k = 0.0000 0.0000 0.0000 ( 22119 PWs)   bands (ev):

    -8.5040  -7.8136  -7.7209  -7.3166  -7.0102  -6.8209  -6.6010  -6.4780
    -6.3514  -6.0047  -5.9379  -5.7839  -5.7154  -5.7061  -5.4324  -5.3612
    -5.3336  -5.2236  -5.2037  -5.1843  -5.1366  -5.1152  -4.9668  -4.8742
    -4.7850  -4.7012  -4.3688  -3.8364  -2.4851  -2.1162  -0.5597  -0.2446
     0.5195   0.9006

     the Fermi energy is    -3.8325 ev

!    total energy              =    -329.48372886 Ry
     Harris-Foulkes estimate   =    -329.48372888 Ry
     estimated scf accuracy    <          3.8E-09 Ry

     The total energy is the sum of the following terms:

     one-electron contribution =    -613.71036316 Ry
     hartree contribution      =     328.30958290 Ry
     xc contribution           =     -51.43505184 Ry
     ewald contribution        =       7.35052568 Ry
     smearing contrib. (-TS)   =       0.00157756 Ry

     convergence has been achieved in  13 iterations

     Forces acting on atoms (Ry/au):

     atom    1 type  1   force =    -0.00106865    0.00166642    0.00732505
     atom    2 type  1   force =    -0.02800226   -0.00637386   -0.02052980
     atom    3 type  1   force =    -0.00695622    0.00115841    0.00583939
     atom    4 type  1   force =     0.01906763    0.00845841    0.01354812
     atom    5 type  1   force =     0.01695950   -0.00490939   -0.00618276

     Total force =     0.048541     Total SCF correction =     0.000226

     BFGS Geometry Optimization

     number of scf cycles    =   1
     number of bfgs steps    =   0

     energy   new            =    -329.4837288635 Ry

     new trust radius        =       0.0353019145 bohr
     new conv_thr            =       0.0000000100 Ry


ATOMIC_POSITIONS (bohr)
Au      -1.904022647   1.555281422  -0.421580949
Au      -0.654221255   2.722355145   4.618603197
Au       3.000876777   1.656972413   0.582989390
Au       4.161870629   3.657480413   5.569774125
Au       7.688637497   1.982771607   2.405558238



     Writing output data file pwscf.save
     Check: negative starting charge=   -0.006526
     NEW-OLD atomic charge density approx. for the potential
     Check: negative starting charge=   -0.006520

     negative rho (up, down):  1.895E-04 0.000E+00

     total cpu time spent up to now is        4.1 secs

     per-process dynamical memory:    42.9 Mb

     Self-consistent Calculation

     iteration #  1     ecut=    30.00 Ry     beta=0.70
     Davidson diagonalization with overlap
     ethr =  1.00E-06,  avg # of iterations =  4.0

     negative rho (up, down):  3.322E-06 0.000E+00

     total cpu time spent up to now is        4.5 secs

     total energy              =    -329.48569092 Ry
     Harris-Foulkes estimate   =    -329.48567689 Ry
     estimated scf accuracy    <       0.00014061 Ry

     iteration #  2     ecut=    30.00 Ry     beta=0.70
     Davidson diagonalization with overlap
     ethr =  2.56E-07,  avg # of iterations =  3.0

     negative rho (up, down):  8.709E-07 0.000E+00

     total cpu time spent up to now is        4.7 secs

     total energy              =    -329.48566180 Ry
     Harris-Foulkes estimate   =    -329.48583153 Ry
     estimated scf accuracy    <       0.00046578 Ry

     iteration #  3     ecut=    30.00 Ry     beta=0.70
     Davidson diagonalization with overlap
     ethr =  2.56E-07,  avg # of iterations =  2.0

     total cpu time spent up to now is        5.0 secs

     total energy              =    -329.48575188 Ry
     Harris-Foulkes estimate   =    -329.48575569 Ry
     estimated scf accuracy    <       0.00002535 Ry

     iteration #  4     ecut=    30.00 Ry     beta=0.70
     Davidson diagonalization with overlap
     ethr =  4.61E-08,  avg # of iterations =  2.0

     total cpu time spent up to now is        5.2 secs

     total energy              =    -329.48575702 Ry
     Harris-Foulkes estimate   =    -329.48575800 Ry
     estimated scf accuracy    <       0.00000508 Ry

     iteration #  5     ecut=    30.00 Ry     beta=0.70
     Davidson diagonalization with overlap
     ethr =  9.24E-09,  avg # of iterations =  2.0

     total cpu time spent up to now is        5.4 secs

     total energy              =    -329.48575822 Ry
     Harris-Foulkes estimate   =    -329.48575909 Ry
     estimated scf accuracy    <       0.00000321 Ry

     iteration #  6     ecut=    30.00 Ry     beta=0.70
     Davidson diagonalization with overlap
     ethr =  5.83E-09,  avg # of iterations =  2.0

     total cpu time spent up to now is        5.7 secs

     total energy              =    -329.48575888 Ry
     Harris-Foulkes estimate   =    -329.48575881 Ry
     estimated scf accuracy    <       0.00000012 Ry

     iteration #  7     ecut=    30.00 Ry     beta=0.70
     Davidson diagonalization with overlap
     ethr =  2.12E-10,  avg # of iterations =  3.0

     total cpu time spent up to now is        5.9 secs

     total energy              =    -329.48575900 Ry
     Harris-Foulkes estimate   =    -329.48575893 Ry
     estimated scf accuracy    <       0.00000003 Ry

     iteration #  8     ecut=    30.00 Ry     beta=0.70
     Davidson diagonalization with overlap
     ethr =  5.45E-11,  avg # of iterations =  3.0

     total cpu time spent up to now is        6.2 secs

     End of self-consistent calculation

          k = 0.0000 0.0000 0.0000 ( 22119 PWs)   bands (ev):

    -8.4875  -7.7820  -7.6989  -7.2817  -6.9877  -6.8079  -6.6092  -6.4690
    -6.3349  -6.0090  -5.9511  -5.7813  -5.7151  -5.7027  -5.4279  -5.3620
    -5.3369  -5.2209  -5.1987  -5.1932  -5.1453  -5.1220  -4.9719  -4.8889
    -4.8016  -4.7056  -4.3899  -3.8252  -2.4947  -2.1391  -0.5570  -0.2388
     0.5175   0.8894

     the Fermi energy is    -3.8156 ev

!    total energy              =    -329.48575890 Ry
     Harris-Foulkes estimate   =    -329.48575900 Ry
     estimated scf accuracy    <          6.1E-09 Ry

     The total energy is the sum of the following terms:

     one-electron contribution =    -612.47286779 Ry
     hartree contribution      =     327.69087724 Ry
     xc contribution           =     -51.42607759 Ry
     ewald contribution        =       6.72185668 Ry
     smearing contrib. (-TS)   =       0.00045256 Ry

     convergence has been achieved in   8 iterations

     Forces acting on atoms (Ry/au):

     atom    1 type  1   force =    -0.00250372    0.00125490    0.00608303
     atom    2 type  1   force =    -0.01892735   -0.00421260   -0.01751857
     atom    3 type  1   force =    -0.00304736    0.00140621    0.00700291
     atom    4 type  1   force =     0.01164417    0.00587008    0.01026176
     atom    5 type  1   force =     0.01283426   -0.00431860   -0.00582913

     Total force =     0.035787     Total SCF correction =     0.000281

     number of scf cycles    =   2
     number of bfgs steps    =   1

     energy   old            =    -329.4837288635 Ry
     energy   new            =    -329.4857589040 Ry

     CASE: energy  _new < energy  _old

     new trust radius        =       0.0388321059 bohr
     new conv_thr            =       0.0000000019 Ry


ATOMIC_POSITIONS (bohr)
Au      -1.907582667   1.557144901  -0.412600594
Au      -0.682528276   2.716045043   4.592780190
Au       2.996147960   1.659010963   0.593146266
Au       4.179414015   3.666243653   5.585006874
Au       7.707689968   1.976416440   2.397011264



     Writing output data file pwscf.save
     Check: negative starting charge=   -0.006520
     NEW-OLD atomic charge density approx. for the potential
     Check: negative starting charge=   -0.006521

     negative rho (up, down):  2.339E-04 0.000E+00

     total cpu time spent up to now is        6.4 secs

     per-process dynamical memory:    50.7 Mb

     Self-consistent Calculation

     iteration #  1     ecut=    30.00 Ry     beta=0.70
     Davidson diagonalization with overlap
     ethr =  1.00E-06,  avg # of iterations =  4.0

     negative rho (up, down):  4.917E-06 0.000E+00

     total cpu time spent up to now is        6.8 secs

     total energy              =    -329.48728639 Ry
     Harris-Foulkes estimate   =    -329.48725253 Ry
     estimated scf accuracy    <       0.00016364 Ry

     iteration #  2     ecut=    30.00 Ry     beta=0.70
     Davidson diagonalization with overlap
     ethr =  2.98E-07,  avg # of iterations =  3.0

     negative rho (up, down):  1.255E-06 0.000E+00

     total cpu time spent up to now is        7.0 secs

     total energy              =    -329.48725710 Ry
     Harris-Foulkes estimate   =    -329.48743806 Ry
     estimated scf accuracy    <       0.00048334 Ry

     iteration #  3     ecut=    30.00 Ry     beta=0.70
     Davidson diagonalization with overlap
     ethr =  2.98E-07,  avg # of iterations =  2.0

     total cpu time spent up to now is        7.3 secs

     total energy              =    -329.48735427 Ry
     Harris-Foulkes estimate   =    -329.48736066 Ry
     estimated scf accuracy    <       0.00003476 Ry

     iteration #  4     ecut=    30.00 Ry     beta=0.70
     Davidson diagonalization with overlap
     ethr =  6.32E-08,  avg # of iterations =  2.0

     total cpu time spent up to now is        7.5 secs

     total energy              =    -329.48736180 Ry
     Harris-Foulkes estimate   =    -329.48736222 Ry
     estimated scf accuracy    <       0.00000496 Ry

     iteration #  5     ecut=    30.00 Ry     beta=0.70
     Davidson diagonalization with overlap
     ethr =  9.01E-09,  avg # of iterations =  2.0

     total cpu time spent up to now is        7.8 secs

     total energy              =    -329.48736298 Ry
     Harris-Foulkes estimate   =    -329.48736379 Ry
     estimated scf accuracy    <       0.00000275 Ry

     iteration #  6     ecut=    30.00 Ry     beta=0.70
     Davidson diagonalization with overlap
     ethr =  4.99E-09,  avg # of iterations =  2.0

     total cpu time spent up to now is        8.0 secs

     total energy              =    -329.48736360 Ry
     Harris-Foulkes estimate   =    -329.48736355 Ry
     estimated scf accuracy    <       0.00000019 Ry

     iteration #  7     ecut=    30.00 Ry     beta=0.70
     Davidson diagonalization with overlap
     ethr =  3.40E-10,  avg # of iterations =  2.0

     total cpu time spent up to now is        8.2 secs

     total energy              =    -329.48736369 Ry
     Harris-Foulkes estimate   =    -329.48736366 Ry
     estimated scf accuracy    <       0.00000004 Ry

     iteration #  8     ecut=    30.00 Ry     beta=0.70
     Davidson diagonalization with overlap
     ethr =  6.40E-11,  avg # of iterations =  2.0

     total cpu time spent up to now is        8.5 secs

     total energy              =    -329.48736374 Ry
     Harris-Foulkes estimate   =    -329.48736370 Ry
     estimated scf accuracy    <          7.0E-09 Ry

     iteration #  9     ecut=    30.00 Ry     beta=0.70
     Davidson diagonalization with overlap
     ethr =  1.28E-11,  avg # of iterations =  2.0

     total cpu time spent up to now is        8.7 secs

     End of self-consistent calculation

          k = 0.0000 0.0000 0.0000 ( 22119 PWs)   bands (ev):

    -8.4741  -7.7610  -7.6740  -7.2519  -6.9627  -6.7967  -6.6269  -6.4624
    -6.3140  -6.0144  -5.9662  -5.7776  -5.7186  -5.6965  -5.4229  -5.3724
    -5.3338  -5.2191  -5.2036  -5.1945  -5.1545  -5.1276  -4.9787  -4.9055
    -4.8183  -4.7082  -4.4118  -3.8130  -2.5063  -2.1613  -0.5549  -0.2321
     0.5166   0.8779

     the Fermi energy is    -3.7969 ev

!    total energy              =    -329.48736377 Ry
     Harris-Foulkes estimate   =    -329.48736374 Ry
     estimated scf accuracy    <          1.1E-09 Ry

     The total energy is the sum of the following terms:

     one-electron contribution =    -611.33016914 Ry
     hartree contribution      =     327.11675828 Ry
     xc contribution           =     -51.41725606 Ry
     ewald contribution        =       6.14413278 Ry
     smearing contrib. (-TS)   =      -0.00082964 Ry

     convergence has been achieved in   9 iterations

     Forces acting on atoms (Ry/au):

     atom    1 type  1   force =    -0.00325305    0.00087044    0.00473055
     atom    2 type  1   force =    -0.01153423   -0.00217687   -0.01430727
     atom    3 type  1   force =     0.00034717    0.00158468    0.00759613
     atom    4 type  1   force =     0.00583105    0.00311829    0.00697396
     atom    5 type  1   force =     0.00860906   -0.00339655   -0.00499337

     Total force =     0.025288     Total SCF correction =     0.000159

     number of scf cycles    =   3
     number of bfgs steps    =   2

     energy   old            =    -329.4857589040 Ry
     energy   new            =    -329.4873637695 Ry

     CASE: energy  _new < energy  _old

     new trust radius        =       0.0582481589 bohr
     new conv_thr            =       0.0000000014 Ry


ATOMIC_POSITIONS (bohr)
Au      -1.915711673   1.559912664  -0.398303841
Au      -0.721628879   2.708098699   4.550343809
Au       2.993803416   1.663198244   0.613419098
Au       4.201286350   3.677404918   5.607335509
Au       7.735391786   1.966246474   2.382549425



     Writing output data file pwscf.save
     Check: negative starting charge=   -0.006521
     NEW-OLD atomic charge density approx. for the potential
     Check: negative starting charge=   -0.006528

     negative rho (up, down):  5.310E-04 0.000E+00

     total cpu time spent up to now is        8.9 secs

     per-process dynamical memory:    50.7 Mb

     Self-consistent Calculation

     iteration #  1     ecut=    30.00 Ry     beta=0.70
     Davidson diagonalization with overlap
     ethr =  1.00E-06,  avg # of iterations =  5.0

     negative rho (up, down):  2.227E-05 0.000E+00

     total cpu time spent up to now is        9.4 secs

     total energy              =    -329.48866263 Ry
     Harris-Foulkes estimate   =    -329.48842788 Ry
     estimated scf accuracy    <       0.00034280 Ry

     iteration #  2     ecut=    30.00 Ry     beta=0.70
     Davidson diagonalization with overlap
     ethr =  6.23E-07,  avg # of iterations =  4.0

     negative rho (up, down):  7.400E-06 0.000E+00

     total cpu time spent up to now is        9.7 secs

     total energy              =    -329.48860663 Ry
     Harris-Foulkes estimate   =    -329.48895402 Ry
     estimated scf accuracy    <       0.00089410 Ry

     iteration #  3     ecut=    30.00 Ry     beta=0.70
     Davidson diagonalization with overlap
     ethr =  6.23E-07,  avg # of iterations =  2.0

     negative rho (up, down):  2.125E-08 0.000E+00

     total cpu time spent up to now is        9.9 secs

     total energy              =    -329.48879372 Ry
     Harris-Foulkes estimate   =    -329.48881113 Ry
     estimated scf accuracy    <       0.00008173 Ry

     iteration #  4     ecut=    30.00 Ry     beta=0.70
     Davidson diagonalization with overlap
     ethr =  1.49E-07,  avg # of iterations =  2.0

     total cpu time spent up to now is       10.1 secs

     total energy              =    -329.48881120 Ry
     Harris-Foulkes estimate   =    -329.48881172 Ry
     estimated scf accuracy    <       0.00000883 Ry

     iteration #  5     ecut=    30.00 Ry     beta=0.70
     Davidson diagonalization with overlap
     ethr =  1.60E-08,  avg # of iterations =  2.0

     total cpu time spent up to now is       10.4 secs

     total energy              =    -329.48881287 Ry
     Harris-Foulkes estimate   =    -329.48881445 Ry
     estimated scf accuracy    <       0.00000349 Ry

     iteration #  6     ecut=    30.00 Ry     beta=0.70
     Davidson diagonalization with overlap
     ethr =  6.35E-09,  avg # of iterations =  2.0

     total cpu time spent up to now is       10.6 secs

     total energy              =    -329.48881354 Ry
     Harris-Foulkes estimate   =    -329.48881369 Ry
     estimated scf accuracy    <       0.00000039 Ry

     iteration #  7     ecut=    30.00 Ry     beta=0.70
     Davidson diagonalization with overlap
     ethr =  7.01E-10,  avg # of iterations =  2.0

     total cpu time spent up to now is       10.8 secs

     total energy              =    -329.48881385 Ry
     Harris-Foulkes estimate   =    -329.48881365 Ry
     estimated scf accuracy    <       0.00000006 Ry

     iteration #  8     ecut=    30.00 Ry     beta=0.70
     Davidson diagonalization with overlap
     ethr =  1.15E-10,  avg # of iterations =  2.0

     total cpu time spent up to now is       11.1 secs

     total energy              =    -329.48881390 Ry
     Harris-Foulkes estimate   =    -329.48881387 Ry
     estimated scf accuracy    <       0.00000001 Ry

     iteration #  9     ecut=    30.00 Ry     beta=0.70
     Davidson diagonalization with overlap
     ethr =  2.56E-11,  avg # of iterations =  2.0

     total cpu time spent up to now is       11.3 secs

     total energy              =    -329.48881394 Ry
     Harris-Foulkes estimate   =    -329.48881390 Ry
     estimated scf accuracy    <          2.2E-09 Ry

     iteration # 10     ecut=    30.00 Ry     beta=0.70
     Davidson diagonalization with overlap
     ethr =  3.95E-12,  avg # of iterations =  2.0

     total cpu time spent up to now is       11.5 secs

     End of self-consistent calculation

          k = 0.0000 0.0000 0.0000 ( 22119 PWs)   bands (ev):

    -8.4624  -7.7505  -7.6351  -7.2208  -6.9234  -6.7852  -6.6584  -6.4572
    -6.2825  -6.0228  -5.9874  -5.7712  -5.7233  -5.6890  -5.4143  -5.3945
    -5.3248  -5.2193  -5.2159  -5.1888  -5.1665  -5.1322  -4.9892  -4.9276
    -4.8398  -4.7080  -4.4404  -3.7947  -2.5234  -2.1884  -0.5531  -0.2213
     0.5176   0.8630

     the Fermi energy is    -3.7702 ev

!    total energy              =    -329.48881394 Ry
     Harris-Foulkes estimate   =    -329.48881394 Ry
     estimated scf accuracy    <          3.0E-10 Ry

     The total energy is the sum of the following terms:

     one-electron contribution =    -609.99976167 Ry
     hartree contribution      =     326.44691103 Ry
     xc contribution           =     -51.40684877 Ry
     ewald contribution        =       5.47344591 Ry
     smearing contrib. (-TS)   =      -0.00256044 Ry

     convergence has been achieved in  10 iterations

     Forces acting on atoms (Ry/au):

     atom    1 type  1   force =    -0.00328262    0.00030907    0.00249128
     atom    2 type  1   force =    -0.00334234    0.00078380   -0.00901200
     atom    3 type  1   force =     0.00392098    0.00169092    0.00756836
     atom    4 type  1   force =    -0.00050963   -0.00092886    0.00234125
     atom    5 type  1   force =     0.00321361   -0.00185493   -0.00338890

     Total force =     0.014746     Total SCF correction =     0.000084

     number of scf cycles    =   4
     number of bfgs steps    =   3

     energy   old            =    -329.4873637695 Ry
     energy   new            =    -329.4888139421 Ry

     CASE: energy  _new < energy  _old

     new trust radius        =       0.0545547584 bohr
     new conv_thr            =       0.0000000009 Ry


ATOMIC_POSITIONS (bohr)
Au      -1.926064394   1.562306565  -0.384644168
Au      -0.754738833   2.703835494   4.507195487
Au       2.997887487   1.668679812   0.638914066
Au       4.216364029   3.683599221   5.626421672
Au       7.759692711   1.956439909   2.367456942



     Writing output data file pwscf.save
     Check: negative starting charge=   -0.006528
     NEW-OLD atomic charge density approx. for the potential
     Check: negative starting charge=   -0.006531

     negative rho (up, down):  4.644E-04 0.000E+00

     total cpu time spent up to now is       11.8 secs

     per-process dynamical memory:    50.7 Mb

     Self-consistent Calculation

     iteration #  1     ecut=    30.00 Ry     beta=0.70
     Davidson diagonalization with overlap
     ethr =  1.00E-06,  avg # of iterations =  5.0

     negative rho (up, down):  1.762E-05 0.000E+00

     total cpu time spent up to now is       12.2 secs

     total energy              =    -329.48927256 Ry
     Harris-Foulkes estimate   =    -329.48908665 Ry
     estimated scf accuracy    <       0.00027939 Ry

     iteration #  2     ecut=    30.00 Ry     beta=0.70
     Davidson diagonalization with overlap
     ethr =  5.08E-07,  avg # of iterations =  4.0

     negative rho (up, down):  5.022E-06 0.000E+00

     total cpu time spent up to now is       12.5 secs

     total energy              =    -329.48923651 Ry
     Harris-Foulkes estimate   =    -329.48947863 Ry
     estimated scf accuracy    <       0.00059420 Ry

     iteration #  3     ecut=    30.00 Ry     beta=0.70
     Davidson diagonalization with overlap
     ethr =  5.08E-07,  avg # of iterations =  2.0

     negative rho (up, down):  1.464E-08 0.000E+00

     total cpu time spent up to now is       12.7 secs

     total energy              =    -329.48936883 Ry
     Harris-Foulkes estimate   =    -329.48938974 Ry
     estimated scf accuracy    <       0.00008491 Ry

     iteration #  4     ecut=    30.00 Ry     beta=0.70
     Davidson diagonalization with overlap
     ethr =  1.54E-07,  avg # of iterations =  2.0

     total cpu time spent up to now is       12.9 secs

     total energy              =    -329.48938683 Ry
     Harris-Foulkes estimate   =    -329.48938682 Ry
     estimated scf accuracy    <       0.00000720 Ry

     iteration #  5     ecut=    30.00 Ry     beta=0.70
     Davidson diagonalization with overlap
     ethr =  1.31E-08,  avg # of iterations =  2.0

     total cpu time spent up to now is       13.2 secs

     total energy              =    -329.48938896 Ry
     Harris-Foulkes estimate   =    -329.48938926 Ry
     estimated scf accuracy    <       0.00000191 Ry

     iteration #  6     ecut=    30.00 Ry     beta=0.70
     Davidson diagonalization with overlap
     ethr =  3.46E-09,  avg # of iterations =  2.0

     total cpu time spent up to now is       13.4 secs

     total energy              =    -329.48938948 Ry
     Harris-Foulkes estimate   =    -329.48938943 Ry
     estimated scf accuracy    <       0.00000024 Ry

     iteration #  7     ecut=    30.00 Ry     beta=0.70
     Davidson diagonalization with overlap
     ethr =  4.39E-10,  avg # of iterations =  2.0

     total cpu time spent up to now is       13.6 secs

     total energy              =    -329.48938966 Ry
     Harris-Foulkes estimate   =    -329.48938955 Ry
     estimated scf accuracy    <       0.00000006 Ry

     iteration #  8     ecut=    30.00 Ry     beta=0.70
     Davidson diagonalization with overlap
     ethr =  1.14E-10,  avg # of iterations =  2.0

     total cpu time spent up to now is       13.9 secs

     total energy              =    -329.48938966 Ry
     Harris-Foulkes estimate   =    -329.48938968 Ry
     estimated scf accuracy    <       0.00000001 Ry

     iteration #  9     ecut=    30.00 Ry     beta=0.70
     Davidson diagonalization with overlap
     ethr =  2.19E-11,  avg # of iterations =  2.0

     total cpu time spent up to now is       14.1 secs

     total energy              =    -329.48938968 Ry
     Harris-Foulkes estimate   =    -329.48938967 Ry
     estimated scf accuracy    <          1.9E-09 Ry

     iteration # 10     ecut=    30.00 Ry     beta=0.70
     Davidson diagonalization with overlap
     ethr =  3.39E-12,  avg # of iterations =  2.0

     total cpu time spent up to now is       14.4 secs

     End of self-consistent calculation

          k = 0.0000 0.0000 0.0000 ( 22119 PWs)   bands (ev):

    -8.4609  -7.7564  -7.6039  -7.2078  -6.8881  -6.7796  -6.6832  -6.4580
    -6.2600  -6.0310  -6.0021  -5.7650  -5.7267  -5.6844  -5.4176  -5.4047
    -5.3161  -5.2309  -5.2135  -5.1839  -5.1744  -5.1325  -4.9988  -4.9427
    -4.8539  -4.7053  -4.4620  -3.7776  -2.5382  -2.2059  -0.5529  -0.2101
     0.5214   0.8521

     the Fermi energy is    -3.7473 ev

!    total energy              =    -329.48938972 Ry
     Harris-Foulkes estimate   =    -329.48938968 Ry
     estimated scf accuracy    <          3.0E-10 Ry

     The total energy is the sum of the following terms:

     one-electron contribution =    -609.24894547 Ry
     hartree contribution      =     326.06737978 Ry
     xc contribution           =     -51.40058444 Ry
     ewald contribution        =       5.09659161 Ry
     smearing contrib. (-TS)   =      -0.00383120 Ry

     convergence has been achieved in  10 iterations

     Forces acting on atoms (Ry/au):

     atom    1 type  1   force =    -0.00228777   -0.00046179   -0.00035853
     atom    2 type  1   force =     0.00208327    0.00317458   -0.00313611
     atom    3 type  1   force =     0.00491615    0.00135638    0.00632215
     atom    4 type  1   force =    -0.00413784   -0.00348552   -0.00087442
     atom    5 type  1   force =    -0.00057381   -0.00058364   -0.00195309

     Total force =     0.011416     Total SCF correction =     0.000080

     number of scf cycles    =   5
     number of bfgs steps    =   4

     energy   old            =    -329.4888139421 Ry
     energy   new            =    -329.4893897218 Ry

     CASE: energy  _new < energy  _old

     new trust radius        =       0.0157737673 bohr
     new conv_thr            =       0.0000000006 Ry


ATOMIC_POSITIONS (bohr)
Au      -1.930839670   1.562373518  -0.381744621
Au      -0.761531501   2.706150611   4.493148721
Au       3.003739252   1.671449382   0.651883761
Au       4.216344647   3.681522778   5.630444964
Au       7.765428272   1.953364711   2.361611175



     Writing output data file pwscf.save
     Check: negative starting charge=   -0.006531
     NEW-OLD atomic charge density approx. for the potential
     Check: negative starting charge=   -0.006534

     negative rho (up, down):  2.728E-05 0.000E+00

     total cpu time spent up to now is       14.6 secs

     per-process dynamical memory:    50.7 Mb

     Self-consistent Calculation

     iteration #  1     ecut=    30.00 Ry     beta=0.70
     Davidson diagonalization with overlap
     ethr =  1.00E-06,  avg # of iterations =  4.0

     Threshold (ethr) on eigenvalues was too large:
     Diagonalizing with lowered threshold

     Davidson diagonalization with overlap
     ethr =  5.33E-08,  avg # of iterations =  1.0

     negative rho (up, down):  4.598E-08 0.000E+00

     total cpu time spent up to now is       15.1 secs

     total energy              =    -329.48951879 Ry
     Harris-Foulkes estimate   =    -329.48951438 Ry
     estimated scf accuracy    <       0.00002939 Ry

     iteration #  2     ecut=    30.00 Ry     beta=0.70
     Davidson diagonalization with overlap
     ethr =  5.34E-08,  avg # of iterations =  2.0

     total cpu time spent up to now is       15.4 secs

     total energy              =    -329.48951949 Ry
     Harris-Foulkes estimate   =    -329.48953298 Ry
     estimated scf accuracy    <       0.00002956 Ry

     iteration #  3     ecut=    30.00 Ry     beta=0.70
     Davidson diagonalization with overlap
     ethr =  5.34E-08,  avg # of iterations =  2.0

     total cpu time spent up to now is       15.6 secs

     total energy              =    -329.48952662 Ry
     Harris-Foulkes estimate   =    -329.48953024 Ry
     estimated scf accuracy    <       0.00001202 Ry

     iteration #  4     ecut=    30.00 Ry     beta=0.70
     Davidson diagonalization with overlap
     ethr =  2.19E-08,  avg # of iterations =  2.0

     total cpu time spent up to now is       15.8 secs

     total energy              =    -329.48952987 Ry
     Harris-Foulkes estimate   =    -329.48952940 Ry
     estimated scf accuracy    <       0.00000132 Ry

     iteration #  5     ecut=    30.00 Ry     beta=0.70
     Davidson diagonalization with overlap
     ethr =  2.40E-09,  avg # of iterations =  2.0

     total cpu time spent up to now is       16.1 secs

     total energy              =    -329.48953012 Ry
     Harris-Foulkes estimate   =    -329.48953021 Ry
     estimated scf accuracy    <       0.00000017 Ry

     iteration #  6     ecut=    30.00 Ry     beta=0.70
     Davidson diagonalization with overlap
     ethr =  3.01E-10,  avg # of iterations =  2.0

     total cpu time spent up to now is       16.3 secs

     total energy              =    -329.48953018 Ry
     Harris-Foulkes estimate   =    -329.48953016 Ry
     estimated scf accuracy    <       0.00000002 Ry

     iteration #  7     ecut=    30.00 Ry     beta=0.70
     Davidson diagonalization with overlap
     ethr =  3.75E-11,  avg # of iterations =  2.0

     total cpu time spent up to now is       16.5 secs

     total energy              =    -329.48953019 Ry
     Harris-Foulkes estimate   =    -329.48953019 Ry
     estimated scf accuracy    <          5.8E-09 Ry

     iteration #  8     ecut=    30.00 Ry     beta=0.70
     Davidson diagonalization with overlap
     ethr =  1.06E-11,  avg # of iterations =  2.0

     total cpu time spent up to now is       16.8 secs

     total energy              =    -329.48953020 Ry
     Harris-Foulkes estimate   =    -329.48953019 Ry
     estimated scf accuracy    <          7.7E-10 Ry

     iteration #  9     ecut=    30.00 Ry     beta=0.70
     Davidson diagonalization with overlap
     ethr =  1.39E-12,  avg # of iterations =  2.0

     total cpu time spent up to now is       17.0 secs

     End of self-consistent calculation

          k = 0.0000 0.0000 0.0000 ( 22119 PWs)   bands (ev):

    -8.4652  -7.7628  -7.6032  -7.2124  -6.8816  -6.7803  -6.6860  -6.4621
    -6.2602  -6.0344  -6.0030  -5.7639  -5.7276  -5.6851  -5.4263  -5.4020
    -5.3143  -5.2342  -5.2125  -5.1831  -5.1752  -5.1314  -5.0017  -4.9449
    -4.8537  -4.7053  -4.4665  -3.7733  -2.5412  -2.2067  -0.5542  -0.2064
     0.5238   0.8512

     the Fermi energy is    -3.7419 ev

!    total energy              =    -329.48953025 Ry
     Harris-Foulkes estimate   =    -329.48953020 Ry
     estimated scf accuracy    <          3.0E-10 Ry

     The total energy is the sum of the following terms:

     one-electron contribution =    -609.35520884 Ry
     hartree contribution      =     326.11800193 Ry
     xc contribution           =     -51.40019354 Ry
     ewald contribution        =       5.15196550 Ry
     smearing contrib. (-TS)   =      -0.00409530 Ry

     convergence has been achieved in   9 iterations

     Forces acting on atoms (Ry/au):

     atom    1 type  1   force =    -0.00113827   -0.00066330   -0.00112356
     atom    2 type  1   force =     0.00282304    0.00359023   -0.00129387
     atom    3 type  1   force =     0.00334767    0.00099814    0.00504467
     atom    4 type  1   force =    -0.00431143   -0.00371500   -0.00117670
     atom    5 type  1   force =    -0.00072101   -0.00021007   -0.00145054

     Total force =     0.009981     Total SCF correction =     0.000061

     number of scf cycles    =   6
     number of bfgs steps    =   5

     energy   old            =    -329.4893897218 Ry
     energy   new            =    -329.4895302502 Ry

     CASE: energy  _new < energy  _old

     new trust radius        =       0.0173511440 bohr
     new conv_thr            =       0.0000000001 Ry


ATOMIC_POSITIONS (bohr)
Au      -1.935322870   1.561592040  -0.381113851
Au      -0.763476619   2.712191589   4.481605558
Au       3.011467764   1.674585533   0.667098782
Au       4.211530809   3.675558379   5.632054791
Au       7.768941916   1.950933459   2.355698721



     Writing output data file pwscf.save
     Check: negative starting charge=   -0.006534
     NEW-OLD atomic charge density approx. for the potential
     Check: negative starting charge=   -0.006541

     negative rho (up, down):  3.181E-05 0.000E+00

     total cpu time spent up to now is       17.2 secs

     per-process dynamical memory:    50.7 Mb

     Self-consistent Calculation

     iteration #  1     ecut=    30.00 Ry     beta=0.70
     Davidson diagonalization with overlap
     ethr =  1.00E-06,  avg # of iterations =  4.0

     Threshold (ethr) on eigenvalues was too large:
     Diagonalizing with lowered threshold

     Davidson diagonalization with overlap
     ethr =  6.81E-08,  avg # of iterations =  1.0

     negative rho (up, down):  7.777E-08 0.000E+00

     total cpu time spent up to now is       17.8 secs

     total energy              =    -329.48966783 Ry
     Harris-Foulkes estimate   =    -329.48967169 Ry
     estimated scf accuracy    <       0.00003751 Ry

     iteration #  2     ecut=    30.00 Ry     beta=0.70
     Davidson diagonalization with overlap
     ethr =  6.82E-08,  avg # of iterations =  2.0

     total cpu time spent up to now is       18.0 secs

     total energy              =    -329.48966849 Ry
     Harris-Foulkes estimate   =    -329.48968894 Ry
     estimated scf accuracy    <       0.00004462 Ry

     iteration #  3     ecut=    30.00 Ry     beta=0.70
     Davidson diagonalization with overlap
     ethr =  6.82E-08,  avg # of iterations =  2.0

     total cpu time spent up to now is       18.3 secs

     total energy              =    -329.48967883 Ry
     Harris-Foulkes estimate   =    -329.48968288 Ry
     estimated scf accuracy    <       0.00001310 Ry

     iteration #  4     ecut=    30.00 Ry     beta=0.70
     Davidson diagonalization with overlap
     ethr =  2.38E-08,  avg # of iterations =  2.0

     total cpu time spent up to now is       18.5 secs

     total energy              =    -329.48968213 Ry
     Harris-Foulkes estimate   =    -329.48968189 Ry
     estimated scf accuracy    <       0.00000144 Ry

     iteration #  5     ecut=    30.00 Ry     beta=0.70
     Davidson diagonalization with overlap
     ethr =  2.61E-09,  avg # of iterations =  2.0

     total cpu time spent up to now is       18.7 secs

     total energy              =    -329.48968216 Ry
     Harris-Foulkes estimate   =    -329.48968251 Ry
     estimated scf accuracy    <       0.00000019 Ry

     iteration #  6     ecut=    30.00 Ry     beta=0.70
     Davidson diagonalization with overlap
     ethr =  3.41E-10,  avg # of iterations =  2.0

     total cpu time spent up to now is       18.9 secs

     total energy              =    -329.48968227 Ry
     Harris-Foulkes estimate   =    -329.48968221 Ry
     estimated scf accuracy    <       0.00000002 Ry

     iteration #  7     ecut=    30.00 Ry     beta=0.70
     Davidson diagonalization with overlap
     ethr =  3.89E-11,  avg # of iterations =  2.0

     total cpu time spent up to now is       19.2 secs

     total energy              =    -329.48968228 Ry
     Harris-Foulkes estimate   =    -329.48968227 Ry
     estimated scf accuracy    <          7.0E-09 Ry

     iteration #  8     ecut=    30.00 Ry     beta=0.70
     Davidson diagonalization with overlap
     ethr =  1.28E-11,  avg # of iterations =  2.0

     total cpu time spent up to now is       19.4 secs

     total energy              =    -329.48968228 Ry
     Harris-Foulkes estimate   =    -329.48968228 Ry
     estimated scf accuracy    <          1.1E-09 Ry

     iteration #  9     ecut=    30.00 Ry     beta=0.70
     Davidson diagonalization with overlap
     ethr =  2.00E-12,  avg # of iterations =  2.0

     total cpu time spent up to now is       19.6 secs

     total energy              =    -329.48968231 Ry
     Harris-Foulkes estimate   =    -329.48968228 Ry
     estimated scf accuracy    <          3.7E-10 Ry

     iteration # 10     ecut=    30.00 Ry     beta=0.70
     Davidson diagonalization with overlap
     ethr =  6.74E-13,  avg # of iterations =  2.0

     total cpu time spent up to now is       19.9 secs

     End of self-consistent calculation

          k = 0.0000 0.0000 0.0000 ( 22119 PWs)   bands (ev):

    -8.4732  -7.7712  -7.6127  -7.2227  -6.8808  -6.7832  -6.6841  -6.4691
    -6.2668  -6.0387  -6.0000  -5.7639  -5.7280  -5.6876  -5.4346  -5.3999
    -5.3138  -5.2369  -5.2117  -5.1832  -5.1749  -5.1295  -5.0038  -4.9447
    -4.8492  -4.7069  -4.4684  -3.7713  -2.5419  -2.2034  -0.5565  -0.2035
     0.5269   0.8532

     the Fermi energy is    -3.7393 ev

!    total energy              =    -329.48968231 Ry
     Harris-Foulkes estimate   =    -329.48968231 Ry
     estimated scf accuracy    <          1.6E-11 Ry

     The total energy is the sum of the following terms:

     one-electron contribution =    -609.75390245 Ry
     hartree contribution      =     326.31364875 Ry
     xc contribution           =     -51.40112155 Ry
     ewald contribution        =       5.35590825 Ry
     smearing contrib. (-TS)   =      -0.00421531 Ry

     convergence has been achieved in  10 iterations

     Forces acting on atoms (Ry/au):

     atom    1 type  1   force =     0.00034220   -0.00074996   -0.00146162
     atom    2 type  1   force =     0.00254436    0.00364722   -0.00006653
     atom    3 type  1   force =     0.00078684    0.00048550    0.00333944
     atom    4 type  1   force =    -0.00360352   -0.00348579   -0.00086852
     atom    5 type  1   force =    -0.00006987    0.00010303   -0.00094278

     Total force =     0.007836     Total SCF correction =     0.000019

     number of scf cycles    =   7
     number of bfgs steps    =   6

     energy   old            =    -329.4895302502 Ry
     energy   new            =    -329.4896823092 Ry

     CASE: energy  _new < energy  _old

     new trust radius        =       0.0260267160 bohr
     new conv_thr            =       0.0000000002 Ry


ATOMIC_POSITIONS (bohr)
Au      -1.939633135   1.559257885  -0.383288019
Au      -0.760625439   2.726162316   4.468715050
Au       3.021811255   1.679030032   0.690564684
Au       4.199092331   3.661882804   5.631955497
Au       7.772495988   1.948527964   2.347396787



     Writing output data file pwscf.save
     Check: negative starting charge=   -0.006541
     NEW-OLD atomic charge density approx. for the potential
     Check: negative starting charge=   -0.006558

     negative rho (up, down):  1.255E-04 0.000E+00

     total cpu time spent up to now is       20.1 secs

     per-process dynamical memory:    50.7 Mb

     Self-consistent Calculation

     iteration #  1     ecut=    30.00 Ry     beta=0.70
     Davidson diagonalization with overlap
     ethr =  1.00E-06,  avg # of iterations =  4.0

     negative rho (up, down):  1.474E-06 0.000E+00

     total cpu time spent up to now is       20.5 secs

     total energy              =    -329.48980131 Ry
     Harris-Foulkes estimate   =    -329.48982286 Ry
     estimated scf accuracy    <       0.00011159 Ry

     iteration #  2     ecut=    30.00 Ry     beta=0.70
     Davidson diagonalization with overlap
     ethr =  2.03E-07,  avg # of iterations =  2.0

     negative rho (up, down):  1.767E-07 0.000E+00

     total cpu time spent up to now is       20.8 secs

     total energy              =    -329.48979841 Ry
     Harris-Foulkes estimate   =    -329.48987857 Ry
     estimated scf accuracy    <       0.00018018 Ry

     iteration #  3     ecut=    30.00 Ry     beta=0.70
     Davidson diagonalization with overlap
     ethr =  2.03E-07,  avg # of iterations =  2.0

     total cpu time spent up to now is       21.0 secs

     total energy              =    -329.48983642 Ry
     Harris-Foulkes estimate   =    -329.48984924 Ry
     estimated scf accuracy    <       0.00003613 Ry

     iteration #  4     ecut=    30.00 Ry     beta=0.70
     Davidson diagonalization with overlap
     ethr =  6.57E-08,  avg # of iterations =  2.0

     total cpu time spent up to now is       21.2 secs

     total energy              =    -329.48984414 Ry
     Harris-Foulkes estimate   =    -329.48984451 Ry
     estimated scf accuracy    <       0.00000318 Ry

     iteration #  5     ecut=    30.00 Ry     beta=0.70
     Davidson diagonalization with overlap
     ethr =  5.79E-09,  avg # of iterations =  2.0

     total cpu time spent up to now is       21.5 secs

     total energy              =    -329.48984491 Ry
     Harris-Foulkes estimate   =    -329.48984503 Ry
     estimated scf accuracy    <       0.00000052 Ry

     iteration #  6     ecut=    30.00 Ry     beta=0.70
     Davidson diagonalization with overlap
     ethr =  9.51E-10,  avg # of iterations =  2.0

     total cpu time spent up to now is       21.7 secs

     total energy              =    -329.48984508 Ry
     Harris-Foulkes estimate   =    -329.48984505 Ry
     estimated scf accuracy    <       0.00000006 Ry

     iteration #  7     ecut=    30.00 Ry     beta=0.70
     Davidson diagonalization with overlap
     ethr =  1.02E-10,  avg # of iterations =  2.0

     total cpu time spent up to now is       21.9 secs

     total energy              =    -329.48984517 Ry
     Harris-Foulkes estimate   =    -329.48984509 Ry
     estimated scf accuracy    <          9.3E-09 Ry

     iteration #  8     ecut=    30.00 Ry     beta=0.70
     Davidson diagonalization with overlap
     ethr =  1.69E-11,  avg # of iterations =  2.0

     total cpu time spent up to now is       22.2 secs

     total energy              =    -329.48984519 Ry
     Harris-Foulkes estimate   =    -329.48984517 Ry
     estimated scf accuracy    <          1.6E-09 Ry

     iteration #  9     ecut=    30.00 Ry     beta=0.70
     Davidson diagonalization with overlap
     ethr =  2.95E-12,  avg # of iterations =  2.0

     total cpu time spent up to now is       22.5 secs

     total energy              =    -329.48984519 Ry
     Harris-Foulkes estimate   =    -329.48984519 Ry
     estimated scf accuracy    <          5.9E-10 Ry

     iteration # 10     ecut=    30.00 Ry     beta=0.70
     Davidson diagonalization with overlap
     ethr =  1.08E-12,  avg # of iterations =  2.0

     total cpu time spent up to now is       22.6 secs

     End of self-consistent calculation

          k = 0.0000 0.0000 0.0000 ( 22119 PWs)   bands (ev):

    -8.4891  -7.7851  -7.6395  -7.2424  -6.8858  -6.7907  -6.6755  -6.4830
    -6.2829  -6.0459  -5.9912  -5.7658  -5.7278  -5.6932  -5.4455  -5.3977
    -5.3148  -5.2404  -5.2107  -5.1846  -5.1728  -5.1259  -5.0056  -4.9416
    -4.8374  -4.7113  -4.4682  -3.7714  -2.5401  -2.1939  -0.5611  -0.2004
     0.5319   0.8596

     the Fermi energy is    -3.7394 ev

!    total energy              =    -329.48984519 Ry
     Harris-Foulkes estimate   =    -329.48984519 Ry
     estimated scf accuracy    <          1.0E-10 Ry

     The total energy is the sum of the following terms:

     one-electron contribution =    -610.63509841 Ry
     hartree contribution      =     326.74789323 Ry
     xc contribution           =     -51.40397125 Ry
     ewald contribution        =       5.80554668 Ry
     smearing contrib. (-TS)   =      -0.00421545 Ry

     convergence has been achieved in  10 iterations

     Forces acting on atoms (Ry/au):

     atom    1 type  1   force =     0.00224230   -0.00076944   -0.00151634
     atom    2 type  1   force =     0.00086094    0.00330967    0.00072293
     atom    3 type  1   force =    -0.00303445   -0.00040302    0.00078273
     atom    4 type  1   force =    -0.00136679   -0.00258338    0.00030296
     atom    5 type  1   force =     0.00129801    0.00044618   -0.00029228

     Total force =     0.006381     Total SCF correction =     0.000036

     number of scf cycles    =   8
     number of bfgs steps    =   7

     energy   old            =    -329.4896823092 Ry
     energy   new            =    -329.4898451948 Ry

     CASE: energy  _new < energy  _old

     new trust radius        =       0.0131855625 bohr
     new conv_thr            =       0.0000000002 Ry


ATOMIC_POSITIONS (bohr)
Au      -1.938986547   1.557110200  -0.386498413
Au      -0.757190238   2.737307247   4.464108676
Au       3.023535591   1.680625653   0.702708248
Au       4.190748040   3.651675916   5.631729017
Au       7.775034155   1.948141985   2.343296471



     Writing output data file pwscf.save
     Check: negative starting charge=   -0.006558
     NEW-OLD atomic charge density approx. for the potential
     Check: negative starting charge=   -0.006569

     negative rho (up, down):  2.850E-05 0.000E+00

     total cpu time spent up to now is       22.9 secs

     per-process dynamical memory:    50.7 Mb

     Self-consistent Calculation

     iteration #  1     ecut=    30.00 Ry     beta=0.70
     Davidson diagonalization with overlap
     ethr =  1.00E-06,  avg # of iterations =  4.0

     Threshold (ethr) on eigenvalues was too large:
     Diagonalizing with lowered threshold

     Davidson diagonalization with overlap
     ethr =  8.15E-08,  avg # of iterations =  1.0

     negative rho (up, down):  5.550E-08 0.000E+00

     total cpu time spent up to now is       23.4 secs

     total energy              =    -329.48989313 Ry
     Harris-Foulkes estimate   =    -329.48991079 Ry
     estimated scf accuracy    <       0.00004507 Ry

     iteration #  2     ecut=    30.00 Ry     beta=0.70
     Davidson diagonalization with overlap
     ethr =  8.20E-08,  avg # of iterations =  2.0

     total cpu time spent up to now is       23.6 secs

     total energy              =    -329.48989213 Ry
     Harris-Foulkes estimate   =    -329.48992545 Ry
     estimated scf accuracy    <       0.00007504 Ry

     iteration #  3     ecut=    30.00 Ry     beta=0.70
     Davidson diagonalization with overlap
     ethr =  8.20E-08,  avg # of iterations =  2.0

     total cpu time spent up to now is       23.9 secs

     total energy              =    -329.48990783 Ry
     Harris-Foulkes estimate   =    -329.48991275 Ry
     estimated scf accuracy    <       0.00001435 Ry

     iteration #  4     ecut=    30.00 Ry     beta=0.70
     Davidson diagonalization with overlap
     ethr =  2.61E-08,  avg # of iterations =  2.0

     total cpu time spent up to now is       24.1 secs

     total energy              =    -329.48991091 Ry
     Harris-Foulkes estimate   =    -329.48991101 Ry
     estimated scf accuracy    <       0.00000110 Ry

     iteration #  5     ecut=    30.00 Ry     beta=0.70
     Davidson diagonalization with overlap
     ethr =  2.01E-09,  avg # of iterations =  3.0

     total cpu time spent up to now is       24.3 secs

     total energy              =    -329.48991110 Ry
     Harris-Foulkes estimate   =    -329.48991121 Ry
     estimated scf accuracy    <       0.00000017 Ry

     iteration #  6     ecut=    30.00 Ry     beta=0.70
     Davidson diagonalization with overlap
     ethr =  3.16E-10,  avg # of iterations =  2.0

     total cpu time spent up to now is       24.6 secs

     total energy              =    -329.48991106 Ry
     Harris-Foulkes estimate   =    -329.48991115 Ry
     estimated scf accuracy    <       0.00000002 Ry

     iteration #  7     ecut=    30.00 Ry     beta=0.70
     Davidson diagonalization with overlap
     ethr =  3.19E-11,  avg # of iterations =  3.0

     total cpu time spent up to now is       24.9 secs

     total energy              =    -329.48991104 Ry
     Harris-Foulkes estimate   =    -329.48991107 Ry
     estimated scf accuracy    <          2.6E-09 Ry

     iteration #  8     ecut=    30.00 Ry     beta=0.70
     Davidson diagonalization with overlap
     ethr =  4.80E-12,  avg # of iterations =  2.0

     total cpu time spent up to now is       25.1 secs

     total energy              =    -329.48991102 Ry
     Harris-Foulkes estimate   =    -329.48991104 Ry
     estimated scf accuracy    <          3.8E-10 Ry

     iteration #  9     ecut=    30.00 Ry     beta=0.70
     Davidson diagonalization with overlap
     ethr =  6.84E-13,  avg # of iterations =  2.0

     total cpu time spent up to now is       25.4 secs

     End of self-consistent calculation

          k = 0.0000 0.0000 0.0000 ( 22119 PWs)   bands (ev):

    -8.4986  -7.7919  -7.6587  -7.2530  -6.8901  -6.7956  -6.6674  -6.4915
    -6.2929  -6.0502  -5.9842  -5.7676  -5.7275  -5.6965  -5.4502  -5.3966
    -5.3160  -5.2420  -5.2104  -5.1856  -5.1713  -5.1238  -5.0058  -4.9390
    -4.8295  -4.7148  -4.4671  -3.7732  -2.5380  -2.1875  -0.5640  -0.1995
     0.5345   0.8649

     the Fermi energy is    -3.7415 ev

!    total energy              =    -329.48991101 Ry
     Harris-Foulkes estimate   =    -329.48991102 Ry
     estimated scf accuracy    <          1.1E-10 Ry

     The total energy is the sum of the following terms:

     one-electron contribution =    -611.16469002 Ry
     hartree contribution      =     327.00931240 Ry
     xc contribution           =     -51.40588805 Ry
     ewald contribution        =       6.07549017 Ry
     smearing contrib. (-TS)   =      -0.00413551 Ry

     convergence has been achieved in   9 iterations

     Forces acting on atoms (Ry/au):

     atom    1 type  1   force =     0.00256945   -0.00075992   -0.00142987
     atom    2 type  1   force =    -0.00060580    0.00294680    0.00066054
     atom    3 type  1   force =    -0.00386186   -0.00083210   -0.00031940
     atom    4 type  1   force =     0.00039757   -0.00192907    0.00114543
     atom    5 type  1   force =     0.00150064    0.00057429   -0.00005670

     Total force =     0.006496     Total SCF correction =     0.000042

     number of scf cycles    =   9
     number of bfgs steps    =   8

     energy   old            =    -329.4898451948 Ry
     energy   new            =    -329.4899110064 Ry

     CASE: energy  _new < energy  _old

     new trust radius        =       0.0172532456 bohr
     new conv_thr            =            1.0E-10 Ry


ATOMIC_POSITIONS (bohr)
Au      -1.934962280   1.553662944  -0.391996215
Au      -0.754471277   2.753757091   4.459671969
Au       3.020508660   1.681172648   0.715746727
Au       4.182373522   3.637739226   5.633270130
Au       7.779692375   1.948529091   2.338651389



     Writing output data file pwscf.save
     Check: negative starting charge=   -0.006569
     NEW-OLD atomic charge density approx. for the potential
     Check: negative starting charge=   -0.006579

     negative rho (up, down):  6.338E-05 0.000E+00

     total cpu time spent up to now is       25.6 secs

     per-process dynamical memory:    50.7 Mb

     Self-consistent Calculation

     iteration #  1     ecut=    30.00 Ry     beta=0.70
     Davidson diagonalization with overlap
     ethr =  1.00E-06,  avg # of iterations =  4.0

     negative rho (up, down):  3.330E-07 0.000E+00

     total cpu time spent up to now is       26.0 secs

     total energy              =    -329.48995792 Ry
     Harris-Foulkes estimate   =    -329.48998696 Ry
     estimated scf accuracy    <       0.00007811 Ry

     iteration #  2     ecut=    30.00 Ry     beta=0.70
     Davidson diagonalization with overlap
     ethr =  1.42E-07,  avg # of iterations =  2.0

     negative rho (up, down):  2.400E-08 0.000E+00

     total cpu time spent up to now is       26.2 secs

     total energy              =    -329.48996051 Ry
     Harris-Foulkes estimate   =    -329.49001146 Ry
     estimated scf accuracy    <       0.00011114 Ry

     iteration #  3     ecut=    30.00 Ry     beta=0.70
     Davidson diagonalization with overlap
     ethr =  1.42E-07,  avg # of iterations =  2.0

     total cpu time spent up to now is       26.5 secs

     total energy              =    -329.48998260 Ry
     Harris-Foulkes estimate   =    -329.48999223 Ry
     estimated scf accuracy    <       0.00002485 Ry

     iteration #  4     ecut=    30.00 Ry     beta=0.70
     Davidson diagonalization with overlap
     ethr =  4.52E-08,  avg # of iterations =  2.0

     total cpu time spent up to now is       26.7 secs

     total energy              =    -329.48998727 Ry
     Harris-Foulkes estimate   =    -329.48998820 Ry
     estimated scf accuracy    <       0.00000187 Ry

     iteration #  5     ecut=    30.00 Ry     beta=0.70
     Davidson diagonalization with overlap
     ethr =  3.41E-09,  avg # of iterations =  2.0

     total cpu time spent up to now is       26.9 secs

     total energy              =    -329.48998773 Ry
     Harris-Foulkes estimate   =    -329.48998775 Ry
     estimated scf accuracy    <       0.00000027 Ry

     iteration #  6     ecut=    30.00 Ry     beta=0.70
     Davidson diagonalization with overlap
     ethr =  4.90E-10,  avg # of iterations =  2.0

     total cpu time spent up to now is       27.2 secs

     total energy              =    -329.48998772 Ry
     Harris-Foulkes estimate   =    -329.48998781 Ry
     estimated scf accuracy    <       0.00000003 Ry

     iteration #  7     ecut=    30.00 Ry     beta=0.70
     Davidson diagonalization with overlap
     ethr =  5.47E-11,  avg # of iterations =  3.0

     total cpu time spent up to now is       27.4 secs

     total energy              =    -329.48998767 Ry
     Harris-Foulkes estimate   =    -329.48998773 Ry
     estimated scf accuracy    <          9.1E-09 Ry

     iteration #  8     ecut=    30.00 Ry     beta=0.70
     Davidson diagonalization with overlap
     ethr =  1.65E-11,  avg # of iterations =  2.0

     total cpu time spent up to now is       27.6 secs

     total energy              =    -329.48998769 Ry
     Harris-Foulkes estimate   =    -329.48998768 Ry
     estimated scf accuracy    <          2.3E-09 Ry

     iteration #  9     ecut=    30.00 Ry     beta=0.70
     Davidson diagonalization with overlap
     ethr =  4.17E-12,  avg # of iterations =  2.0

     total cpu time spent up to now is       27.9 secs

     total energy              =    -329.48998768 Ry
     Harris-Foulkes estimate   =    -329.48998769 Ry
     estimated scf accuracy    <          5.8E-10 Ry

     iteration # 10     ecut=    30.00 Ry     beta=0.70
     Davidson diagonalization with overlap
     ethr =  1.05E-12,  avg # of iterations =  2.0

     total cpu time spent up to now is       28.1 secs

     End of self-consistent calculation

          k = 0.0000 0.0000 0.0000 ( 22119 PWs)   bands (ev):

    -8.5086  -7.7979  -7.6795  -7.2619  -6.8928  -6.8006  -6.6559  -6.5006
    -6.3027  -6.0559  -5.9751  -5.7699  -5.7275  -5.6995  -5.4547  -5.3945
    -5.3175  -5.2439  -5.2101  -5.1863  -5.1697  -5.1219  -5.0056  -4.9361
    -4.8212  -4.7195  -4.4665  -3.7760  -2.5354  -2.1813  -0.5672  -0.1988
     0.5369   0.8722

     the Fermi energy is    -3.7448 ev

!    total energy              =    -329.48998768 Ry
     Harris-Foulkes estimate   =    -329.48998768 Ry
     estimated scf accuracy    <          2.4E-11 Ry

     The total energy is the sum of the following terms:

     one-electron contribution =    -611.65152659 Ry
     hartree contribution      =     327.24965150 Ry
     xc contribution           =     -51.40768318 Ry
     ewald contribution        =       6.32360461 Ry
     smearing contrib. (-TS)   =      -0.00403402 Ry

     convergence has been achieved in  10 iterations

     Forces acting on atoms (Ry/au):

     atom    1 type  1   force =     0.00210962   -0.00074749   -0.00139856
     atom    2 type  1   force =    -0.00219294    0.00248505    0.00048930
     atom    3 type  1   force =    -0.00306279   -0.00113146   -0.00108728
     atom    4 type  1   force =     0.00236200   -0.00131989    0.00188347
     atom    5 type  1   force =     0.00078411    0.00071379    0.00011307

     Total force =     0.006484     Total SCF correction =     0.000025

     number of scf cycles    =  10
     number of bfgs steps    =   9

     energy   old            =    -329.4899110064 Ry
     energy   new            =    -329.4899876766 Ry

     CASE: energy  _new < energy  _old

     new trust radius        =       0.0225764003 bohr
     new conv_thr            =            1.0E-10 Ry


ATOMIC_POSITIONS (bohr)
Au      -1.927562195   1.548695491  -0.400122211
Au      -0.755179133   2.775822474   4.454948446
Au       3.012833298   1.680090945   0.728896278
Au       4.176920874   3.620300020   5.638169275
Au       7.786128157   1.949952070   2.333452212



     Writing output data file pwscf.save
     Check: negative starting charge=   -0.006579
     NEW-OLD atomic charge density approx. for the potential
     Check: negative starting charge=   -0.006584

     negative rho (up, down):  1.189E-04 0.000E+00

     total cpu time spent up to now is       28.3 secs

     per-process dynamical memory:    50.7 Mb

     Self-consistent Calculation

     iteration #  1     ecut=    30.00 Ry     beta=0.70
     Davidson diagonalization with overlap
     ethr =  1.00E-06,  avg # of iterations =  4.0

     negative rho (up, down):  1.226E-06 0.000E+00

     total cpu time spent up to now is       28.7 secs

     total energy              =    -329.49002910 Ry
     Harris-Foulkes estimate   =    -329.49006814 Ry
     estimated scf accuracy    <       0.00012355 Ry

     iteration #  2     ecut=    30.00 Ry     beta=0.70
     Davidson diagonalization with overlap
     ethr =  2.25E-07,  avg # of iterations =  2.0

     negative rho (up, down):  1.009E-07 0.000E+00

     total cpu time spent up to now is       28.9 secs

     total energy              =    -329.49004052 Ry
     Harris-Foulkes estimate   =    -329.49010763 Ry
     estimated scf accuracy    <       0.00014136 Ry

     iteration #  3     ecut=    30.00 Ry     beta=0.70
     Davidson diagonalization with overlap
     ethr =  2.25E-07,  avg # of iterations =  2.0

     total cpu time spent up to now is       29.2 secs

     total energy              =    -329.49006858 Ry
     Harris-Foulkes estimate   =    -329.49008165 Ry
     estimated scf accuracy    <       0.00003485 Ry

     iteration #  4     ecut=    30.00 Ry     beta=0.70
     Davidson diagonalization with overlap
     ethr =  6.34E-08,  avg # of iterations =  2.0

     total cpu time spent up to now is       29.4 secs

     total energy              =    -329.49007584 Ry
     Harris-Foulkes estimate   =    -329.49007724 Ry
     estimated scf accuracy    <       0.00000386 Ry

     iteration #  5     ecut=    30.00 Ry     beta=0.70
     Davidson diagonalization with overlap
     ethr =  7.01E-09,  avg # of iterations =  2.0

     total cpu time spent up to now is       29.6 secs

     total energy              =    -329.49007647 Ry
     Harris-Foulkes estimate   =    -329.49007665 Ry
     estimated scf accuracy    <       0.00000028 Ry

     iteration #  6     ecut=    30.00 Ry     beta=0.70
     Davidson diagonalization with overlap
     ethr =  5.11E-10,  avg # of iterations =  2.0

     total cpu time spent up to now is       29.9 secs

     total energy              =    -329.49007657 Ry
     Harris-Foulkes estimate   =    -329.49007655 Ry
     estimated scf accuracy    <       0.00000003 Ry

     iteration #  7     ecut=    30.00 Ry     beta=0.70
     Davidson diagonalization with overlap
     ethr =  6.13E-11,  avg # of iterations =  3.0

     total cpu time spent up to now is       30.1 secs

     total energy              =    -329.49007657 Ry
     Harris-Foulkes estimate   =    -329.49007658 Ry
     estimated scf accuracy    <       0.00000001 Ry

     iteration #  8     ecut=    30.00 Ry     beta=0.70
     Davidson diagonalization with overlap
     ethr =  2.38E-11,  avg # of iterations =  2.0

     total cpu time spent up to now is       30.4 secs

     total energy              =    -329.49007651 Ry
     Harris-Foulkes estimate   =    -329.49007657 Ry
     estimated scf accuracy    <          2.9E-09 Ry

     iteration #  9     ecut=    30.00 Ry     beta=0.70
     Davidson diagonalization with overlap
     ethr =  5.31E-12,  avg # of iterations =  2.0

     total cpu time spent up to now is       30.6 secs

     total energy              =    -329.49007647 Ry
     Harris-Foulkes estimate   =    -329.49007651 Ry
     estimated scf accuracy    <          8.6E-10 Ry

     iteration # 10     ecut=    30.00 Ry     beta=0.70
     Davidson diagonalization with overlap
     ethr =  1.57E-12,  avg # of iterations =  2.0

     total cpu time spent up to now is       30.8 secs

     End of self-consistent calculation

          k = 0.0000 0.0000 0.0000 ( 22119 PWs)   bands (ev):

    -8.5175  -7.8017  -7.6957  -7.2657  -6.8915  -6.8050  -6.6425  -6.5077
    -6.3091  -6.0627  -5.9654  -5.7720  -5.7279  -5.7013  -5.4588  -5.3909
    -5.3185  -5.2461  -5.2097  -5.1864  -5.1685  -5.1205  -5.0047  -4.9341
    -4.8149  -4.7247  -4.4675  -3.7791  -2.5326  -2.1779  -0.5702  -0.1984
     0.5384   0.8809

     the Fermi energy is    -3.7482 ev

!    total energy              =    -329.49007647 Ry
     Harris-Foulkes estimate   =    -329.49007647 Ry
     estimated scf accuracy    <          5.0E-11 Ry

     The total energy is the sum of the following terms:

     one-electron contribution =    -611.92310498 Ry
     hartree contribution      =     327.38342463 Ry
     xc contribution           =     -51.40864886 Ry
     ewald contribution        =       6.46222166 Ry
     smearing contrib. (-TS)   =      -0.00396893 Ry

     convergence has been achieved in  10 iterations

     Forces acting on atoms (Ry/au):

     atom    1 type  1   force =     0.00091440   -0.00076049   -0.00140566
     atom    2 type  1   force =    -0.00329535    0.00204585    0.00035571
     atom    3 type  1   force =    -0.00072813   -0.00120857   -0.00132388
     atom    4 type  1   force =     0.00385349   -0.00091568    0.00210887
     atom    5 type  1   force =    -0.00074441    0.00083888    0.00026496

     Total force =     0.006616     Total SCF correction =     0.000031

     number of scf cycles    =  11
     number of bfgs steps    =  10

     energy   old            =    -329.4899876766 Ry
     energy   new            =    -329.4900764738 Ry

     CASE: energy  _new < energy  _old

     new trust radius        =       0.0280461292 bohr
     new conv_thr            =            1.0E-10 Ry


ATOMIC_POSITIONS (bohr)
Au      -1.918085186   1.542171805  -0.410904698
Au      -0.761201740   2.802766166   4.450013769
Au       3.003010667   1.677091092   0.741222855
Au       4.176962788   3.600176469   5.646928194
Au       7.792454470   1.952655468   2.328083881



     Writing output data file pwscf.save
     Check: negative starting charge=   -0.006584
     NEW-OLD atomic charge density approx. for the potential
     Check: negative starting charge=   -0.006581

     negative rho (up, down):  1.841E-04 0.000E+00

     total cpu time spent up to now is       31.0 secs

     per-process dynamical memory:    50.7 Mb

     Self-consistent Calculation

     iteration #  1     ecut=    30.00 Ry     beta=0.70
     Davidson diagonalization with overlap
     ethr =  1.00E-06,  avg # of iterations =  4.0

     negative rho (up, down):  2.877E-06 0.000E+00

     total cpu time spent up to now is       31.4 secs

     total energy              =    -329.49010931 Ry
     Harris-Foulkes estimate   =    -329.49014911 Ry
     estimated scf accuracy    <       0.00016946 Ry

     iteration #  2     ecut=    30.00 Ry     beta=0.70
     Davidson diagonalization with overlap
     ethr =  3.08E-07,  avg # of iterations =  2.0

     negative rho (up, down):  2.281E-07 0.000E+00

     total cpu time spent up to now is       31.7 secs

     total energy              =    -329.49013671 Ry
     Harris-Foulkes estimate   =    -329.49020775 Ry
     estimated scf accuracy    <       0.00014571 Ry

     iteration #  3     ecut=    30.00 Ry     beta=0.70
     Davidson diagonalization with overlap
     ethr =  2.65E-07,  avg # of iterations =  2.0

     total cpu time spent up to now is       31.9 secs

     total energy              =    -329.49016433 Ry
     Harris-Foulkes estimate   =    -329.49017625 Ry
     estimated scf accuracy    <       0.00002810 Ry

     iteration #  4     ecut=    30.00 Ry     beta=0.70
     Davidson diagonalization with overlap
     ethr =  5.11E-08,  avg # of iterations =  2.0

     total cpu time spent up to now is       32.1 secs

     total energy              =    -329.49017131 Ry
     Harris-Foulkes estimate   =    -329.49017433 Ry
     estimated scf accuracy    <       0.00000994 Ry

     iteration #  5     ecut=    30.00 Ry     beta=0.70
     Davidson diagonalization with overlap
     ethr =  1.81E-08,  avg # of iterations =  2.0

     total cpu time spent up to now is       32.3 secs

     total energy              =    -329.49017272 Ry
     Harris-Foulkes estimate   =    -329.49017298 Ry
     estimated scf accuracy    <       0.00000025 Ry

     iteration #  6     ecut=    30.00 Ry     beta=0.70
     Davidson diagonalization with overlap
     ethr =  4.51E-10,  avg # of iterations =  3.0

     total cpu time spent up to now is       32.6 secs

     total energy              =    -329.49017271 Ry
     Harris-Foulkes estimate   =    -329.49017283 Ry
     estimated scf accuracy    <       0.00000004 Ry

     iteration #  7     ecut=    30.00 Ry     beta=0.70
     Davidson diagonalization with overlap
     ethr =  7.45E-11,  avg # of iterations =  3.0

     total cpu time spent up to now is       32.9 secs

     total energy              =    -329.49017273 Ry
     Harris-Foulkes estimate   =    -329.49017272 Ry
     estimated scf accuracy    <       0.00000002 Ry

     iteration #  8     ecut=    30.00 Ry     beta=0.70
     Davidson diagonalization with overlap
     ethr =  3.89E-11,  avg # of iterations =  2.0

     total cpu time spent up to now is       33.1 secs

     total energy              =    -329.49017275 Ry
     Harris-Foulkes estimate   =    -329.49017274 Ry
     estimated scf accuracy    <          3.4E-09 Ry

     iteration #  9     ecut=    30.00 Ry     beta=0.70
     Davidson diagonalization with overlap
     ethr =  6.25E-12,  avg # of iterations =  3.0

     total cpu time spent up to now is       33.4 secs

     total energy              =    -329.49017273 Ry
     Harris-Foulkes estimate   =    -329.49017275 Ry
     estimated scf accuracy    <          5.5E-10 Ry

     iteration # 10     ecut=    30.00 Ry     beta=0.70
     Davidson diagonalization with overlap
     ethr =  9.94E-13,  avg # of iterations =  2.0

     total cpu time spent up to now is       33.6 secs

     End of self-consistent calculation

          k = 0.0000 0.0000 0.0000 ( 22119 PWs)   bands (ev):

    -8.5238  -7.8024  -7.7014  -7.2618  -6.8848  -6.8082  -6.6296  -6.5100
    -6.3098  -6.0701  -5.9574  -5.7733  -5.7287  -5.7010  -5.4620  -5.3857
    -5.3186  -5.2488  -5.2090  -5.1861  -5.1682  -5.1200  -5.0032  -4.9338
    -4.8127  -4.7295  -4.4710  -3.7818  -2.5298  -2.1795  -0.5725  -0.1980
     0.5385   0.8902

     the Fermi energy is    -3.7508 ev

!    total energy              =    -329.49017273 Ry
     Harris-Foulkes estimate   =    -329.49017273 Ry
     estimated scf accuracy    <          5.7E-11 Ry

     The total energy is the sum of the following terms:

     one-electron contribution =    -611.85295489 Ry
     hartree contribution      =     327.34802402 Ry
     xc contribution           =     -51.40827250 Ry
     ewald contribution        =       6.42702136 Ry
     smearing contrib. (-TS)   =      -0.00399073 Ry

     convergence has been achieved in  10 iterations

     Forces acting on atoms (Ry/au):

     atom    1 type  1   force =    -0.00052724   -0.00083915   -0.00130649
     atom    2 type  1   force =    -0.00349872    0.00172251    0.00021561
     atom    3 type  1   force =     0.00215350   -0.00110972   -0.00099523
     atom    4 type  1   force =     0.00421883   -0.00060057    0.00163334
     atom    5 type  1   force =    -0.00234638    0.00082692    0.00045277

     Total force =     0.007213     Total SCF correction =     0.000024

     number of scf cycles    =  12
     number of bfgs steps    =  11

     energy   old            =    -329.4900764738 Ry
     energy   new            =    -329.4901727334 Ry

     CASE: energy  _new < energy  _old

     new trust radius        =       0.0350176009 bohr
     new conv_thr            =            1.0E-10 Ry


ATOMIC_POSITIONS (bohr)
Au      -1.908122668   1.533713174  -0.424477941
Au      -0.773291611   2.835118158   4.444233110
Au       2.994480567   1.672179448   0.753729910
Au       4.183073766   3.577218490   5.659264617
Au       7.797000946   1.956631729   2.322594305



     Writing output data file pwscf.save
     Check: negative starting charge=   -0.006581
     NEW-OLD atomic charge density approx. for the potential
     Check: negative starting charge=   -0.006568

     negative rho (up, down):  2.773E-04 0.000E+00

     total cpu time spent up to now is       33.8 secs

     per-process dynamical memory:    50.7 Mb

     Self-consistent Calculation

     iteration #  1     ecut=    30.00 Ry     beta=0.70
     Davidson diagonalization with overlap
     ethr =  1.00E-06,  avg # of iterations =  4.0

     negative rho (up, down):  6.238E-06 0.000E+00

     total cpu time spent up to now is       34.2 secs

     total energy              =    -329.49018894 Ry
     Harris-Foulkes estimate   =    -329.49021324 Ry
     estimated scf accuracy    <       0.00023267 Ry

     iteration #  2     ecut=    30.00 Ry     beta=0.70
     Davidson diagonalization with overlap
     ethr =  4.23E-07,  avg # of iterations =  3.0

     negative rho (up, down):  5.400E-07 0.000E+00

     total cpu time spent up to now is       34.4 secs

     total energy              =    -329.49023910 Ry
     Harris-Foulkes estimate   =    -329.49031675 Ry
     estimated scf accuracy    <       0.00016232 Ry

     iteration #  3     ecut=    30.00 Ry     beta=0.70
     Davidson diagonalization with overlap
     ethr =  2.95E-07,  avg # of iterations =  2.0

     total cpu time spent up to now is       34.7 secs

     total energy              =    -329.49027225 Ry
     Harris-Foulkes estimate   =    -329.49027585 Ry
     estimated scf accuracy    <       0.00000845 Ry

     iteration #  4     ecut=    30.00 Ry     beta=0.70
     Davidson diagonalization with overlap
     ethr =  1.54E-08,  avg # of iterations =  3.0

     total cpu time spent up to now is       35.0 secs

     total energy              =    -329.49027293 Ry
     Harris-Foulkes estimate   =    -329.49027914 Ry
     estimated scf accuracy    <       0.00001791 Ry

     iteration #  5     ecut=    30.00 Ry     beta=0.70
     Davidson diagonalization with overlap
     ethr =  1.54E-08,  avg # of iterations =  2.0

     total cpu time spent up to now is       35.2 secs

     total energy              =    -329.49027577 Ry
     Harris-Foulkes estimate   =    -329.49027619 Ry
     estimated scf accuracy    <       0.00000060 Ry

     iteration #  6     ecut=    30.00 Ry     beta=0.70
     Davidson diagonalization with overlap
[...]

     total cpu time spent up to now is      103.8 secs

     per-process dynamical memory:    50.7 Mb

     Self-consistent Calculation

     iteration #  1     ecut=    30.00 Ry     beta=0.70
     Davidson diagonalization with overlap
     ethr =  1.00E-06,  avg # of iterations =  4.0

     negative rho (up, down):  1.122E-06 0.000E+00

     total cpu time spent up to now is      104.2 secs

     total energy              =    -329.49127001 Ry
     Harris-Foulkes estimate   =    -329.49130227 Ry
     estimated scf accuracy    <       0.00011567 Ry

     iteration #  2     ecut=    30.00 Ry     beta=0.70
     Davidson diagonalization with overlap
     ethr =  2.10E-07,  avg # of iterations =  3.0

     negative rho (up, down):  8.605E-08 0.000E+00

     total cpu time spent up to now is      104.4 secs

     total energy              =    -329.49129024 Ry
     Harris-Foulkes estimate   =    -329.49133884 Ry
     estimated scf accuracy    <       0.00010627 Ry

     iteration #  3     ecut=    30.00 Ry     beta=0.70
     Davidson diagonalization with overlap
     ethr =  1.93E-07,  avg # of iterations =  2.0

     total cpu time spent up to now is      104.7 secs

     total energy              =    -329.49131409 Ry
     Harris-Foulkes estimate   =    -329.49131415 Ry
     estimated scf accuracy    <       0.00000385 Ry

     iteration #  4     ecut=    30.00 Ry     beta=0.70
     Davidson diagonalization with overlap
     ethr =  6.99E-09,  avg # of iterations =  3.0

     total cpu time spent up to now is      104.9 secs

     total energy              =    -329.49131462 Ry
     Harris-Foulkes estimate   =    -329.49131592 Ry
     estimated scf accuracy    <       0.00000274 Ry

     iteration #  5     ecut=    30.00 Ry     beta=0.70
     Davidson diagonalization with overlap
     ethr =  4.98E-09,  avg # of iterations =  2.0

     total cpu time spent up to now is      105.2 secs

     total energy              =    -329.49131541 Ry
     Harris-Foulkes estimate   =    -329.49131535 Ry
     estimated scf accuracy    <       0.00000055 Ry

     iteration #  6     ecut=    30.00 Ry     beta=0.70
     Davidson diagonalization with overlap
     ethr =  9.99E-10,  avg # of iterations =  2.0

     total cpu time spent up to now is      105.4 secs

     total energy              =    -329.49131551 Ry
     Harris-Foulkes estimate   =    -329.49131553 Ry
     estimated scf accuracy    <       0.00000002 Ry

     iteration #  7     ecut=    30.00 Ry     beta=0.70
     Davidson diagonalization with overlap
     ethr =  4.50E-11,  avg # of iterations =  3.0

     total cpu time spent up to now is      105.6 secs

     total energy              =    -329.49131549 Ry
     Harris-Foulkes estimate   =    -329.49131552 Ry
     estimated scf accuracy    <       0.00000001 Ry

     iteration #  8     ecut=    30.00 Ry     beta=0.70
     Davidson diagonalization with overlap
     ethr =  2.12E-11,  avg # of iterations =  3.0

     total cpu time spent up to now is      105.9 secs

     total energy              =    -329.49131550 Ry
     Harris-Foulkes estimate   =    -329.49131549 Ry
     estimated scf accuracy    <          2.2E-09 Ry

     iteration #  9     ecut=    30.00 Ry     beta=0.70
     Davidson diagonalization with overlap
     ethr =  3.94E-12,  avg # of iterations =  2.0

     total cpu time spent up to now is      106.2 secs

     total energy              =    -329.49131552 Ry
     Harris-Foulkes estimate   =    -329.49131550 Ry
     estimated scf accuracy    <          1.1E-10 Ry

     iteration # 10     ecut=    30.00 Ry     beta=0.70
     Davidson diagonalization with overlap
     ethr =  1.95E-13,  avg # of iterations =  3.0

     total cpu time spent up to now is      106.4 secs

     End of self-consistent calculation

          k = 0.0000 0.0000 0.0000 ( 22119 PWs)   bands (ev):

    -8.5221  -7.8025  -7.6561  -7.2505  -6.8646  -6.8246  -6.6338  -6.4931
    -6.3119  -6.0783  -5.9718  -5.7720  -5.7376  -5.6878  -5.4697  -5.3648
    -5.3141  -5.2484  -5.1976  -5.1969  -5.1715  -5.1249  -5.0060  -4.9222
    -4.8525  -4.7274  -4.4802  -3.7744  -2.5114  -2.1979  -0.5767  -0.1930
     0.4907   0.9273

     the Fermi energy is    -3.7412 ev

!    total energy              =    -329.49131552 Ry
     Harris-Foulkes estimate   =    -329.49131552 Ry
     estimated scf accuracy    <          3.9E-11 Ry

     The total energy is the sum of the following terms:

     one-electron contribution =    -610.28285161 Ry
     hartree contribution      =     326.56269625 Ry
     xc contribution           =     -51.40419259 Ry
     ewald contribution        =       5.63753902 Ry
     smearing contrib. (-TS)   =      -0.00450658 Ry

     convergence has been achieved in  10 iterations

     Forces acting on atoms (Ry/au):

     atom    1 type  1   force =     0.00059482   -0.00054451   -0.00078620
     atom    2 type  1   force =    -0.00012777    0.00013436    0.00081944
     atom    3 type  1   force =    -0.00078606    0.00026726   -0.00048791
     atom    4 type  1   force =    -0.00110442    0.00011731    0.00087911
     atom    5 type  1   force =     0.00142342    0.00002559   -0.00042444

     Total force =     0.002667     Total SCF correction =     0.000024

     number of scf cycles    =  38
     number of bfgs steps    =  37

     energy   old            =    -329.4912993780 Ry
     energy   new            =    -329.4913155187 Ry

     CASE: energy  _new < energy  _old

     new trust radius        =       0.0124649285 bohr
     new conv_thr            =            1.0E-10 Ry


ATOMIC_POSITIONS (bohr)
Au      -1.828465765   1.386962513  -0.566985310
Au      -0.796606317   3.153071501   4.176150251
Au       3.047209704   1.604667982   0.774997902
Au       4.111598574   3.432546390   5.840701150
Au       7.759404804   1.997612613   2.530480007



     Writing output data file pwscf.save
     Check: negative starting charge=   -0.006516
     NEW-OLD atomic charge density approx. for the potential
     Check: negative starting charge=   -0.006517

     negative rho (up, down):  1.408E-05 0.000E+00

     total cpu time spent up to now is      106.6 secs

     per-process dynamical memory:    50.7 Mb

     Self-consistent Calculation

     iteration #  1     ecut=    30.00 Ry     beta=0.70
     Davidson diagonalization with overlap
     ethr =  1.00E-06,  avg # of iterations =  4.0

     Threshold (ethr) on eigenvalues was too large:
     Diagonalizing with lowered threshold

     Davidson diagonalization with overlap
     ethr =  5.02E-08,  avg # of iterations =  1.0

     negative rho (up, down):  1.371E-08 0.000E+00

     total cpu time spent up to now is      107.1 secs

     total energy              =    -329.49131277 Ry
     Harris-Foulkes estimate   =    -329.49132211 Ry
     estimated scf accuracy    <       0.00002811 Ry

     iteration #  2     ecut=    30.00 Ry     beta=0.70
     Davidson diagonalization with overlap
     ethr =  5.11E-08,  avg # of iterations =  2.0

     total cpu time spent up to now is      107.4 secs

     total energy              =    -329.49131784 Ry
     Harris-Foulkes estimate   =    -329.49132777 Ry
     estimated scf accuracy    <       0.00002078 Ry

     iteration #  3     ecut=    30.00 Ry     beta=0.70
     Davidson diagonalization with overlap
     ethr =  3.78E-08,  avg # of iterations =  2.0

     total cpu time spent up to now is      107.6 secs

     total energy              =    -329.49132227 Ry
     Harris-Foulkes estimate   =    -329.49132298 Ry
     estimated scf accuracy    <       0.00000195 Ry

     iteration #  4     ecut=    30.00 Ry     beta=0.70
     Davidson diagonalization with overlap
     ethr =  3.55E-09,  avg # of iterations =  3.0

     total cpu time spent up to now is      107.9 secs

     total energy              =    -329.49132263 Ry
     Harris-Foulkes estimate   =    -329.49132346 Ry
     estimated scf accuracy    <       0.00000238 Ry

     iteration #  5     ecut=    30.00 Ry     beta=0.70
     Davidson diagonalization with overlap
     ethr =  3.55E-09,  avg # of iterations =  2.0

     total cpu time spent up to now is      108.1 secs

     total energy              =    -329.49132310 Ry
     Harris-Foulkes estimate   =    -329.49132307 Ry
     estimated scf accuracy    <       0.00000009 Ry

     iteration #  6     ecut=    30.00 Ry     beta=0.70
     Davidson diagonalization with overlap
     ethr =  1.72E-10,  avg # of iterations =  3.0

     total cpu time spent up to now is      108.3 secs

     total energy              =    -329.49132306 Ry
     Harris-Foulkes estimate   =    -329.49132313 Ry
     estimated scf accuracy    <       0.00000001 Ry

     iteration #  7     ecut=    30.00 Ry     beta=0.70
     Davidson diagonalization with overlap
     ethr =  1.90E-11,  avg # of iterations =  3.0

     total cpu time spent up to now is      108.6 secs

     total energy              =    -329.49132309 Ry
     Harris-Foulkes estimate   =    -329.49132307 Ry
     estimated scf accuracy    <          4.1E-09 Ry

     iteration #  8     ecut=    30.00 Ry     beta=0.70
     Davidson diagonalization with overlap
     ethr =  7.41E-12,  avg # of iterations =  2.0

     total cpu time spent up to now is      108.8 secs

     total energy              =    -329.49132311 Ry
     Harris-Foulkes estimate   =    -329.49132309 Ry
     estimated scf accuracy    <          7.5E-10 Ry

     iteration #  9     ecut=    30.00 Ry     beta=0.70
     Davidson diagonalization with overlap
     ethr =  1.36E-12,  avg # of iterations =  2.0

     total cpu time spent up to now is      109.1 secs

     total energy              =    -329.49132310 Ry
     Harris-Foulkes estimate   =    -329.49132311 Ry
     estimated scf accuracy    <          1.7E-10 Ry

     iteration # 10     ecut=    30.00 Ry     beta=0.70
     Davidson diagonalization with overlap
     ethr =  3.08E-13,  avg # of iterations =  2.0

     total cpu time spent up to now is      109.3 secs

     End of self-consistent calculation

          k = 0.0000 0.0000 0.0000 ( 22119 PWs)   bands (ev):

    -8.5213  -7.8009  -7.6565  -7.2490  -6.8633  -6.8238  -6.6301  -6.4930
    -6.3115  -6.0788  -5.9692  -5.7718  -5.7374  -5.6877  -5.4701  -5.3647
    -5.3140  -5.2492  -5.1976  -5.1970  -5.1715  -5.1250  -5.0061  -4.9231
    -4.8525  -4.7274  -4.4814  -3.7749  -2.5107  -2.1998  -0.5764  -0.1924
     0.4891   0.9263

     the Fermi energy is    -3.7415 ev

!    total energy              =    -329.49132310 Ry
     Harris-Foulkes estimate   =    -329.49132310 Ry
     estimated scf accuracy    <          1.2E-11 Ry

     The total energy is the sum of the following terms:

     one-electron contribution =    -610.17517543 Ry
     hartree contribution      =     326.50918692 Ry
     xc contribution           =     -51.40369690 Ry
     ewald contribution        =       5.58288714 Ry
     smearing contrib. (-TS)   =      -0.00452484 Ry

     convergence has been achieved in  10 iterations

     Forces acting on atoms (Ry/au):

     atom    1 type  1   force =     0.00053758   -0.00022762   -0.00033053
     atom    2 type  1   force =    -0.00033085   -0.00007598    0.00068424
     atom    3 type  1   force =    -0.00023362    0.00024953   -0.00046177
     atom    4 type  1   force =    -0.00101241    0.00007018    0.00056786
     atom    5 type  1   force =     0.00103930   -0.00001612   -0.00045979

     Total force =     0.002002     Total SCF correction =     0.000011

     number of scf cycles    =  39
     number of bfgs steps    =  38

     energy   old            =    -329.4913155187 Ry
     energy   new            =    -329.4913230983 Ry

     CASE: energy  _new < energy  _old

     new trust radius        =       0.0042130240 bohr
     new conv_thr            =            1.0E-10 Ry


ATOMIC_POSITIONS (bohr)
Au      -1.825832494   1.388537277  -0.569439038
Au      -0.797802742   3.153410810   4.179557424
Au       3.045903011   1.605000504   0.775869961
Au       4.108627669   3.430269112   5.841986714
Au       7.762245557   1.997643297   2.527368938



     Writing output data file pwscf.save
     Check: negative starting charge=   -0.006517
     NEW-OLD atomic charge density approx. for the potential
     Check: negative starting charge=   -0.006519

     negative rho (up, down):  1.149E-07 0.000E+00

     total cpu time spent up to now is      109.5 secs

     per-process dynamical memory:    50.7 Mb

     Self-consistent Calculation

     iteration #  1     ecut=    30.00 Ry     beta=0.70
     Davidson diagonalization with overlap
     ethr =  1.00E-06,  avg # of iterations =  3.0

     Threshold (ethr) on eigenvalues was too large:
     Diagonalizing with lowered threshold

     Davidson diagonalization with overlap
     ethr =  8.32E-09,  avg # of iterations =  2.0

     total cpu time spent up to now is      110.0 secs

     total energy              =    -329.49132977 Ry
     Harris-Foulkes estimate   =    -329.49133153 Ry
     estimated scf accuracy    <       0.00000486 Ry

     iteration #  2     ecut=    30.00 Ry     beta=0.70
     Davidson diagonalization with overlap
     ethr =  8.84E-09,  avg # of iterations =  2.0

     total cpu time spent up to now is      110.2 secs

     total energy              =    -329.49132923 Ry
     Harris-Foulkes estimate   =    -329.49133363 Ry
     estimated scf accuracy    <       0.00000987 Ry

     iteration #  3     ecut=    30.00 Ry     beta=0.70
     Davidson diagonalization with overlap
     ethr =  8.84E-09,  avg # of iterations =  2.0

     total cpu time spent up to now is      110.5 secs

     total energy              =    -329.49133102 Ry
     Harris-Foulkes estimate   =    -329.49133172 Ry
     estimated scf accuracy    <       0.00000138 Ry

     iteration #  4     ecut=    30.00 Ry     beta=0.70
     Davidson diagonalization with overlap
     ethr =  2.52E-09,  avg # of iterations =  2.0

     total cpu time spent up to now is      110.7 secs

     total energy              =    -329.49133138 Ry
     Harris-Foulkes estimate   =    -329.49133136 Ry
     estimated scf accuracy    <       0.00000017 Ry

     iteration #  5     ecut=    30.00 Ry     beta=0.70
     Davidson diagonalization with overlap
     ethr =  3.12E-10,  avg # of iterations =  2.0

     total cpu time spent up to now is      111.0 secs

     total energy              =    -329.49133139 Ry
     Harris-Foulkes estimate   =    -329.49133142 Ry
     estimated scf accuracy    <       0.00000002 Ry

     iteration #  6     ecut=    30.00 Ry     beta=0.70
     Davidson diagonalization with overlap
     ethr =  3.33E-11,  avg # of iterations =  2.0

     total cpu time spent up to now is      111.2 secs

     total energy              =    -329.49133138 Ry
     Harris-Foulkes estimate   =    -329.49133140 Ry
     estimated scf accuracy    <          3.4E-09 Ry

     iteration #  7     ecut=    30.00 Ry     beta=0.70
     Davidson diagonalization with overlap
     ethr =  6.12E-12,  avg # of iterations =  2.0

     total cpu time spent up to now is      111.4 secs

     total energy              =    -329.49133140 Ry
     Harris-Foulkes estimate   =    -329.49133139 Ry
     estimated scf accuracy    <          6.5E-10 Ry

     iteration #  8     ecut=    30.00 Ry     beta=0.70
     Davidson diagonalization with overlap
     ethr =  1.18E-12,  avg # of iterations =  2.0

     total cpu time spent up to now is      111.7 secs

     total energy              =    -329.49133141 Ry
     Harris-Foulkes estimate   =    -329.49133140 Ry
     estimated scf accuracy    <          1.5E-10 Ry

     iteration #  9     ecut=    30.00 Ry     beta=0.70
     Davidson diagonalization with overlap
     ethr =  2.78E-13,  avg # of iterations =  3.0

     total cpu time spent up to now is      111.9 secs

     End of self-consistent calculation

          k = 0.0000 0.0000 0.0000 ( 22119 PWs)   bands (ev):

    -8.5198  -7.7967  -7.6571  -7.2450  -6.8616  -6.8228  -6.6237  -6.4911
    -6.3106  -6.0790  -5.9650  -5.7722  -5.7369  -5.6876  -5.4687  -5.3648
    -5.3144  -5.2494  -5.1984  -5.1956  -5.1717  -5.1250  -5.0052  -4.9235
    -4.8513  -4.7291  -4.4816  -3.7772  -2.5100  -2.2011  -0.5760  -0.1932
     0.4900   0.9273

     the Fermi energy is    -3.7442 ev

!    total energy              =    -329.49133141 Ry
     Harris-Foulkes estimate   =    -329.49133141 Ry
     estimated scf accuracy    <          4.1E-11 Ry

     The total energy is the sum of the following terms:

     one-electron contribution =    -610.03230929 Ry
     hartree contribution      =     326.43920589 Ry
     xc contribution           =     -51.40316330 Ry
     ewald contribution        =       5.50939679 Ry
     smearing contrib. (-TS)   =      -0.00446151 Ry

     convergence has been achieved in   9 iterations

     Forces acting on atoms (Ry/au):

     atom    1 type  1   force =     0.00030771   -0.00017393    0.00000409
     atom    2 type  1   force =    -0.00051416   -0.00021296    0.00020748
     atom    3 type  1   force =     0.00033965    0.00031656   -0.00021107
     atom    4 type  1   force =    -0.00040533   -0.00014999    0.00014329
     atom    5 type  1   force =     0.00027214    0.00022032   -0.00014379

     Total force =     0.001043     Total SCF correction =     0.000023

     bfgs converged in  40 scf cycles and  39 bfgs steps
     (criteria: energy <  1.0E-04, force <  1.0E-03)

     End of BFGS Geometry Optimization

     Final energy   =    -329.4913314088 Ry
Begin final coordinates

ATOMIC_POSITIONS (bohr)
Au      -1.825832494   1.388537277  -0.569439038
Au      -0.797802742   3.153410810   4.179557424
Au       3.045903011   1.605000504   0.775869961
Au       4.108627669   3.430269112   5.841986714
Au       7.762245557   1.997643297   2.527368938
End final coordinates



     Writing output data file pwscf.save
 
     init_run     :      0.18s CPU      0.20s WALL (       1 calls)
     electrons    :     98.41s CPU    104.23s WALL (      40 calls)
     update_pot   :      2.75s CPU      3.56s WALL (      39 calls)
     forces       :      1.78s CPU      1.80s WALL (      40 calls)

     Called by init_run:
     wfcinit      :      0.08s CPU      0.10s WALL (       1 calls)
     potinit      :      0.03s CPU      0.04s WALL (       1 calls)

     Called by electrons:
     c_bands      :     75.47s CPU     76.25s WALL (     410 calls)
     sum_band     :     10.75s CPU     10.96s WALL (     410 calls)
     v_of_rho     :      8.29s CPU      8.39s WALL (     432 calls)
     mix_rho      :      3.34s CPU      6.79s WALL (     410 calls)

     Called by c_bands:
     init_us_2    :      1.36s CPU      1.41s WALL (     821 calls)
     cegterg      :     67.19s CPU     67.76s WALL (     410 calls)

     Called by sum_band:

     Called by *egterg:
     h_psi        :     52.74s CPU     53.15s WALL (    1421 calls)
     g_psi        :      0.54s CPU      0.54s WALL (    1010 calls)
     cdiaghg      :      3.57s CPU      3.59s WALL (    1363 calls)

     Called by h_psi:
     h_psi:pot    :     52.03s CPU     52.43s WALL (    1421 calls)
     h_psi:calbec :      2.78s CPU      2.79s WALL (    1421 calls)
     vloc_psi     :     46.12s CPU     46.51s WALL (    1421 calls)
     add_vuspsi   :      3.12s CPU      3.13s WALL (    1421 calls)

     General routines
     calbec       :      3.27s CPU      3.30s WALL (    1581 calls)
     fft          :      4.70s CPU      4.79s WALL (    4867 calls)
     fftw         :     48.45s CPU     49.11s WALL (   91134 calls)
     davcio       :      0.52s CPU      3.20s WALL (    4123 calls)
 
     Parallel routines
     fft_scatter  :     12.47s CPU     12.20s WALL (   96001 calls)
 
     PWSCF        :  1m44.23s CPU     1m52.12s WALL

 
   This run was terminated on:  23:37:32   3Aug2017            

=------------------------------------------------------------------------------=
   JOB DONE.
=------------------------------------------------------------------------------=
