
     Program PWSCF v.6.0 (svn rev. 13079) starts on  3Aug2017 at 21:25:45 

     This program is part of the open-source Quantum ESPRESSO suite
     for quantum simulation of materials; please cite
         "P. Giannozzi et al., J. Phys.:Condens. Matter 21 395502 (2009);
          URL http://www.quantum-espresso.org", 
     in publications or presentations arising from this work. More details at
     http://www.quantum-espresso.org/quote

     Parallel version (MPI), running on    10 processors
     R & G space division:  proc/nbgrp/npool/nimage =      10
     Reading input from input/multi/minchecks-Gold5-480.in

     Current dimensions of program PWSCF are:
     Max number of different atomic species (ntypx) = 10
     Max number of k-points (npk) =  40000
     Max angular momentum in pseudopotentials (lmaxx) =  3
     Message from routine iosys:
     pot_extrapolation='second-order' not available, using 'atomic'
     Message from routine iosys:
     wfc_extrapolation='second-order' not available, using 'atomic'

     Subspace diagonalization in iterative solution of the eigenvalue problem:
     a serial algorithm will be used

 
     Parallelization info
     --------------------
     sticks:   dense  smooth     PW     G-vecs:    dense   smooth      PW
     Min         380     380     94                17748    17748    2208
     Max         381     381     95                17753    17753    2213
     Sum        3809    3809    949               177509   177509   22119
 


     bravais-lattice index     =            1
     lattice parameter (alat)  =      20.0000  a.u.
     unit-cell volume          =    8000.0000 (a.u.)^3
     number of atoms/cell      =            5
     number of atomic types    =            1
     number of electrons       =        55.00
     number of Kohn-Sham states=           34
     kinetic-energy cutoff     =      30.0000  Ry
     charge density cutoff     =     120.0000  Ry
     convergence threshold     =      1.0E-08
     mixing beta               =       0.7000
     number of iterations used =            8  plain     mixing
     Exchange-correlation      = BLYP ( 1  3  1  3 0 0)
     nstep                     =           50


     celldm(1)=  20.000000  celldm(2)=   0.000000  celldm(3)=   0.000000
     celldm(4)=   0.000000  celldm(5)=   0.000000  celldm(6)=   0.000000

     crystal axes: (cart. coord. in units of alat)
               a(1) = (   1.000000   0.000000   0.000000 )  
               a(2) = (   0.000000   1.000000   0.000000 )  
               a(3) = (   0.000000   0.000000   1.000000 )  

     reciprocal axes: (cart. coord. in units 2 pi/alat)
               b(1) = (  1.000000  0.000000  0.000000 )  
               b(2) = (  0.000000  1.000000  0.000000 )  
               b(3) = (  0.000000  0.000000  1.000000 )  


     PseudoPot. # 1 for Au read from file:
     ./Au.blyp-d-hgh.UPF
     MD5 check sum: c10d8bae01f806c36a1643a1c69a8479
     Pseudo is Norm-conserving, Zval = 11.0
     Generated in analytical, separable form
     Using radial grid of 1279 points,  6 beta functions with: 
                l(1) =   0
                l(2) =   0
                l(3) =   1
                l(4) =   1
                l(5) =   2
                l(6) =   2

     atomic species   valence    mass     pseudopotential
        Au            11.00    28.08600     Au( 1.00)

     No symmetry found



   Cartesian axes

     site n.     atom                  positions (alat units)
         1           Au  tau(   1) = (  -0.0955639   0.1177290  -0.0513721  )
         2           Au  tau(   2) = (  -0.0353896   0.1930967   0.1856995  )
         3           Au  tau(   3) = (   0.1685377   0.0850100   0.0215579  )
         4           Au  tau(   4) = (   0.2023248   0.2020773   0.2820874  )
         5           Au  tau(   5) = (   0.3825939   0.0701225   0.1665431  )

     number of k points=     1  Marzari-Vanderbilt smearing, width (Ry)=  0.0250
                       cart. coord. in units 2pi/alat
        k(    1) = (   0.0000000   0.0000000   0.0000000), wk =   2.0000000

     Dense  grid:   177509 G-vectors     FFT dimensions: (  72,  72,  72)

     Estimated max dynamical RAM per process >      15.04Mb

     Estimated total allocated dynamical RAM >     150.39Mb

     Initial potential from superposition of free atoms
     Check: negative starting charge=   -0.006225

     starting charge   54.99940, renormalised to   55.00000

     negative rho (up, down):  6.225E-03 0.000E+00
     Starting wfc are   45 randomized atomic wfcs

     total cpu time spent up to now is        0.3 secs

     per-process dynamical memory:    41.0 Mb

     Self-consistent Calculation

     iteration #  1     ecut=    30.00 Ry     beta=0.70
     Davidson diagonalization with overlap
     ethr =  1.00E-02,  avg # of iterations =  3.0

     Threshold (ethr) on eigenvalues was too large:
     Diagonalizing with lowered threshold

     Davidson diagonalization with overlap
     ethr =  3.94E-04,  avg # of iterations =  5.0

     negative rho (up, down):  8.392E-04 0.000E+00

     total cpu time spent up to now is        0.7 secs

     total energy              =    -329.36972192 Ry
     Harris-Foulkes estimate   =    -329.53116480 Ry
     estimated scf accuracy    <       0.26892512 Ry

     iteration #  2     ecut=    30.00 Ry     beta=0.70
     Davidson diagonalization with overlap
     ethr =  4.89E-04,  avg # of iterations =  3.0

     negative rho (up, down):  3.830E-04 0.000E+00

     total cpu time spent up to now is        0.9 secs

     total energy              =    -329.39822801 Ry
     Harris-Foulkes estimate   =    -329.55364859 Ry
     estimated scf accuracy    <       0.32450444 Ry

     iteration #  3     ecut=    30.00 Ry     beta=0.70
     Davidson diagonalization with overlap
     ethr =  4.89E-04,  avg # of iterations =  2.0

     negative rho (up, down):  1.406E-04 0.000E+00

     total cpu time spent up to now is        1.2 secs

     total energy              =    -329.46353648 Ry
     Harris-Foulkes estimate   =    -329.49064346 Ry
     estimated scf accuracy    <       0.07068217 Ry

     iteration #  4     ecut=    30.00 Ry     beta=0.70
     Davidson diagonalization with overlap
     ethr =  1.29E-04,  avg # of iterations =  2.0

     negative rho (up, down):  1.073E-05 0.000E+00

     total cpu time spent up to now is        1.4 secs

     total energy              =    -329.47621026 Ry
     Harris-Foulkes estimate   =    -329.47794076 Ry
     estimated scf accuracy    <       0.00414162 Ry

     iteration #  5     ecut=    30.00 Ry     beta=0.70
     Davidson diagonalization with overlap
     ethr =  7.53E-06,  avg # of iterations =  6.0

     total cpu time spent up to now is        1.7 secs

     total energy              =    -329.47712934 Ry
     Harris-Foulkes estimate   =    -329.47814806 Ry
     estimated scf accuracy    <       0.00277840 Ry

     iteration #  6     ecut=    30.00 Ry     beta=0.70
     Davidson diagonalization with overlap
     ethr =  5.05E-06,  avg # of iterations =  2.0

     total cpu time spent up to now is        1.9 secs

     total energy              =    -329.47757256 Ry
     Harris-Foulkes estimate   =    -329.47774363 Ry
     estimated scf accuracy    <       0.00041359 Ry

     iteration #  7     ecut=    30.00 Ry     beta=0.70
     Davidson diagonalization with overlap
     ethr =  7.52E-07,  avg # of iterations =  2.0

     total cpu time spent up to now is        2.1 secs

     total energy              =    -329.47765550 Ry
     Harris-Foulkes estimate   =    -329.47767105 Ry
     estimated scf accuracy    <       0.00003585 Ry

     iteration #  8     ecut=    30.00 Ry     beta=0.70
     Davidson diagonalization with overlap
     ethr =  6.52E-08,  avg # of iterations =  2.0

     total cpu time spent up to now is        2.3 secs

     total energy              =    -329.47766327 Ry
     Harris-Foulkes estimate   =    -329.47766878 Ry
     estimated scf accuracy    <       0.00001138 Ry

     iteration #  9     ecut=    30.00 Ry     beta=0.70
     Davidson diagonalization with overlap
     ethr =  2.07E-08,  avg # of iterations =  2.0

     total cpu time spent up to now is        2.5 secs

     total energy              =    -329.47766555 Ry
     Harris-Foulkes estimate   =    -329.47766607 Ry
     estimated scf accuracy    <       0.00000115 Ry

     iteration # 10     ecut=    30.00 Ry     beta=0.70
     Davidson diagonalization with overlap
     ethr =  2.09E-09,  avg # of iterations =  2.0

     total cpu time spent up to now is        2.8 secs

     total energy              =    -329.47766577 Ry
     Harris-Foulkes estimate   =    -329.47766589 Ry
     estimated scf accuracy    <       0.00000021 Ry

     iteration # 11     ecut=    30.00 Ry     beta=0.70
     Davidson diagonalization with overlap
     ethr =  3.87E-10,  avg # of iterations =  2.0

     total cpu time spent up to now is        3.0 secs

     total energy              =    -329.47766579 Ry
     Harris-Foulkes estimate   =    -329.47766583 Ry
     estimated scf accuracy    <       0.00000003 Ry

     iteration # 12     ecut=    30.00 Ry     beta=0.70
     Davidson diagonalization with overlap
     ethr =  5.18E-11,  avg # of iterations =  3.0

     total cpu time spent up to now is        3.3 secs

     total energy              =    -329.47766572 Ry
     Harris-Foulkes estimate   =    -329.47766580 Ry
     estimated scf accuracy    <       0.00000001 Ry

     iteration # 13     ecut=    30.00 Ry     beta=0.70
     Davidson diagonalization with overlap
     ethr =  1.87E-11,  avg # of iterations =  2.0

     total cpu time spent up to now is        3.4 secs

     End of self-consistent calculation

          k = 0.0000 0.0000 0.0000 ( 22119 PWs)   bands (ev):

    -8.0619  -7.5282  -7.5095  -7.1443  -6.8381  -6.6860  -6.5614  -6.3735
    -6.2380  -6.0250  -5.8155  -5.6248  -5.6205  -5.5749  -5.4506  -5.4124
    -5.3489  -5.2264  -5.2059  -5.1734  -5.1543  -5.1236  -5.0713  -4.9179
    -4.8420  -4.7608  -4.4348  -3.7806  -2.7357  -2.1432  -0.4940  -0.1830
     0.3444   0.6723

     the Fermi energy is    -3.7536 ev

!    total energy              =    -329.47766573 Ry
     Harris-Foulkes estimate   =    -329.47766572 Ry
     estimated scf accuracy    <          2.1E-09 Ry

     The total energy is the sum of the following terms:

     one-electron contribution =    -593.04598188 Ry
     hartree contribution      =     318.05401578 Ry
     xc contribution           =     -51.35917943 Ry
     ewald contribution        =      -3.12331828 Ry
     smearing contrib. (-TS)   =      -0.00320191 Ry

     convergence has been achieved in  13 iterations

     Forces acting on atoms (Ry/au):

     atom    1 type  1   force =     0.02848565   -0.00328870    0.00706047
     atom    2 type  1   force =     0.00601696   -0.00257163   -0.01073247
     atom    3 type  1   force =    -0.02544399    0.00858844    0.01756563
     atom    4 type  1   force =    -0.00582010    0.00221230   -0.00054326
     atom    5 type  1   force =    -0.00323852   -0.00494040   -0.01335036

     Total force =     0.048083     Total SCF correction =     0.000189

     BFGS Geometry Optimization

     number of scf cycles    =   1
     number of bfgs steps    =   0

     energy   new            =    -329.4776657342 Ry

     new trust radius        =       0.0320890814 bohr
     new conv_thr            =       0.0000000100 Ry


ATOMIC_POSITIONS (bohr)
Au      -1.882793346   2.351291298  -1.020381534
Au      -0.701775045   3.859361367   3.703258530
Au       3.345311012   1.708787437   0.448724630
Au       4.040676903   4.043757302   5.641204737
Au       7.648638476   1.397508595   3.317511637



     Writing output data file pwscf.save
     Check: negative starting charge=   -0.006225
     NEW-OLD atomic charge density approx. for the potential
     Check: negative starting charge=   -0.006218

     negative rho (up, down):  1.901E-04 0.000E+00

     total cpu time spent up to now is        3.7 secs

     per-process dynamical memory:    42.9 Mb

     Self-consistent Calculation

     iteration #  1     ecut=    30.00 Ry     beta=0.70
     Davidson diagonalization with overlap
     ethr =  1.00E-06,  avg # of iterations =  4.0

     negative rho (up, down):  3.357E-06 0.000E+00

     total cpu time spent up to now is        4.1 secs

     total energy              =    -329.47977912 Ry
     Harris-Foulkes estimate   =    -329.47976542 Ry
     estimated scf accuracy    <       0.00014044 Ry

     iteration #  2     ecut=    30.00 Ry     beta=0.70
     Davidson diagonalization with overlap
     ethr =  2.55E-07,  avg # of iterations =  3.0

     negative rho (up, down):  8.085E-07 0.000E+00

     total cpu time spent up to now is        4.3 secs

     total energy              =    -329.47975097 Ry
     Harris-Foulkes estimate   =    -329.47990792 Ry
     estimated scf accuracy    <       0.00041064 Ry

     iteration #  3     ecut=    30.00 Ry     beta=0.70
     Davidson diagonalization with overlap
     ethr =  2.55E-07,  avg # of iterations =  2.0

     total cpu time spent up to now is        4.5 secs

     total energy              =    -329.47983287 Ry
     Harris-Foulkes estimate   =    -329.47984250 Ry
     estimated scf accuracy    <       0.00003763 Ry

     iteration #  4     ecut=    30.00 Ry     beta=0.70
     Davidson diagonalization with overlap
     ethr =  6.84E-08,  avg # of iterations =  2.0

     total cpu time spent up to now is        4.7 secs

     total energy              =    -329.47984044 Ry
     Harris-Foulkes estimate   =    -329.47984145 Ry
     estimated scf accuracy    <       0.00000466 Ry

     iteration #  5     ecut=    30.00 Ry     beta=0.70
     Davidson diagonalization with overlap
     ethr =  8.48E-09,  avg # of iterations =  2.0

     total cpu time spent up to now is        4.9 secs

     total energy              =    -329.47984148 Ry
     Harris-Foulkes estimate   =    -329.47984170 Ry
     estimated scf accuracy    <       0.00000062 Ry

     iteration #  6     ecut=    30.00 Ry     beta=0.70
     Davidson diagonalization with overlap
     ethr =  1.12E-09,  avg # of iterations =  2.0

     total cpu time spent up to now is        5.2 secs

     total energy              =    -329.47984158 Ry
     Harris-Foulkes estimate   =    -329.47984165 Ry
     estimated scf accuracy    <       0.00000007 Ry

     iteration #  7     ecut=    30.00 Ry     beta=0.70
     Davidson diagonalization with overlap
     ethr =  1.35E-10,  avg # of iterations =  2.0

     total cpu time spent up to now is        5.4 secs

     total energy              =    -329.47984177 Ry
     Harris-Foulkes estimate   =    -329.47984161 Ry
     estimated scf accuracy    <       0.00000004 Ry

     iteration #  8     ecut=    30.00 Ry     beta=0.70
     Davidson diagonalization with overlap
     ethr =  6.95E-11,  avg # of iterations =  2.0

     total cpu time spent up to now is        5.6 secs

     End of self-consistent calculation

          k = 0.0000 0.0000 0.0000 ( 22119 PWs)   bands (ev):

    -8.0892  -7.5592  -7.5272  -7.1701  -6.8584  -6.6946  -6.5652  -6.3939
    -6.2591  -6.0271  -5.8310  -5.6387  -5.6335  -5.5868  -5.4530  -5.4139
    -5.3474  -5.2295  -5.2028  -5.1727  -5.1588  -5.1200  -5.0795  -4.9156
    -4.8421  -4.7517  -4.4354  -3.7748  -2.7154  -2.1378  -0.4988  -0.1804
     0.3539   0.6756

     the Fermi energy is    -3.7469 ev

!    total energy              =    -329.47984181 Ry
     Harris-Foulkes estimate   =    -329.47984177 Ry
     estimated scf accuracy    <          1.5E-09 Ry

     The total energy is the sum of the following terms:

     one-electron contribution =    -594.99431614 Ry
     hartree contribution      =     319.01545802 Ry
     xc contribution           =     -51.36412995 Ry
     ewald contribution        =      -2.13346784 Ry
     smearing contrib. (-TS)   =      -0.00338590 Ry

     convergence has been achieved in   8 iterations

     Forces acting on atoms (Ry/au):

     atom    1 type  1   force =     0.02562608   -0.00402003    0.00412338
     atom    2 type  1   force =     0.00524589   -0.00116764   -0.00789948
     atom    3 type  1   force =    -0.02214840    0.00745539    0.01666392
     atom    4 type  1   force =    -0.00433720    0.00185891   -0.00027458
     atom    5 type  1   force =    -0.00438636   -0.00412662   -0.01261324

     Total force =     0.042693     Total SCF correction =     0.000166

     number of scf cycles    =   2
     number of bfgs steps    =   1

     energy   old            =    -329.4776657342 Ry
     energy   new            =    -329.4798418107 Ry

     CASE: energy  _new < energy  _old


     WARNING: bfgs curvature condition failed, Theta= 0.905
     new trust radius        =       0.0352979896 bohr
     new conv_thr            =       0.0000000022 Ry


ATOMIC_POSITIONS (bohr)
Au      -1.851306536   2.346580100  -1.014836037
Au      -0.695293497   3.857680323   3.693174965
Au       3.317937839   1.718006127   0.469014362
Au       4.035154565   4.046069581   5.640821320
Au       7.643565630   1.392369869   3.302143390



     Writing output data file pwscf.save
     Check: negative starting charge=   -0.006218
     NEW-OLD atomic charge density approx. for the potential
     Check: negative starting charge=   -0.006223

     negative rho (up, down):  2.337E-04 0.000E+00

     total cpu time spent up to now is        5.8 secs

     per-process dynamical memory:    50.7 Mb

     Self-consistent Calculation

     iteration #  1     ecut=    30.00 Ry     beta=0.70
     Davidson diagonalization with overlap
     ethr =  1.00E-06,  avg # of iterations =  4.0

     negative rho (up, down):  4.966E-06 0.000E+00

     total cpu time spent up to now is        6.1 secs

     total energy              =    -329.48186513 Ry
     Harris-Foulkes estimate   =    -329.48183322 Ry
     estimated scf accuracy    <       0.00016140 Ry

     iteration #  2     ecut=    30.00 Ry     beta=0.70
     Davidson diagonalization with overlap
     ethr =  2.93E-07,  avg # of iterations =  3.0

     negative rho (up, down):  1.188E-06 0.000E+00

     total cpu time spent up to now is        6.4 secs

     total energy              =    -329.48183793 Ry
     Harris-Foulkes estimate   =    -329.48200137 Ry
     estimated scf accuracy    <       0.00041359 Ry

     iteration #  3     ecut=    30.00 Ry     beta=0.70
     Davidson diagonalization with overlap
     ethr =  2.93E-07,  avg # of iterations =  2.0

     total cpu time spent up to now is        6.6 secs

     total energy              =    -329.48192260 Ry
     Harris-Foulkes estimate   =    -329.48193683 Ry
     estimated scf accuracy    <       0.00005035 Ry

     iteration #  4     ecut=    30.00 Ry     beta=0.70
     Davidson diagonalization with overlap
     ethr =  9.15E-08,  avg # of iterations =  2.0

     total cpu time spent up to now is        6.8 secs

     total energy              =    -329.48193263 Ry
     Harris-Foulkes estimate   =    -329.48193376 Ry
     estimated scf accuracy    <       0.00000554 Ry

     iteration #  5     ecut=    30.00 Ry     beta=0.70
     Davidson diagonalization with overlap
     ethr =  1.01E-08,  avg # of iterations =  2.0

     total cpu time spent up to now is        7.0 secs

     total energy              =    -329.48193383 Ry
     Harris-Foulkes estimate   =    -329.48193412 Ry
     estimated scf accuracy    <       0.00000072 Ry

     iteration #  6     ecut=    30.00 Ry     beta=0.70
     Davidson diagonalization with overlap
     ethr =  1.31E-09,  avg # of iterations =  2.0

     total cpu time spent up to now is        7.2 secs

     total energy              =    -329.48193398 Ry
     Harris-Foulkes estimate   =    -329.48193401 Ry
     estimated scf accuracy    <       0.00000005 Ry

     iteration #  7     ecut=    30.00 Ry     beta=0.70
     Davidson diagonalization with overlap
     ethr =  9.21E-11,  avg # of iterations =  2.0

     total cpu time spent up to now is        7.4 secs

     total energy              =    -329.48193400 Ry
     Harris-Foulkes estimate   =    -329.48193400 Ry
     estimated scf accuracy    <       0.00000003 Ry

     iteration #  8     ecut=    30.00 Ry     beta=0.70
     Davidson diagonalization with overlap
     ethr =  4.99E-11,  avg # of iterations =  2.0

     total cpu time spent up to now is        7.6 secs

     total energy              =    -329.48193404 Ry
     Harris-Foulkes estimate   =    -329.48193400 Ry
     estimated scf accuracy    <          3.0E-09 Ry

     iteration #  9     ecut=    30.00 Ry     beta=0.70
     Davidson diagonalization with overlap
     ethr =  5.44E-12,  avg # of iterations =  2.0

     total cpu time spent up to now is        7.8 secs

     End of self-consistent calculation

          k = 0.0000 0.0000 0.0000 ( 22119 PWs)   bands (ev):

    -8.1254  -7.5928  -7.5483  -7.1976  -6.8798  -6.7022  -6.5758  -6.4149
    -6.2808  -6.0282  -5.8491  -5.6567  -5.6447  -5.5994  -5.4552  -5.4148
    -5.3454  -5.2317  -5.2001  -5.1732  -5.1623  -5.1150  -5.0868  -4.9132
    -4.8424  -4.7410  -4.4360  -3.7689  -2.6921  -2.1328  -0.5041  -0.1778
     0.3642   0.6801

     the Fermi energy is    -3.7401 ev

!    total energy              =    -329.48193399 Ry
     Harris-Foulkes estimate   =    -329.48193404 Ry
     estimated scf accuracy    <          3.1E-10 Ry

     The total energy is the sum of the following terms:

     one-electron contribution =    -597.11577625 Ry
     hartree contribution      =     320.06159749 Ry
     xc contribution           =     -51.36975017 Ry
     ewald contribution        =      -1.05444322 Ry
     smearing contrib. (-TS)   =      -0.00356184 Ry

     convergence has been achieved in   9 iterations

     Forces acting on atoms (Ry/au):

     atom    1 type  1   force =     0.02286905   -0.00472165    0.00115708
     atom    2 type  1   force =     0.00419834    0.00024472   -0.00491289
     atom    3 type  1   force =    -0.01859558    0.00630541    0.01531675
     atom    4 type  1   force =    -0.00298810    0.00155917    0.00016802
     atom    5 type  1   force =    -0.00548372   -0.00338766   -0.01172896

     Total force =     0.037405     Total SCF correction =     0.000084

     number of scf cycles    =   3
     number of bfgs steps    =   2

     energy   old            =    -329.4798418107 Ry
     energy   new            =    -329.4819339902 Ry

     CASE: energy  _new < energy  _old

     new trust radius        =       0.0529469844 bohr
     new conv_thr            =       0.0000000021 Ry


ATOMIC_POSITIONS (bohr)
Au      -1.803037307   2.337600282  -1.010254064
Au      -0.686127218   3.857101698   3.681046279
Au       3.277814140   1.731595199   0.500776117
Au       4.028051012   4.049462546   5.640886465
Au       7.633357373   1.384946275   3.277863202



     Writing output data file pwscf.save
     Check: negative starting charge=   -0.006223
     NEW-OLD atomic charge density approx. for the potential
     Check: negative starting charge=   -0.006249

     negative rho (up, down):  5.390E-04 0.000E+00

     total cpu time spent up to now is        8.1 secs

     per-process dynamical memory:    50.7 Mb

     Self-consistent Calculation

     iteration #  1     ecut=    30.00 Ry     beta=0.70
     Davidson diagonalization with overlap
     ethr =  1.00E-06,  avg # of iterations =  5.0

     negative rho (up, down):  2.347E-05 0.000E+00

     total cpu time spent up to now is        8.4 secs

     total energy              =    -329.48444595 Ry
     Harris-Foulkes estimate   =    -329.48421512 Ry
     estimated scf accuracy    <       0.00035233 Ry

     iteration #  2     ecut=    30.00 Ry     beta=0.70
     Davidson diagonalization with overlap
     ethr =  6.41E-07,  avg # of iterations =  4.0

     negative rho (up, down):  7.138E-06 0.000E+00

     total cpu time spent up to now is        8.7 secs

     total energy              =    -329.48440432 Ry
     Harris-Foulkes estimate   =    -329.48471547 Ry
     estimated scf accuracy    <       0.00076085 Ry

     iteration #  3     ecut=    30.00 Ry     beta=0.70
     Davidson diagonalization with overlap
     ethr =  6.41E-07,  avg # of iterations =  2.0

     negative rho (up, down):  9.934E-08 0.000E+00

     total cpu time spent up to now is        9.0 secs

     total energy              =    -329.48456412 Ry
     Harris-Foulkes estimate   =    -329.48460348 Ry
     estimated scf accuracy    <       0.00012853 Ry

     iteration #  4     ecut=    30.00 Ry     beta=0.70
     Davidson diagonalization with overlap
     ethr =  2.34E-07,  avg # of iterations =  2.0

     total cpu time spent up to now is        9.2 secs

     total energy              =    -329.48458931 Ry
     Harris-Foulkes estimate   =    -329.48459183 Ry
     estimated scf accuracy    <       0.00001204 Ry

     iteration #  5     ecut=    30.00 Ry     beta=0.70
     Davidson diagonalization with overlap
     ethr =  2.19E-08,  avg # of iterations =  2.0

     total cpu time spent up to now is        9.4 secs

     total energy              =    -329.48459202 Ry
     Harris-Foulkes estimate   =    -329.48459264 Ry
     estimated scf accuracy    <       0.00000181 Ry

     iteration #  6     ecut=    30.00 Ry     beta=0.70
     Davidson diagonalization with overlap
     ethr =  3.29E-09,  avg # of iterations =  2.0

     total cpu time spent up to now is        9.6 secs

     total energy              =    -329.48459224 Ry
     Harris-Foulkes estimate   =    -329.48459249 Ry
     estimated scf accuracy    <       0.00000014 Ry

     iteration #  7     ecut=    30.00 Ry     beta=0.70
     Davidson diagonalization with overlap
     ethr =  2.55E-10,  avg # of iterations =  2.0

     total cpu time spent up to now is        9.8 secs

     total energy              =    -329.48459224 Ry
     Harris-Foulkes estimate   =    -329.48459229 Ry
     estimated scf accuracy    <       0.00000007 Ry

     iteration #  8     ecut=    30.00 Ry     beta=0.70
     Davidson diagonalization with overlap
     ethr =  1.31E-10,  avg # of iterations =  2.0

     total cpu time spent up to now is       10.0 secs

     total energy              =    -329.48459229 Ry
     Harris-Foulkes estimate   =    -329.48459225 Ry
     estimated scf accuracy    <          7.3E-09 Ry

     iteration #  9     ecut=    30.00 Ry     beta=0.70
     Davidson diagonalization with overlap
     ethr =  1.32E-11,  avg # of iterations =  3.0

     total cpu time spent up to now is       10.2 secs

     End of self-consistent calculation

          k = 0.0000 0.0000 0.0000 ( 22119 PWs)   bands (ev):

    -8.1902  -7.6416  -7.5830  -7.2378  -6.9092  -6.7101  -6.6046  -6.4411
    -6.3104  -6.0285  -5.8780  -5.6830  -5.6616  -5.6185  -5.4577  -5.4153
    -5.3423  -5.2323  -5.1987  -5.1768  -5.1642  -5.1097  -5.0911  -4.9102
    -4.8431  -4.7236  -4.4370  -3.7612  -2.6552  -2.1270  -0.5122  -0.1742
     0.3798   0.6882

     the Fermi energy is    -3.7314 ev

!    total energy              =    -329.48459231 Ry
     Harris-Foulkes estimate   =    -329.48459229 Ry
     estimated scf accuracy    <          8.7E-10 Ry

     The total energy is the sum of the following terms:

     one-electron contribution =    -600.25383864 Ry
     hartree contribution      =     321.60911802 Ry
     xc contribution           =     -51.37866234 Ry
     ewald contribution        =       0.54256712 Ry
     smearing contrib. (-TS)   =      -0.00377647 Ry

     convergence has been achieved in   9 iterations

     Forces acting on atoms (Ry/au):

     atom    1 type  1   force =     0.01919086   -0.00551877   -0.00305425
     atom    2 type  1   force =     0.00224321    0.00227624   -0.00077539
     atom    3 type  1   force =    -0.01340581    0.00432482    0.01320277
     atom    4 type  1   force =    -0.00125191    0.00132454    0.00101832
     atom    5 type  1   force =    -0.00677636   -0.00240682   -0.01039144

     Total force =     0.030914     Total SCF correction =     0.000137

     number of scf cycles    =   4
     number of bfgs steps    =   3

     energy   old            =    -329.4819339902 Ry
     energy   new            =    -329.4845923129 Ry

     CASE: energy  _new < energy  _old

     new trust radius        =       0.0794204765 bohr
     new conv_thr            =       0.0000000019 Ry


ATOMIC_POSITIONS (bohr)
Au      -1.728054967   2.321205602  -1.009579565
Au      -0.674045584   3.859519466   3.667568447
Au       3.219089679   1.751089229   0.550566001
Au       4.018988873   4.054791354   5.642443007
Au       7.614079999   1.374100350   3.239320111



     Writing output data file pwscf.save
     Check: negative starting charge=   -0.006249
     NEW-OLD atomic charge density approx. for the potential
     Check: negative starting charge=   -0.006292

     negative rho (up, down):  1.134E-03 0.000E+00

     total cpu time spent up to now is       10.5 secs

     per-process dynamical memory:    50.7 Mb

     Self-consistent Calculation

     iteration #  1     ecut=    30.00 Ry     beta=0.70
     Davidson diagonalization with overlap
     ethr =  1.00E-06,  avg # of iterations =  9.0

     negative rho (up, down):  7.965E-05 0.000E+00

     total cpu time spent up to now is       10.9 secs

     total energy              =    -329.48726059 Ry
     Harris-Foulkes estimate   =    -329.48644236 Ry
     estimated scf accuracy    <       0.00077120 Ry

     iteration #  2     ecut=    30.00 Ry     beta=0.70
     Davidson diagonalization with overlap
     ethr =  1.40E-06,  avg # of iterations =  5.0

     negative rho (up, down):  2.850E-05 0.000E+00

     total cpu time spent up to now is       11.2 secs

     total energy              =    -329.48719878 Ry
     Harris-Foulkes estimate   =    -329.48776897 Ry
     estimated scf accuracy    <       0.00133872 Ry

     iteration #  3     ecut=    30.00 Ry     beta=0.70
     Davidson diagonalization with overlap
     ethr =  1.40E-06,  avg # of iterations =  3.0

     negative rho (up, down):  1.233E-06 0.000E+00

     total cpu time spent up to now is       11.4 secs

     total energy              =    -329.48749465 Ry
     Harris-Foulkes estimate   =    -329.48759444 Ry
     estimated scf accuracy    <       0.00032829 Ry

     iteration #  4     ecut=    30.00 Ry     beta=0.70
     Davidson diagonalization with overlap
     ethr =  5.97E-07,  avg # of iterations =  2.0

     total cpu time spent up to now is       11.6 secs

     total energy              =    -329.48755711 Ry
     Harris-Foulkes estimate   =    -329.48756268 Ry
     estimated scf accuracy    <       0.00002541 Ry

     iteration #  5     ecut=    30.00 Ry     beta=0.70
     Davidson diagonalization with overlap
     ethr =  4.62E-08,  avg # of iterations =  2.0

     total cpu time spent up to now is       11.9 secs

     total energy              =    -329.48756288 Ry
     Harris-Foulkes estimate   =    -329.48756421 Ry
     estimated scf accuracy    <       0.00000387 Ry

     iteration #  6     ecut=    30.00 Ry     beta=0.70
     Davidson diagonalization with overlap
     ethr =  7.03E-09,  avg # of iterations =  2.0

     total cpu time spent up to now is       12.1 secs

     total energy              =    -329.48756363 Ry
     Harris-Foulkes estimate   =    -329.48756387 Ry
     estimated scf accuracy    <       0.00000037 Ry

     iteration #  7     ecut=    30.00 Ry     beta=0.70
     Davidson diagonalization with overlap
     ethr =  6.72E-10,  avg # of iterations =  2.0

     total cpu time spent up to now is       12.3 secs

     total energy              =    -329.48756364 Ry
     Harris-Foulkes estimate   =    -329.48756376 Ry
     estimated scf accuracy    <       0.00000016 Ry

     iteration #  8     ecut=    30.00 Ry     beta=0.70
     Davidson diagonalization with overlap
     ethr =  2.90E-10,  avg # of iterations =  2.0

     total cpu time spent up to now is       12.5 secs

     total energy              =    -329.48756363 Ry
     Harris-Foulkes estimate   =    -329.48756368 Ry
     estimated scf accuracy    <       0.00000002 Ry

     iteration #  9     ecut=    30.00 Ry     beta=0.70
     Davidson diagonalization with overlap
     ethr =  2.98E-11,  avg # of iterations =  2.0

     total cpu time spent up to now is       12.7 secs

     total energy              =    -329.48756362 Ry
     Harris-Foulkes estimate   =    -329.48756363 Ry
     estimated scf accuracy    <          2.7E-09 Ry

     iteration # 10     ecut=    30.00 Ry     beta=0.70
     Davidson diagonalization with overlap
     ethr =  4.88E-12,  avg # of iterations =  2.0

     total cpu time spent up to now is       12.9 secs

     End of self-consistent calculation

          k = 0.0000 0.0000 0.0000 ( 22119 PWs)   bands (ev):

    -8.3054  -7.7130  -7.6394  -7.2950  -6.9472  -6.7154  -6.6707  -6.4717
    -6.3473  -6.0283  -5.9241  -5.7212  -5.6867  -5.6482  -5.4596  -5.4146
    -5.3372  -5.2282  -5.2043  -5.1794  -5.1674  -5.1129  -5.0757  -4.9075
    -4.8444  -4.6960  -4.4387  -3.7517  -2.5962  -2.1216  -0.5243  -0.1697
     0.4038   0.7027

     the Fermi energy is    -3.7207 ev

!    total energy              =    -329.48756359 Ry
     Harris-Foulkes estimate   =    -329.48756362 Ry
     estimated scf accuracy    <          8.2E-10 Ry

     The total energy is the sum of the following terms:

     one-electron contribution =    -604.86252104 Ry
     hartree contribution      =     323.88197677 Ry
     xc contribution           =     -51.39309964 Ry
     ewald contribution        =       2.89009176 Ry
     smearing contrib. (-TS)   =      -0.00401144 Ry

     convergence has been achieved in  10 iterations

     Forces acting on atoms (Ry/au):

     atom    1 type  1   force =     0.01211660   -0.00638357   -0.00902244
     atom    2 type  1   force =    -0.00096788    0.00525487    0.00504269
     atom    3 type  1   force =    -0.00482481    0.00083986    0.00967960
     atom    4 type  1   force =     0.00142164    0.00131048    0.00272951
     atom    5 type  1   force =    -0.00774556   -0.00102164   -0.00842936

     Total force =     0.024164     Total SCF correction =     0.000103

     number of scf cycles    =   5
     number of bfgs steps    =   4

     energy   old            =    -329.4845923129 Ry
     energy   new            =    -329.4875635933 Ry

     CASE: energy  _new < energy  _old

     new trust radius        =       0.1191307148 bohr
     new conv_thr            =       0.0000000012 Ry


ATOMIC_POSITIONS (bohr)
Au      -1.613592245   2.290671078  -1.022151574
Au      -0.660454041   3.870588269   3.657493578
Au       3.136532155   1.777011470   0.629144419
Au       4.009314597   4.064050208   5.649106637
Au       7.578257535   1.358384975   3.176724940



     Writing output data file pwscf.save
     Check: negative starting charge=   -0.006292
     NEW-OLD atomic charge density approx. for the potential
     Check: negative starting charge=   -0.006326

     negative rho (up, down):  2.224E-03 0.000E+00

     total cpu time spent up to now is       13.1 secs

     per-process dynamical memory:    50.7 Mb

     Self-consistent Calculation

     iteration #  1     ecut=    30.00 Ry     beta=0.70
     Davidson diagonalization with overlap
     ethr =  1.00E-06,  avg # of iterations = 10.0

     negative rho (up, down):  2.195E-04 0.000E+00

     total cpu time spent up to now is       13.6 secs

     total energy              =    -329.48870368 Ry
     Harris-Foulkes estimate   =    -329.48762800 Ry
     estimated scf accuracy    <       0.00166834 Ry

     iteration #  2     ecut=    30.00 Ry     beta=0.70
     Davidson diagonalization with overlap
     ethr =  3.03E-06,  avg # of iterations =  7.0

     negative rho (up, down):  8.004E-05 0.000E+00

     total cpu time spent up to now is       13.9 secs

     total energy              =    -329.48873254 Ry
     Harris-Foulkes estimate   =    -329.48960104 Ry
     estimated scf accuracy    <       0.00195909 Ry

     iteration #  3     ecut=    30.00 Ry     beta=0.70
     Davidson diagonalization with overlap
     ethr =  3.03E-06,  avg # of iterations =  3.0

     negative rho (up, down):  7.869E-06 0.000E+00

     total cpu time spent up to now is       14.1 secs

     total energy              =    -329.48917513 Ry
     Harris-Foulkes estimate   =    -329.48943093 Ry
     estimated scf accuracy    <       0.00080646 Ry

     iteration #  4     ecut=    30.00 Ry     beta=0.70
     Davidson diagonalization with overlap
     ethr =  1.47E-06,  avg # of iterations =  2.0

     total cpu time spent up to now is       14.3 secs

     total energy              =    -329.48933042 Ry
     Harris-Foulkes estimate   =    -329.48934186 Ry
     estimated scf accuracy    <       0.00005762 Ry

     iteration #  5     ecut=    30.00 Ry     beta=0.70
     Davidson diagonalization with overlap
     ethr =  1.05E-07,  avg # of iterations =  2.0

     total cpu time spent up to now is       14.5 secs

     total energy              =    -329.48934244 Ry
     Harris-Foulkes estimate   =    -329.48934533 Ry
     estimated scf accuracy    <       0.00000639 Ry

     iteration #  6     ecut=    30.00 Ry     beta=0.70
     Davidson diagonalization with overlap
     ethr =  1.16E-08,  avg # of iterations =  2.0

     total cpu time spent up to now is       14.8 secs

     total energy              =    -329.48934371 Ry
     Harris-Foulkes estimate   =    -329.48934410 Ry
     estimated scf accuracy    <       0.00000068 Ry

     iteration #  7     ecut=    30.00 Ry     beta=0.70
     Davidson diagonalization with overlap
     ethr =  1.24E-09,  avg # of iterations =  2.0

     total cpu time spent up to now is       15.0 secs

     total energy              =    -329.48934367 Ry
     Harris-Foulkes estimate   =    -329.48934392 Ry
     estimated scf accuracy    <       0.00000020 Ry

     iteration #  8     ecut=    30.00 Ry     beta=0.70
     Davidson diagonalization with overlap
     ethr =  3.59E-10,  avg # of iterations =  3.0

     total cpu time spent up to now is       15.2 secs

     total energy              =    -329.48934367 Ry
     Harris-Foulkes estimate   =    -329.48934373 Ry
     estimated scf accuracy    <       0.00000004 Ry

     iteration #  9     ecut=    30.00 Ry     beta=0.70
     Davidson diagonalization with overlap
     ethr =  7.28E-11,  avg # of iterations =  2.0

     total cpu time spent up to now is       15.4 secs

     total energy              =    -329.48934367 Ry
     Harris-Foulkes estimate   =    -329.48934368 Ry
     estimated scf accuracy    <          4.0E-09 Ry

     iteration # 10     ecut=    30.00 Ry     beta=0.70
     Davidson diagonalization with overlap
     ethr =  7.26E-12,  avg # of iterations =  3.0

     total cpu time spent up to now is       15.7 secs

     total energy              =    -329.48934366 Ry
     Harris-Foulkes estimate   =    -329.48934367 Ry
     estimated scf accuracy    <          1.7E-09 Ry

     iteration # 11     ecut=    30.00 Ry     beta=0.70
     Davidson diagonalization with overlap
     ethr =  3.03E-12,  avg # of iterations =  2.0

     total cpu time spent up to now is       15.9 secs

     End of self-consistent calculation

          k = 0.0000 0.0000 0.0000 ( 22119 PWs)   bands (ev):

    -8.4970  -7.8176  -7.7295  -7.3600  -6.9879  -6.8006  -6.7007  -6.5182
    -6.3777  -6.0345  -5.9900  -5.7727  -5.7190  -5.6912  -5.4566  -5.4096
    -5.3303  -5.2209  -5.2145  -5.1823  -5.1754  -5.1115  -5.0348  -4.9075
    -4.8459  -4.6577  -4.4429  -3.7426  -2.5025  -2.1223  -0.5411  -0.1653
     0.4409   0.7285

     the Fermi energy is    -3.7105 ev

!    total energy              =    -329.48934366 Ry
     Harris-Foulkes estimate   =    -329.48934366 Ry
     estimated scf accuracy    <          1.8E-10 Ry

     The total energy is the sum of the following terms:

     one-electron contribution =    -611.22554200 Ry
     hartree contribution      =     327.02110703 Ry
     xc contribution           =     -51.41582380 Ry
     ewald contribution        =       6.13511798 Ry
     smearing contrib. (-TS)   =      -0.00420286 Ry

     convergence has been achieved in  11 iterations

     Forces acting on atoms (Ry/au):

     atom    1 type  1   force =    -0.00546061   -0.00612754   -0.01644406
     atom    2 type  1   force =    -0.00598551    0.00864719    0.01173839
     atom    3 type  1   force =     0.01167109   -0.00410746    0.00549335
     atom    4 type  1   force =     0.00609514    0.00116320    0.00549448
     atom    5 type  1   force =    -0.00632012    0.00042460   -0.00628215

     Total force =     0.030294     Total SCF correction =     0.000044

     number of scf cycles    =   6
     number of bfgs steps    =   5

     energy   old            =    -329.4875635933 Ry
     energy   new            =    -329.4893436588 Ry

     CASE: energy  _new < energy  _old

     new trust radius        =       0.0143212359 bohr
     new conv_thr            =       0.0000000016 Ry


ATOMIC_POSITIONS (bohr)
Au      -1.616037900   2.285357652  -1.035223837
Au      -0.665114375   3.877580416   3.666180089
Au       3.144323367   1.774242107   0.635434882
Au       4.013899489   4.065343612   5.653851378
Au       7.572987419   1.358182213   3.170075489



     Writing output data file pwscf.save
     Check: negative starting charge=   -0.006326
     NEW-OLD atomic charge density approx. for the potential
     Check: negative starting charge=   -0.006319

     negative rho (up, down):  2.981E-05 0.000E+00

     total cpu time spent up to now is       16.1 secs

     per-process dynamical memory:    50.7 Mb

     Self-consistent Calculation

     iteration #  1     ecut=    30.00 Ry     beta=0.70
     Davidson diagonalization with overlap
     ethr =  1.00E-06,  avg # of iterations =  4.0

     Threshold (ethr) on eigenvalues was too large:
     Diagonalizing with lowered threshold

     Davidson diagonalization with overlap
     ethr =  7.87E-08,  avg # of iterations =  1.0

     negative rho (up, down):  7.844E-08 0.000E+00

     total cpu time spent up to now is       16.6 secs

     total energy              =    -329.48996073 Ry
     Harris-Foulkes estimate   =    -329.48996851 Ry
     estimated scf accuracy    <       0.00004371 Ry

     iteration #  2     ecut=    30.00 Ry     beta=0.70
     Davidson diagonalization with overlap
     ethr =  7.95E-08,  avg # of iterations =  3.0

     total cpu time spent up to now is       16.8 secs

     total energy              =    -329.48995128 Ry
     Harris-Foulkes estimate   =    -329.49001120 Ry
     estimated scf accuracy    <       0.00016757 Ry

     iteration #  3     ecut=    30.00 Ry     beta=0.70
     Davidson diagonalization with overlap
     ethr =  7.95E-08,  avg # of iterations =  2.0

     total cpu time spent up to now is       17.0 secs

     total energy              =    -329.48998194 Ry
     Harris-Foulkes estimate   =    -329.48998295 Ry
     estimated scf accuracy    <       0.00000572 Ry

     iteration #  4     ecut=    30.00 Ry     beta=0.70
     Davidson diagonalization with overlap
     ethr =  1.04E-08,  avg # of iterations =  2.0

     total cpu time spent up to now is       17.2 secs

     total energy              =    -329.48998324 Ry
     Harris-Foulkes estimate   =    -329.48998351 Ry
     estimated scf accuracy    <       0.00000109 Ry

     iteration #  5     ecut=    30.00 Ry     beta=0.70
     Davidson diagonalization with overlap
     ethr =  1.98E-09,  avg # of iterations =  2.0

     total cpu time spent up to now is       17.5 secs

     total energy              =    -329.48998324 Ry
     Harris-Foulkes estimate   =    -329.48998361 Ry
     estimated scf accuracy    <       0.00000043 Ry

     iteration #  6     ecut=    30.00 Ry     beta=0.70
     Davidson diagonalization with overlap
     ethr =  7.76E-10,  avg # of iterations =  2.0

     total cpu time spent up to now is       17.7 secs

     total energy              =    -329.48998329 Ry
     Harris-Foulkes estimate   =    -329.48998333 Ry
     estimated scf accuracy    <       0.00000003 Ry

     iteration #  7     ecut=    30.00 Ry     beta=0.70
     Davidson diagonalization with overlap
     ethr =  5.01E-11,  avg # of iterations =  2.0

     total cpu time spent up to now is       17.9 secs

     total energy              =    -329.48998329 Ry
     Harris-Foulkes estimate   =    -329.48998329 Ry
     estimated scf accuracy    <          2.9E-09 Ry

     iteration #  8     ecut=    30.00 Ry     beta=0.70
     Davidson diagonalization with overlap
     ethr =  5.19E-12,  avg # of iterations =  2.0

     total cpu time spent up to now is       18.1 secs

     End of self-consistent calculation

          k = 0.0000 0.0000 0.0000 ( 22119 PWs)   bands (ev):

    -8.4806  -7.8059  -7.7157  -7.3411  -6.9804  -6.7882  -6.6922  -6.5132
    -6.3665  -6.0303  -5.9907  -5.7669  -5.7189  -5.6875  -5.4525  -5.4076
    -5.3300  -5.2205  -5.2147  -5.1817  -5.1750  -5.1143  -5.0322  -4.9086
    -4.8487  -4.6634  -4.4463  -3.7475  -2.4994  -2.1329  -0.5390  -0.1679
     0.4391   0.7302

     the Fermi energy is    -3.7157 ev

!    total energy              =    -329.48998325 Ry
     Harris-Foulkes estimate   =    -329.48998329 Ry
     estimated scf accuracy    <          2.7E-10 Ry

     The total energy is the sum of the following terms:

     one-electron contribution =    -610.42047204 Ry
     hartree contribution      =     326.62415443 Ry
     xc contribution           =     -51.41236526 Ry
     ewald contribution        =       5.72286594 Ry
     smearing contrib. (-TS)   =      -0.00416632 Ry

     convergence has been achieved in   8 iterations

     Forces acting on atoms (Ry/au):

     atom    1 type  1   force =    -0.00276936   -0.00516978   -0.01264706
     atom    2 type  1   force =    -0.00527706    0.00715479    0.00841308
     atom    3 type  1   force =     0.00759883   -0.00335679    0.00470948
     atom    4 type  1   force =     0.00528636    0.00111899    0.00514561
     atom    5 type  1   force =    -0.00483877    0.00025278   -0.00562111

     Total force =     0.023369     Total SCF correction =     0.000084

     number of scf cycles    =   7
     number of bfgs steps    =   6

     energy   old            =    -329.4893436588 Ry
     energy   new            =    -329.4899832520 Ry

     CASE: energy  _new < energy  _old

     new trust radius        =       0.0157533595 bohr
     new conv_thr            =       0.0000000006 Ry


ATOMIC_POSITIONS (bohr)
Au      -1.609072888   2.278243495  -1.047432265
Au      -0.668753905   3.884821504   3.672440815
Au       3.144214857   1.773527018   0.646946775
Au       4.017694526   4.067317241   5.659213087
Au       7.565975411   1.356796743   3.159149589



     Writing output data file pwscf.save
     Check: negative starting charge=   -0.006319
     NEW-OLD atomic charge density approx. for the potential
     Check: negative starting charge=   -0.006318

     negative rho (up, down):  4.194E-05 0.000E+00

     total cpu time spent up to now is       18.3 secs

     per-process dynamical memory:    50.7 Mb

     Self-consistent Calculation

     iteration #  1     ecut=    30.00 Ry     beta=0.70
     Davidson diagonalization with overlap
     ethr =  1.00E-06,  avg # of iterations =  4.0

     Threshold (ethr) on eigenvalues was too large:
     Diagonalizing with lowered threshold

     Davidson diagonalization with overlap
     ethr =  7.80E-08,  avg # of iterations =  1.0

     negative rho (up, down):  1.373E-07 0.000E+00

     total cpu time spent up to now is       18.8 secs

     total energy              =    -329.49042233 Ry
     Harris-Foulkes estimate   =    -329.49042336 Ry
     estimated scf accuracy    <       0.00004294 Ry

     iteration #  2     ecut=    30.00 Ry     beta=0.70
     Davidson diagonalization with overlap
     ethr =  7.81E-08,  avg # of iterations =  3.0

     total cpu time spent up to now is       19.0 secs

     total energy              =    -329.49041992 Ry
     Harris-Foulkes estimate   =    -329.49045212 Ry
     estimated scf accuracy    <       0.00007442 Ry

     iteration #  3     ecut=    30.00 Ry     beta=0.70
     Davidson diagonalization with overlap
     ethr =  7.81E-08,  avg # of iterations =  2.0

     total cpu time spent up to now is       19.2 secs

     total energy              =    -329.49043577 Ry
     Harris-Foulkes estimate   =    -329.49044103 Ry
     estimated scf accuracy    <       0.00001585 Ry

     iteration #  4     ecut=    30.00 Ry     beta=0.70
     Davidson diagonalization with overlap
     ethr =  2.88E-08,  avg # of iterations =  2.0

     total cpu time spent up to now is       19.4 secs

     total energy              =    -329.49043882 Ry
     Harris-Foulkes estimate   =    -329.49043912 Ry
     estimated scf accuracy    <       0.00000105 Ry

     iteration #  5     ecut=    30.00 Ry     beta=0.70
     Davidson diagonalization with overlap
     ethr =  1.90E-09,  avg # of iterations =  3.0

     total cpu time spent up to now is       19.7 secs

     total energy              =    -329.49043895 Ry
     Harris-Foulkes estimate   =    -329.49043921 Ry
     estimated scf accuracy    <       0.00000046 Ry

     iteration #  6     ecut=    30.00 Ry     beta=0.70
     Davidson diagonalization with overlap
     ethr =  8.32E-10,  avg # of iterations =  2.0

     total cpu time spent up to now is       19.9 secs

     total energy              =    -329.49043903 Ry
     Harris-Foulkes estimate   =    -329.49043905 Ry
     estimated scf accuracy    <       0.00000004 Ry

     iteration #  7     ecut=    30.00 Ry     beta=0.70
     Davidson diagonalization with overlap
     ethr =  6.46E-11,  avg # of iterations =  2.0

     total cpu time spent up to now is       20.1 secs

     total energy              =    -329.49043901 Ry
     Harris-Foulkes estimate   =    -329.49043904 Ry
     estimated scf accuracy    <          4.1E-09 Ry

     iteration #  8     ecut=    30.00 Ry     beta=0.70
     Davidson diagonalization with overlap
     ethr =  7.38E-12,  avg # of iterations =  2.0

     total cpu time spent up to now is       20.3 secs

     total energy              =    -329.49043899 Ry
     Harris-Foulkes estimate   =    -329.49043901 Ry
     estimated scf accuracy    <          1.3E-09 Ry

     iteration #  9     ecut=    30.00 Ry     beta=0.70
     Davidson diagonalization with overlap
     ethr =  2.38E-12,  avg # of iterations =  3.0

     total cpu time spent up to now is       20.6 secs

     End of self-consistent calculation

          k = 0.0000 0.0000 0.0000 ( 22119 PWs)   bands (ev):

    -8.4831  -7.8039  -7.7107  -7.3282  -6.9758  -6.7894  -6.6829  -6.5121
    -6.3579  -6.0307  -5.9932  -5.7658  -5.7209  -5.6876  -5.4489  -5.4051
    -5.3292  -5.2219  -5.2137  -5.1835  -5.1730  -5.1161  -5.0263  -4.9103
    -4.8511  -4.6654  -4.4501  -3.7510  -2.4896  -2.1428  -0.5384  -0.1697
     0.4405   0.7337

     the Fermi energy is    -3.7192 ev

!    total energy              =    -329.49043899 Ry
     Harris-Foulkes estimate   =    -329.49043899 Ry
     estimated scf accuracy    <          2.9E-10 Ry

     The total energy is the sum of the following terms:

     one-electron contribution =    -610.17541918 Ry
     hartree contribution      =     326.50344953 Ry
     xc contribution           =     -51.41117753 Ry
     ewald contribution        =       5.59686941 Ry
     smearing contrib. (-TS)   =      -0.00416121 Ry

     convergence has been achieved in   9 iterations

     Forces acting on atoms (Ry/au):

     atom    1 type  1   force =    -0.00203392   -0.00430203   -0.01022835
     atom    2 type  1   force =    -0.00501125    0.00618827    0.00631487
     atom    3 type  1   force =     0.00572974   -0.00312609    0.00389150
     atom    4 type  1   force =     0.00477885    0.00101480    0.00488425
     atom    5 type  1   force =    -0.00346343    0.00022506   -0.00486227

     Total force =     0.019280     Total SCF correction =     0.000075

     number of scf cycles    =   8
     number of bfgs steps    =   7

     energy   old            =    -329.4899832520 Ry
     energy   new            =    -329.4904389856 Ry

     CASE: energy  _new < energy  _old

     new trust radius        =       0.0236300392 bohr
     new conv_thr            =       0.0000000005 Ry


ATOMIC_POSITIONS (bohr)
Au      -1.597202542   2.267559129  -1.064848291
Au      -0.674830080   3.895826973   3.680337238
Au       3.142165528   1.772286882   0.664585721
Au       4.023666658   4.070415083   5.667996563
Au       7.556258436   1.354617933   3.142246768



     Writing output data file pwscf.save
     Check: negative starting charge=   -0.006318
     NEW-OLD atomic charge density approx. for the potential
     Check: negative starting charge=   -0.006322

     negative rho (up, down):  1.338E-04 0.000E+00

     total cpu time spent up to now is       20.8 secs

     per-process dynamical memory:    50.7 Mb

     Self-consistent Calculation

     iteration #  1     ecut=    30.00 Ry     beta=0.70
     Davidson diagonalization with overlap
     ethr =  1.00E-06,  avg # of iterations =  4.0

     negative rho (up, down):  1.601E-06 0.000E+00

     total cpu time spent up to now is       21.1 secs

     total energy              =    -329.49092253 Ry
     Harris-Foulkes estimate   =    -329.49091672 Ry
     estimated scf accuracy    <       0.00009487 Ry

     iteration #  2     ecut=    30.00 Ry     beta=0.70
     Davidson diagonalization with overlap
     ethr =  1.72E-07,  avg # of iterations =  3.0

     negative rho (up, down):  1.545E-07 0.000E+00

     total cpu time spent up to now is       21.3 secs

     total energy              =    -329.49092412 Ry
     Harris-Foulkes estimate   =    -329.49098105 Ry
     estimated scf accuracy    <       0.00012562 Ry

     iteration #  3     ecut=    30.00 Ry     beta=0.70
     Davidson diagonalization with overlap
     ethr =  1.72E-07,  avg # of iterations =  2.0

     total cpu time spent up to now is       21.5 secs

     total energy              =    -329.49095092 Ry
     Harris-Foulkes estimate   =    -329.49096385 Ry
     estimated scf accuracy    <       0.00003822 Ry

     iteration #  4     ecut=    30.00 Ry     beta=0.70
     Davidson diagonalization with overlap
     ethr =  6.95E-08,  avg # of iterations =  2.0

     total cpu time spent up to now is       21.7 secs

     total energy              =    -329.49095831 Ry
     Harris-Foulkes estimate   =    -329.49095922 Ry
     estimated scf accuracy    <       0.00000273 Ry

     iteration #  5     ecut=    30.00 Ry     beta=0.70
     Davidson diagonalization with overlap
     ethr =  4.97E-09,  avg # of iterations =  2.0

     total cpu time spent up to now is       22.0 secs

     total energy              =    -329.49095867 Ry
     Harris-Foulkes estimate   =    -329.49095915 Ry
     estimated scf accuracy    <       0.00000076 Ry

     iteration #  6     ecut=    30.00 Ry     beta=0.70
     Davidson diagonalization with overlap
     ethr =  1.38E-09,  avg # of iterations =  2.0

     total cpu time spent up to now is       22.2 secs

     total energy              =    -329.49095891 Ry
     Harris-Foulkes estimate   =    -329.49095884 Ry
     estimated scf accuracy    <       0.00000008 Ry

     iteration #  7     ecut=    30.00 Ry     beta=0.70
     Davidson diagonalization with overlap
     ethr =  1.49E-10,  avg # of iterations =  2.0

     total cpu time spent up to now is       22.4 secs

     total energy              =    -329.49095882 Ry
     Harris-Foulkes estimate   =    -329.49095893 Ry
     estimated scf accuracy    <       0.00000001 Ry

     iteration #  8     ecut=    30.00 Ry     beta=0.70
     Davidson diagonalization with overlap
     ethr =  1.85E-11,  avg # of iterations =  2.0

     total cpu time spent up to now is       22.6 secs

     total energy              =    -329.49095886 Ry
     Harris-Foulkes estimate   =    -329.49095883 Ry
     estimated scf accuracy    <          2.9E-09 Ry

     iteration #  9     ecut=    30.00 Ry     beta=0.70
     Davidson diagonalization with overlap
     ethr =  5.18E-12,  avg # of iterations =  2.0

     total cpu time spent up to now is       22.8 secs

     total energy              =    -329.49095887 Ry
     Harris-Foulkes estimate   =    -329.49095886 Ry
     estimated scf accuracy    <          5.4E-10 Ry

     iteration # 10     ecut=    30.00 Ry     beta=0.70
     Davidson diagonalization with overlap
     ethr =  9.74E-13,  avg # of iterations =  2.0

     total cpu time spent up to now is       23.0 secs

     End of self-consistent calculation

          k = 0.0000 0.0000 0.0000 ( 22119 PWs)   bands (ev):

    -8.4908  -7.8018  -7.7034  -7.3091  -6.9682  -6.7947  -6.6685  -6.5098
    -6.3448  -6.0361  -5.9928  -5.7649  -5.7238  -5.6882  -5.4440  -5.4009
    -5.3277  -5.2244  -5.2123  -5.1859  -5.1698  -5.1183  -5.0173  -4.9137
    -4.8546  -4.6675  -4.4562  -3.7557  -2.4744  -2.1579  -0.5375  -0.1721
     0.4430   0.7390

     the Fermi energy is    -3.7238 ev

!    total energy              =    -329.49095887 Ry
     Harris-Foulkes estimate   =    -329.49095887 Ry
     estimated scf accuracy    <          1.1E-10 Ry

     The total energy is the sum of the following terms:

     one-electron contribution =    -609.84508476 Ry
     hartree contribution      =     326.34054424 Ry
     xc contribution           =     -51.40965633 Ry
     ewald contribution        =       5.42741447 Ry
     smearing contrib. (-TS)   =      -0.00417647 Ry

     convergence has been achieved in  10 iterations

     Forces acting on atoms (Ry/au):

     atom    1 type  1   force =    -0.00132246   -0.00313881   -0.00728102
     atom    2 type  1   force =    -0.00451481    0.00495203    0.00374943
     atom    3 type  1   force =     0.00334408   -0.00282424    0.00278275
     atom    4 type  1   force =     0.00393584    0.00081024    0.00428292
     atom    5 type  1   force =    -0.00144265    0.00020078   -0.00353408

     Total force =     0.014127     Total SCF correction =     0.000044

     number of scf cycles    =   9
     number of bfgs steps    =   8

     energy   old            =    -329.4904389856 Ry
     energy   new            =    -329.4909588671 Ry

     CASE: energy  _new < energy  _old

     new trust radius        =       0.0354450588 bohr
     new conv_thr            =       0.0000000005 Ry


ATOMIC_POSITIONS (bohr)
Au      -1.578907255   2.251513663  -1.090619936
Au      -0.685430805   3.913117754   3.690574396
Au       3.137369544   1.769499387   0.691045779
Au       4.033368305   4.075176317   5.682415161
Au       7.543658211   1.351398880   3.116902600



     Writing output data file pwscf.save
     Check: negative starting charge=   -0.006322
     NEW-OLD atomic charge density approx. for the potential
     Check: negative starting charge=   -0.006337

     negative rho (up, down):  3.416E-04 0.000E+00

     total cpu time spent up to now is       23.3 secs

     per-process dynamical memory:    50.7 Mb

     Self-consistent Calculation

     iteration #  1     ecut=    30.00 Ry     beta=0.70
     Davidson diagonalization with overlap
     ethr =  1.00E-06,  avg # of iterations =  4.0

     negative rho (up, down):  1.035E-05 0.000E+00

     total cpu time spent up to now is       23.6 secs

     total energy              =    -329.49137132 Ry
     Harris-Foulkes estimate   =    -329.49128913 Ry
     estimated scf accuracy    <       0.00021481 Ry

     iteration #  2     ecut=    30.00 Ry     beta=0.70
     Davidson diagonalization with overlap
     ethr =  3.91E-07,  avg # of iterations =  3.0

     negative rho (up, down):  1.501E-06 0.000E+00

     total cpu time spent up to now is       23.9 secs

     total energy              =    -329.49138510 Ry
     Harris-Foulkes estimate   =    -329.49149510 Ry
     estimated scf accuracy    <       0.00023646 Ry

     iteration #  3     ecut=    30.00 Ry     beta=0.70
     Davidson diagonalization with overlap
     ethr =  3.91E-07,  avg # of iterations =  2.0

     negative rho (up, down):  2.867E-08 0.000E+00

     total cpu time spent up to now is       24.1 secs

     total energy              =    -329.49143421 Ry
     Harris-Foulkes estimate   =    -329.49146372 Ry
     estimated scf accuracy    <       0.00008423 Ry

     iteration #  4     ecut=    30.00 Ry     beta=0.70
     Davidson diagonalization with overlap
     ethr =  1.53E-07,  avg # of iterations =  2.0

     total cpu time spent up to now is       24.3 secs

     total energy              =    -329.49145183 Ry
     Harris-Foulkes estimate   =    -329.49145338 Ry
     estimated scf accuracy    <       0.00000717 Ry

     iteration #  5     ecut=    30.00 Ry     beta=0.70
     Davidson diagonalization with overlap
     ethr =  1.30E-08,  avg # of iterations =  2.0

     total cpu time spent up to now is       24.5 secs

     total energy              =    -329.49145338 Ry
     Harris-Foulkes estimate   =    -329.49145368 Ry
     estimated scf accuracy    <       0.00000134 Ry

     iteration #  6     ecut=    30.00 Ry     beta=0.70
     Davidson diagonalization with overlap
     ethr =  2.43E-09,  avg # of iterations =  2.0

     total cpu time spent up to now is       24.7 secs

     total energy              =    -329.49145357 Ry
     Harris-Foulkes estimate   =    -329.49145370 Ry
     estimated scf accuracy    <       0.00000017 Ry

     iteration #  7     ecut=    30.00 Ry     beta=0.70
     Davidson diagonalization with overlap
     ethr =  3.11E-10,  avg # of iterations =  2.0

     total cpu time spent up to now is       24.9 secs

     total energy              =    -329.49145360 Ry
     Harris-Foulkes estimate   =    -329.49145361 Ry
     estimated scf accuracy    <       0.00000003 Ry

     iteration #  8     ecut=    30.00 Ry     beta=0.70
     Davidson diagonalization with overlap
     ethr =  4.73E-11,  avg # of iterations =  2.0

     total cpu time spent up to now is       25.2 secs

     total energy              =    -329.49145355 Ry
     Harris-Foulkes estimate   =    -329.49145361 Ry
     estimated scf accuracy    <          6.7E-09 Ry

     iteration #  9     ecut=    30.00 Ry     beta=0.70
     Davidson diagonalization with overlap
     ethr =  1.23E-11,  avg # of iterations =  2.0

     total cpu time spent up to now is       25.4 secs

     total energy              =    -329.49145354 Ry
     Harris-Foulkes estimate   =    -329.49145355 Ry
     estimated scf accuracy    <          1.1E-09 Ry

     iteration # 10     ecut=    30.00 Ry     beta=0.70
     Davidson diagonalization with overlap
     ethr =  2.07E-12,  avg # of iterations =  2.0

     total cpu time spent up to now is       25.6 secs

     End of self-consistent calculation

          k = 0.0000 0.0000 0.0000 ( 22119 PWs)   bands (ev):

    -8.5041  -7.7974  -7.6908  -7.2786  -6.9538  -6.8045  -6.6452  -6.5043
    -6.3241  -6.0498  -5.9854  -5.7639  -5.7273  -5.6891  -5.4378  -5.3938
    -5.3252  -5.2288  -5.2108  -5.1884  -5.1651  -5.1208  -5.0040  -4.9206
    -4.8592  -4.6703  -4.4662  -3.7625  -2.4526  -2.1815  -0.5359  -0.1753
     0.4464   0.7470

     the Fermi energy is    -3.7303 ev

!    total energy              =    -329.49145355 Ry
     Harris-Foulkes estimate   =    -329.49145354 Ry
     estimated scf accuracy    <          1.9E-10 Ry

     The total energy is the sum of the following terms:

     one-electron contribution =    -609.24094118 Ry
     hartree contribution      =     326.04237022 Ry
     xc contribution           =     -51.40715794 Ry
     ewald contribution        =       5.11850375 Ry
     smearing contrib. (-TS)   =      -0.00422841 Ry

     convergence has been achieved in  10 iterations

     Forces acting on atoms (Ry/au):

     atom    1 type  1   force =    -0.00067203   -0.00158167   -0.00362544
     atom    2 type  1   force =    -0.00351947    0.00336441    0.00043243
     atom    3 type  1   force =    -0.00006185   -0.00229182    0.00128171
     atom    4 type  1   force =     0.00256524    0.00048047    0.00296942
     atom    5 type  1   force =     0.00168811    0.00002860   -0.00105811

     Total force =     0.008154     Total SCF correction =     0.000054

     number of scf cycles    =  10
     number of bfgs steps    =   9

     energy   old            =    -329.4909588671 Ry
     energy   new            =    -329.4914535496 Ry

     CASE: energy  _new < energy  _old

     new trust radius        =       0.0354155446 bohr
     new conv_thr            =       0.0000000004 Ry


ATOMIC_POSITIONS (bohr)
Au      -1.561921408   2.235369684  -1.117173914
Au      -0.698881452   3.932499175   3.698806696
Au       3.130584766   1.764569528   0.716857883
Au       4.044632336   4.080047965   5.698630756
Au       7.535643759   1.348219648   3.093196580



     Writing output data file pwscf.save
     Check: negative starting charge=   -0.006337
     NEW-OLD atomic charge density approx. for the potential
     Check: negative starting charge=   -0.006351

     negative rho (up, down):  3.431E-04 0.000E+00

     total cpu time spent up to now is       25.8 secs

     per-process dynamical memory:    50.7 Mb

     Self-consistent Calculation

     iteration #  1     ecut=    30.00 Ry     beta=0.70
     Davidson diagonalization with overlap
     ethr =  1.00E-06,  avg # of iterations =  4.0

     negative rho (up, down):  1.057E-05 0.000E+00

     total cpu time spent up to now is       26.2 secs

     total energy              =    -329.49157810 Ry
     Harris-Foulkes estimate   =    -329.49149677 Ry
     estimated scf accuracy    <       0.00021960 Ry

     iteration #  2     ecut=    30.00 Ry     beta=0.70
     Davidson diagonalization with overlap
     ethr =  3.99E-07,  avg # of iterations =  3.0

     negative rho (up, down):  1.244E-06 0.000E+00

     total cpu time spent up to now is       26.4 secs

     total energy              =    -329.49160477 Ry
     Harris-Foulkes estimate   =    -329.49169519 Ry
     estimated scf accuracy    <       0.00019256 Ry

     iteration #  3     ecut=    30.00 Ry     beta=0.70
     Davidson diagonalization with overlap
     ethr =  3.50E-07,  avg # of iterations =  2.0

     negative rho (up, down):  3.165E-08 0.000E+00

     total cpu time spent up to now is       26.6 secs

     total energy              =    -329.49164255 Ry
     Harris-Foulkes estimate   =    -329.49166968 Ry
     estimated scf accuracy    <       0.00007293 Ry

     iteration #  4     ecut=    30.00 Ry     beta=0.70
     Davidson diagonalization with overlap
     ethr =  1.33E-07,  avg # of iterations =  2.0

     total cpu time spent up to now is       26.8 secs

     total energy              =    -329.49165897 Ry
     Harris-Foulkes estimate   =    -329.49166134 Ry
     estimated scf accuracy    <       0.00001001 Ry

     iteration #  5     ecut=    30.00 Ry     beta=0.70
     Davidson diagonalization with overlap
     ethr =  1.82E-08,  avg # of iterations =  2.0

     total cpu time spent up to now is       27.0 secs

     total energy              =    -329.49166050 Ry
     Harris-Foulkes estimate   =    -329.49166106 Ry
     estimated scf accuracy    <       0.00000099 Ry

     iteration #  6     ecut=    30.00 Ry     beta=0.70
     Davidson diagonalization with overlap
     ethr =  1.79E-09,  avg # of iterations =  2.0

     total cpu time spent up to now is       27.3 secs

     total energy              =    -329.49166073 Ry
     Harris-Foulkes estimate   =    -329.49166075 Ry
     estimated scf accuracy    <       0.00000013 Ry

     iteration #  7     ecut=    30.00 Ry     beta=0.70
     Davidson diagonalization with overlap
     ethr =  2.34E-10,  avg # of iterations =  2.0

     total cpu time spent up to now is       27.5 secs

     total energy              =    -329.49166072 Ry
     Harris-Foulkes estimate   =    -329.49166077 Ry
     estimated scf accuracy    <       0.00000004 Ry

     iteration #  8     ecut=    30.00 Ry     beta=0.70
     Davidson diagonalization with overlap
     ethr =  6.80E-11,  avg # of iterations =  2.0

     total cpu time spent up to now is       27.7 secs

     total energy              =    -329.49166075 Ry
     Harris-Foulkes estimate   =    -329.49166073 Ry
     estimated scf accuracy    <          5.2E-09 Ry

     iteration #  9     ecut=    30.00 Ry     beta=0.70
     Davidson diagonalization with overlap
     ethr =  9.54E-12,  avg # of iterations =  2.0

     total cpu time spent up to now is       27.9 secs

     total energy              =    -329.49166075 Ry
     Harris-Foulkes estimate   =    -329.49166075 Ry
     estimated scf accuracy    <          8.6E-10 Ry

     iteration # 10     ecut=    30.00 Ry     beta=0.70
     Davidson diagonalization with overlap
     ethr =  1.56E-12,  avg # of iterations =  3.0

     total cpu time spent up to now is       28.1 secs

     End of self-consistent calculation

          k = 0.0000 0.0000 0.0000 ( 22119 PWs)   bands (ev):

    -8.5135  -7.7879  -7.6721  -7.2439  -6.9335  -6.8117  -6.6191  -6.4946
    -6.3009  -6.0639  -5.9735  -5.7621  -5.7290  -5.6887  -5.4332  -5.3857
    -5.3224  -5.2336  -5.2103  -5.1891  -5.1611  -5.1227  -4.9923  -4.9297
    -4.8638  -4.6739  -4.4780  -3.7692  -2.4341  -2.2076  -0.5334  -0.1778
     0.4482   0.7545

     the Fermi energy is    -3.7365 ev

!    total energy              =    -329.49166080 Ry
     Harris-Foulkes estimate   =    -329.49166075 Ry
     estimated scf accuracy    <          1.6E-10 Ry

     The total energy is the sum of the following terms:

     one-electron contribution =    -608.27017378 Ry
     hartree contribution      =     325.56284002 Ry
     xc contribution           =     -51.40340741 Ry
     ewald contribution        =       4.62341079 Ry
     smearing contrib. (-TS)   =      -0.00433043 Ry

     convergence has been achieved in  10 iterations

     Forces acting on atoms (Ry/au):

     atom    1 type  1   force =    -0.00035513   -0.00002799   -0.00007708
     atom    2 type  1   force =    -0.00191020    0.00190293   -0.00239340
     atom    3 type  1   force =    -0.00302512   -0.00172424    0.00025724
     atom    4 type  1   force =     0.00114379   -0.00003471    0.00116864
     atom    5 type  1   force =     0.00414665   -0.00011600    0.00104460

     Total force =     0.006804     Total SCF correction =     0.000044

     number of scf cycles    =  11
     number of bfgs steps    =  10

     energy   old            =    -329.4914535496 Ry
     energy   new            =    -329.4916608030 Ry

     CASE: energy  _new < energy  _old

     new trust radius        =       0.0077168630 bohr
     new conv_thr            =       0.0000000002 Ry


ATOMIC_POSITIONS (bohr)
Au      -1.560149538   2.232259930  -1.122874164
Au      -0.703727086   3.938490953   3.698396330
Au       3.127100447   1.761443739   0.721667117
Au       4.048276791   4.080876220   5.703024118
Au       7.538557386   1.347635157   3.090104599



     Writing output data file pwscf.save
     Check: negative starting charge=   -0.006351
     NEW-OLD atomic charge density approx. for the potential
     Check: negative starting charge=   -0.006352

     negative rho (up, down):  3.807E-06 0.000E+00

     total cpu time spent up to now is       28.4 secs

     per-process dynamical memory:    50.7 Mb

     Self-consistent Calculation

     iteration #  1     ecut=    30.00 Ry     beta=0.70
     Davidson diagonalization with overlap
     ethr =  1.00E-06,  avg # of iterations =  3.0

     Threshold (ethr) on eigenvalues was too large:
     Diagonalizing with lowered threshold

     Davidson diagonalization with overlap
     ethr =  2.24E-08,  avg # of iterations =  2.0

     total cpu time spent up to now is       28.8 secs

     total energy              =    -329.49170547 Ry
     Harris-Foulkes estimate   =    -329.49170778 Ry
     estimated scf accuracy    <       0.00001327 Ry

     iteration #  2     ecut=    30.00 Ry     beta=0.70
     Davidson diagonalization with overlap
     ethr =  2.41E-08,  avg # of iterations =  3.0

     total cpu time spent up to now is       29.0 secs

     total energy              =    -329.49170823 Ry
     Harris-Foulkes estimate   =    -329.49171192 Ry
     estimated scf accuracy    <       0.00000798 Ry

     iteration #  3     ecut=    30.00 Ry     beta=0.70
     Davidson diagonalization with overlap
     ethr =  1.45E-08,  avg # of iterations =  2.0

     total cpu time spent up to now is       29.3 secs

     total energy              =    -329.49171025 Ry
     Harris-Foulkes estimate   =    -329.49171019 Ry
     estimated scf accuracy    <       0.00000063 Ry

     iteration #  4     ecut=    30.00 Ry     beta=0.70
     Davidson diagonalization with overlap
     ethr =  1.15E-09,  avg # of iterations =  3.0

     total cpu time spent up to now is       29.5 secs

     total energy              =    -329.49171021 Ry
     Harris-Foulkes estimate   =    -329.49171069 Ry
     estimated scf accuracy    <       0.00000100 Ry

     iteration #  5     ecut=    30.00 Ry     beta=0.70
     Davidson diagonalization with overlap
     ethr =  1.15E-09,  avg # of iterations =  2.0

     total cpu time spent up to now is       29.7 secs

     total energy              =    -329.49171040 Ry
     Harris-Foulkes estimate   =    -329.49171040 Ry
     estimated scf accuracy    <       0.00000005 Ry

     iteration #  6     ecut=    30.00 Ry     beta=0.70
     Davidson diagonalization with overlap
     ethr =  9.78E-11,  avg # of iterations =  3.0

     total cpu time spent up to now is       29.9 secs

     total energy              =    -329.49171045 Ry
     Harris-Foulkes estimate   =    -329.49171042 Ry
     estimated scf accuracy    <          4.3E-09 Ry

     iteration #  7     ecut=    30.00 Ry     beta=0.70
     Davidson diagonalization with overlap
     ethr =  7.86E-12,  avg # of iterations =  3.0

     total cpu time spent up to now is       30.2 secs

     total energy              =    -329.49171049 Ry
     Harris-Foulkes estimate   =    -329.49171045 Ry
     estimated scf accuracy    <          1.8E-09 Ry

     iteration #  8     ecut=    30.00 Ry     beta=0.70
     Davidson diagonalization with overlap
     ethr =  3.22E-12,  avg # of iterations =  2.0

     total cpu time spent up to now is       30.4 secs

     total energy              =    -329.49171047 Ry
     Harris-Foulkes estimate   =    -329.49171049 Ry
     estimated scf accuracy    <          5.2E-10 Ry

     iteration #  9     ecut=    30.00 Ry     beta=0.70
     Davidson diagonalization with overlap
     ethr =  9.40E-13,  avg # of iterations =  2.0

     total cpu time spent up to now is       30.6 secs

     End of self-consistent calculation

          k = 0.0000 0.0000 0.0000 ( 22119 PWs)   bands (ev):

    -8.5101  -7.7817  -7.6629  -7.2340  -6.9249  -6.8093  -6.6126  -6.4898
    -6.2942  -6.0653  -5.9700  -5.7611  -5.7281  -5.6876  -5.4332  -5.3836
    -5.3214  -5.2350  -5.2099  -5.1885  -5.1611  -5.1233  -4.9917  -4.9327
    -4.8659  -4.6754  -4.4820  -3.7702  -2.4334  -2.2149  -0.5321  -0.1777
     0.4473   0.7552

     the Fermi energy is    -3.7371 ev

!    total energy              =    -329.49171047 Ry
     Harris-Foulkes estimate   =    -329.49171047 Ry
     estimated scf accuracy    <          2.2E-11 Ry

     The total energy is the sum of the following terms:

     one-electron contribution =    -607.77780641 Ry
     hartree contribution      =     325.31927445 Ry
     xc contribution           =     -51.40142032 Ry
     ewald contribution        =       4.37265016 Ry
     smearing contrib. (-TS)   =      -0.00440835 Ry

     convergence has been achieved in   9 iterations

     Forces acting on atoms (Ry/au):

     atom    1 type  1   force =    -0.00030333    0.00025648    0.00060434
     atom    2 type  1   force =    -0.00117659    0.00158853   -0.00271704
     atom    3 type  1   force =    -0.00283187   -0.00164692    0.00062418
     atom    4 type  1   force =     0.00068659   -0.00033689    0.00044765
     atom    5 type  1   force =     0.00362519    0.00013880    0.00104087

     Total force =     0.006162     Total SCF correction =     0.000018

     number of scf cycles    =  12
     number of bfgs steps    =  11

     energy   old            =    -329.4916608030 Ry
     energy   new            =    -329.4917104692 Ry

     CASE: energy  _new < energy  _old

     new trust radius        =       0.0084885493 bohr
     new conv_thr            =            1.0E-10 Ry


ATOMIC_POSITIONS (bohr)
Au      -1.559494636   2.229978958  -1.127190017
Au      -0.708645845   3.944938540   3.695888362
Au       3.122366867   1.757213338   0.726180688
Au       4.051892092   4.081099563   5.706809820
Au       7.543939521   1.347475601   3.088629147



     Writing output data file pwscf.save
     Check: negative starting charge=   -0.006352
     NEW-OLD atomic charge density approx. for the potential
     Check: negative starting charge=   -0.006352

     negative rho (up, down):  4.173E-06 0.000E+00

     total cpu time spent up to now is       30.8 secs

     per-process dynamical memory:    50.7 Mb

     Self-consistent Calculation

     iteration #  1     ecut=    30.00 Ry     beta=0.70
     Davidson diagonalization with overlap
     ethr =  1.00E-06,  avg # of iterations =  3.0

     Threshold (ethr) on eigenvalues was too large:
     Diagonalizing with lowered threshold

     Davidson diagonalization with overlap
     ethr =  2.74E-08,  avg # of iterations =  2.0

     total cpu time spent up to now is       31.3 secs

     total energy              =    -329.49176060 Ry
     Harris-Foulkes estimate   =    -329.49176414 Ry
     estimated scf accuracy    <       0.00001606 Ry

     iteration #  2     ecut=    30.00 Ry     beta=0.70
     Davidson diagonalization with overlap
     ethr =  2.92E-08,  avg # of iterations =  3.0

     total cpu time spent up to now is       31.5 secs

     total energy              =    -329.49176292 Ry
     Harris-Foulkes estimate   =    -329.49176973 Ry
     estimated scf accuracy    <       0.00001477 Ry

     iteration #  3     ecut=    30.00 Ry     beta=0.70
     Davidson diagonalization with overlap
     ethr =  2.68E-08,  avg # of iterations =  2.0

     total cpu time spent up to now is       31.7 secs

     total energy              =    -329.49176604 Ry
     Harris-Foulkes estimate   =    -329.49176729 Ry
     estimated scf accuracy    <       0.00000382 Ry

     iteration #  4     ecut=    30.00 Ry     beta=0.70
     Davidson diagonalization with overlap
     ethr =  6.95E-09,  avg # of iterations =  2.0

     total cpu time spent up to now is       31.9 secs

     total energy              =    -329.49176724 Ry
     Harris-Foulkes estimate   =    -329.49176721 Ry
     estimated scf accuracy    <       0.00000090 Ry

     iteration #  5     ecut=    30.00 Ry     beta=0.70
     Davidson diagonalization with overlap
     ethr =  1.65E-09,  avg # of iterations =  2.0

     total cpu time spent up to now is       32.1 secs

     total energy              =    -329.49176740 Ry
     Harris-Foulkes estimate   =    -329.49176741 Ry
     estimated scf accuracy    <       0.00000006 Ry

     iteration #  6     ecut=    30.00 Ry     beta=0.70
     Davidson diagonalization with overlap
     ethr =  1.05E-10,  avg # of iterations =  2.0

     total cpu time spent up to now is       32.4 secs

     total energy              =    -329.49176741 Ry
     Harris-Foulkes estimate   =    -329.49176742 Ry
     estimated scf accuracy    <          6.5E-09 Ry

     iteration #  7     ecut=    30.00 Ry     beta=0.70
     Davidson diagonalization with overlap
     ethr =  1.18E-11,  avg # of iterations =  3.0

     total cpu time spent up to now is       32.6 secs

[...]
     ethr =  1.00E-06,  avg # of iterations =  4.0

     negative rho (up, down):  4.831E-06 0.000E+00

     total cpu time spent up to now is       81.2 secs

     total energy              =    -329.49285143 Ry
     Harris-Foulkes estimate   =    -329.49290143 Ry
     estimated scf accuracy    <       0.00024093 Ry

     iteration #  2     ecut=    30.00 Ry     beta=0.70
     Davidson diagonalization with overlap
     ethr =  4.38E-07,  avg # of iterations =  2.0

     negative rho (up, down):  5.020E-07 0.000E+00

     total cpu time spent up to now is       81.4 secs

     total energy              =    -329.49288691 Ry
     Harris-Foulkes estimate   =    -329.49300023 Ry
     estimated scf accuracy    <       0.00023978 Ry

     iteration #  3     ecut=    30.00 Ry     beta=0.70
     Davidson diagonalization with overlap
     ethr =  4.36E-07,  avg # of iterations =  2.0

     total cpu time spent up to now is       81.6 secs

     total energy              =    -329.49293437 Ry
     Harris-Foulkes estimate   =    -329.49294423 Ry
     estimated scf accuracy    <       0.00001960 Ry

     iteration #  4     ecut=    30.00 Ry     beta=0.70
     Davidson diagonalization with overlap
     ethr =  3.56E-08,  avg # of iterations =  3.0

     total cpu time spent up to now is       81.8 secs

     total energy              =    -329.49293808 Ry
     Harris-Foulkes estimate   =    -329.49294507 Ry
     estimated scf accuracy    <       0.00001953 Ry

     iteration #  5     ecut=    30.00 Ry     beta=0.70
     Davidson diagonalization with overlap
     ethr =  3.55E-08,  avg # of iterations =  2.0

     total cpu time spent up to now is       82.0 secs

     total energy              =    -329.49294129 Ry
     Harris-Foulkes estimate   =    -329.49294187 Ry
     estimated scf accuracy    <       0.00000109 Ry

     iteration #  6     ecut=    30.00 Ry     beta=0.70
     Davidson diagonalization with overlap
     ethr =  1.98E-09,  avg # of iterations =  3.0

     total cpu time spent up to now is       82.2 secs

     total energy              =    -329.49294144 Ry
     Harris-Foulkes estimate   =    -329.49294158 Ry
     estimated scf accuracy    <       0.00000008 Ry

     iteration #  7     ecut=    30.00 Ry     beta=0.70
     Davidson diagonalization with overlap
     ethr =  1.48E-10,  avg # of iterations =  3.0

     total cpu time spent up to now is       82.5 secs

     total energy              =    -329.49294148 Ry
     Harris-Foulkes estimate   =    -329.49294148 Ry
     estimated scf accuracy    <       0.00000006 Ry

     iteration #  8     ecut=    30.00 Ry     beta=0.70
     Davidson diagonalization with overlap
     ethr =  1.09E-10,  avg # of iterations =  2.0

     total cpu time spent up to now is       82.7 secs

     total energy              =    -329.49294145 Ry
     Harris-Foulkes estimate   =    -329.49294149 Ry
     estimated scf accuracy    <          6.3E-09 Ry

     iteration #  9     ecut=    30.00 Ry     beta=0.70
     Davidson diagonalization with overlap
     ethr =  1.15E-11,  avg # of iterations =  3.0

     total cpu time spent up to now is       82.9 secs

     total energy              =    -329.49294147 Ry
     Harris-Foulkes estimate   =    -329.49294145 Ry
     estimated scf accuracy    <          1.2E-09 Ry

     iteration # 10     ecut=    30.00 Ry     beta=0.70
     Davidson diagonalization with overlap
     ethr =  2.20E-12,  avg # of iterations =  2.0

     total cpu time spent up to now is       83.1 secs

     End of self-consistent calculation

          k = 0.0000 0.0000 0.0000 ( 22119 PWs)   bands (ev):

    -8.5231  -7.7937  -7.6611  -7.2419  -6.8598  -6.8223  -6.6256  -6.4847
    -6.3109  -6.0800  -5.9614  -5.7729  -5.7310  -5.6896  -5.4586  -5.3571
    -5.3141  -5.2461  -5.1997  -5.1793  -5.1685  -5.1211  -4.9987  -4.9185
    -4.8329  -4.7321  -4.4726  -3.7709  -2.4411  -2.1964  -0.5380  -0.1709
     0.4758   0.8119

     the Fermi energy is    -3.7381 ev

!    total energy              =    -329.49294147 Ry
     Harris-Foulkes estimate   =    -329.49294147 Ry
     estimated scf accuracy    <          8.3E-11 Ry

     The total energy is the sum of the following terms:

     one-electron contribution =    -607.87028490 Ry
     hartree contribution      =     325.36463808 Ry
     xc contribution           =     -51.40252402 Ry
     ewald contribution        =       4.41965015 Ry
     smearing contrib. (-TS)   =      -0.00442077 Ry

     convergence has been achieved in  10 iterations

     Forces acting on atoms (Ry/au):

     atom    1 type  1   force =    -0.00011610    0.00037229   -0.00103548
     atom    2 type  1   force =    -0.00024393   -0.00000433   -0.00001301
     atom    3 type  1   force =    -0.00016271   -0.00026407   -0.00044236
     atom    4 type  1   force =    -0.00159145    0.00022784    0.00146319
     atom    5 type  1   force =     0.00211419   -0.00033173    0.00002766

     Total force =     0.003299     Total SCF correction =     0.000027

     number of scf cycles    =  32
     number of bfgs steps    =  31

     energy   old            =    -329.4928976290 Ry
     energy   new            =    -329.4929414700 Ry

     CASE: energy  _new < energy  _old

     new trust radius        =       0.0203975299 bohr
     new conv_thr            =            1.0E-10 Ry


ATOMIC_POSITIONS (bohr)
Au      -1.524819515   2.225926530  -1.087693348
Au      -0.730187896   4.284707711   3.590040893
Au       3.121418913   1.660589856   0.811270349
Au       3.977090501   3.878975920   5.689305462
Au       7.606555997   1.310505983   3.087394643



     Writing output data file pwscf.save
     Check: negative starting charge=   -0.006386
     NEW-OLD atomic charge density approx. for the potential
     Check: negative starting charge=   -0.006377

     negative rho (up, down):  9.947E-05 0.000E+00

     total cpu time spent up to now is       83.3 secs

     per-process dynamical memory:    50.7 Mb

     Self-consistent Calculation

     iteration #  1     ecut=    30.00 Ry     beta=0.70
     Davidson diagonalization with overlap
     ethr =  1.00E-06,  avg # of iterations =  4.0

     negative rho (up, down):  7.751E-07 0.000E+00

     total cpu time spent up to now is       83.7 secs

     total energy              =    -329.49292017 Ry
     Harris-Foulkes estimate   =    -329.49296099 Ry
     estimated scf accuracy    <       0.00011575 Ry

     iteration #  2     ecut=    30.00 Ry     beta=0.70
     Davidson diagonalization with overlap
     ethr =  2.10E-07,  avg # of iterations =  2.0

     negative rho (up, down):  5.605E-08 0.000E+00

     total cpu time spent up to now is       83.9 secs

     total energy              =    -329.49293436 Ry
     Harris-Foulkes estimate   =    -329.49299393 Ry
     estimated scf accuracy    <       0.00012648 Ry

     iteration #  3     ecut=    30.00 Ry     beta=0.70
     Davidson diagonalization with overlap
     ethr =  2.10E-07,  avg # of iterations =  2.0

     total cpu time spent up to now is       84.1 secs

     total energy              =    -329.49295930 Ry
     Harris-Foulkes estimate   =    -329.49296564 Ry
     estimated scf accuracy    <       0.00001408 Ry

     iteration #  4     ecut=    30.00 Ry     beta=0.70
     Davidson diagonalization with overlap
     ethr =  2.56E-08,  avg # of iterations =  2.0

     total cpu time spent up to now is       84.3 secs

     total energy              =    -329.49296241 Ry
     Harris-Foulkes estimate   =    -329.49296569 Ry
     estimated scf accuracy    <       0.00000942 Ry

     iteration #  5     ecut=    30.00 Ry     beta=0.70
     Davidson diagonalization with overlap
     ethr =  1.71E-08,  avg # of iterations =  2.0

     total cpu time spent up to now is       84.5 secs

     total energy              =    -329.49296391 Ry
     Harris-Foulkes estimate   =    -329.49296420 Ry
     estimated scf accuracy    <       0.00000049 Ry

     iteration #  6     ecut=    30.00 Ry     beta=0.70
     Davidson diagonalization with overlap
     ethr =  8.94E-10,  avg # of iterations =  3.0

     total cpu time spent up to now is       84.8 secs

     total energy              =    -329.49296394 Ry
     Harris-Foulkes estimate   =    -329.49296406 Ry
     estimated scf accuracy    <       0.00000005 Ry

     iteration #  7     ecut=    30.00 Ry     beta=0.70
     Davidson diagonalization with overlap
     ethr =  9.36E-11,  avg # of iterations =  3.0

     total cpu time spent up to now is       85.0 secs

     total energy              =    -329.49296406 Ry
     Harris-Foulkes estimate   =    -329.49296397 Ry
     estimated scf accuracy    <       0.00000003 Ry

     iteration #  8     ecut=    30.00 Ry     beta=0.70
     Davidson diagonalization with overlap
     ethr =  5.78E-11,  avg # of iterations =  2.0

     total cpu time spent up to now is       85.2 secs

     total energy              =    -329.49296404 Ry
     Harris-Foulkes estimate   =    -329.49296407 Ry
     estimated scf accuracy    <          2.4E-09 Ry

     iteration #  9     ecut=    30.00 Ry     beta=0.70
     Davidson diagonalization with overlap
     ethr =  4.30E-12,  avg # of iterations =  3.0

     total cpu time spent up to now is       85.4 secs

     total energy              =    -329.49296400 Ry
     Harris-Foulkes estimate   =    -329.49296404 Ry
     estimated scf accuracy    <          6.1E-10 Ry

     iteration # 10     ecut=    30.00 Ry     beta=0.70
     Davidson diagonalization with overlap
     ethr =  1.11E-12,  avg # of iterations =  2.0

     total cpu time spent up to now is       85.6 secs

     End of self-consistent calculation

          k = 0.0000 0.0000 0.0000 ( 22119 PWs)   bands (ev):

    -8.5178  -7.7870  -7.6634  -7.2389  -6.8579  -6.8188  -6.6159  -6.4831
    -6.3118  -6.0786  -5.9548  -5.7719  -5.7285  -5.6890  -5.4582  -5.3574
    -5.3151  -5.2461  -5.2016  -5.1768  -5.1692  -5.1209  -4.9994  -4.9188
    -4.8305  -4.7356  -4.4733  -3.7739  -2.4425  -2.1965  -0.5375  -0.1717
     0.4761   0.8122

     the Fermi energy is    -3.7413 ev

!    total energy              =    -329.49296398 Ry
     Harris-Foulkes estimate   =    -329.49296400 Ry
     estimated scf accuracy    <          3.8E-11 Ry

     The total energy is the sum of the following terms:

     one-electron contribution =    -607.60867909 Ry
     hartree contribution      =     325.23563682 Ry
     xc contribution           =     -51.40145619 Ry
     ewald contribution        =       4.28589165 Ry
     smearing contrib. (-TS)   =      -0.00435718 Ry

     convergence has been achieved in  10 iterations

     Forces acting on atoms (Ry/au):

     atom    1 type  1   force =     0.00037796    0.00030956   -0.00054699
     atom    2 type  1   force =    -0.00059144   -0.00005925   -0.00062994
     atom    3 type  1   force =    -0.00025142   -0.00047974   -0.00029447
     atom    4 type  1   force =    -0.00075156    0.00013012    0.00132863
     atom    5 type  1   force =     0.00121647    0.00009931    0.00014277

     Total force =     0.002351     Total SCF correction =     0.000021

     number of scf cycles    =  33
     number of bfgs steps    =  32

     energy   old            =    -329.4929414700 Ry
     energy   new            =    -329.4929639808 Ry

     CASE: energy  _new < energy  _old

     new trust radius        =       0.0107548126 bohr
     new conv_thr            =            1.0E-10 Ry


ATOMIC_POSITIONS (bohr)
Au      -1.523272621   2.227811367  -1.090272762
Au      -0.731643176   4.294433888   3.587343165
Au       3.122133865   1.662402620   0.812806483
Au       3.971366023   3.870681224   5.693059708
Au       7.611473909   1.305376899   3.087381407



     Writing output data file pwscf.save
     Check: negative starting charge=   -0.006377
     NEW-OLD atomic charge density approx. for the potential
     Check: negative starting charge=   -0.006374

     negative rho (up, down):  9.133E-06 0.000E+00

     total cpu time spent up to now is       85.9 secs

     per-process dynamical memory:    50.7 Mb

     Self-consistent Calculation

     iteration #  1     ecut=    30.00 Ry     beta=0.70
     Davidson diagonalization with overlap
     ethr =  1.00E-06,  avg # of iterations =  4.0

     Threshold (ethr) on eigenvalues was too large:
     Diagonalizing with lowered threshold

     Davidson diagonalization with overlap
     ethr =  4.55E-08,  avg # of iterations =  1.0

     total cpu time spent up to now is       86.3 secs

     total energy              =    -329.49296837 Ry
     Harris-Foulkes estimate   =    -329.49297875 Ry
     estimated scf accuracy    <       0.00002580 Ry

     iteration #  2     ecut=    30.00 Ry     beta=0.70
     Davidson diagonalization with overlap
     ethr =  4.69E-08,  avg # of iterations =  2.0

     total cpu time spent up to now is       86.6 secs

     total energy              =    -329.49297002 Ry
     Harris-Foulkes estimate   =    -329.49298595 Ry
     estimated scf accuracy    <       0.00003501 Ry

     iteration #  3     ecut=    30.00 Ry     beta=0.70
     Davidson diagonalization with overlap
     ethr =  4.69E-08,  avg # of iterations =  2.0

     total cpu time spent up to now is       86.8 secs

     total energy              =    -329.49297656 Ry
     Harris-Foulkes estimate   =    -329.49297924 Ry
     estimated scf accuracy    <       0.00000590 Ry

     iteration #  4     ecut=    30.00 Ry     beta=0.70
     Davidson diagonalization with overlap
     ethr =  1.07E-08,  avg # of iterations =  2.0

     total cpu time spent up to now is       87.0 secs

     total energy              =    -329.49297769 Ry
     Harris-Foulkes estimate   =    -329.49297839 Ry
     estimated scf accuracy    <       0.00000147 Ry

     iteration #  5     ecut=    30.00 Ry     beta=0.70
     Davidson diagonalization with overlap
     ethr =  2.67E-09,  avg # of iterations =  2.0

     total cpu time spent up to now is       87.2 secs

     total energy              =    -329.49297788 Ry
     Harris-Foulkes estimate   =    -329.49297800 Ry
     estimated scf accuracy    <       0.00000013 Ry

     iteration #  6     ecut=    30.00 Ry     beta=0.70
     Davidson diagonalization with overlap
     ethr =  2.39E-10,  avg # of iterations =  2.0

     total cpu time spent up to now is       87.4 secs

     total energy              =    -329.49297792 Ry
     Harris-Foulkes estimate   =    -329.49297791 Ry
     estimated scf accuracy    <       0.00000001 Ry

     iteration #  7     ecut=    30.00 Ry     beta=0.70
     Davidson diagonalization with overlap
     ethr =  2.57E-11,  avg # of iterations =  3.0

     total cpu time spent up to now is       87.6 secs

     total energy              =    -329.49297804 Ry
     Harris-Foulkes estimate   =    -329.49297793 Ry
     estimated scf accuracy    <          5.5E-09 Ry

     iteration #  8     ecut=    30.00 Ry     beta=0.70
     Davidson diagonalization with overlap
     ethr =  1.01E-11,  avg # of iterations =  2.0

     total cpu time spent up to now is       87.9 secs

     total energy              =    -329.49297804 Ry
     Harris-Foulkes estimate   =    -329.49297804 Ry
     estimated scf accuracy    <          6.0E-10 Ry

     iteration #  9     ecut=    30.00 Ry     beta=0.70
     Davidson diagonalization with overlap
     ethr =  1.09E-12,  avg # of iterations =  3.0

     total cpu time spent up to now is       88.1 secs

     total energy              =    -329.49297803 Ry
     Harris-Foulkes estimate   =    -329.49297804 Ry
     estimated scf accuracy    <          1.7E-10 Ry

     iteration # 10     ecut=    30.00 Ry     beta=0.70
     Davidson diagonalization with overlap
     ethr =  3.06E-13,  avg # of iterations =  2.0

     total cpu time spent up to now is       88.3 secs

     End of self-consistent calculation

          k = 0.0000 0.0000 0.0000 ( 22119 PWs)   bands (ev):

    -8.5133  -7.7813  -7.6619  -7.2344  -6.8541  -6.8159  -6.6092  -6.4809
    -6.3100  -6.0781  -5.9503  -5.7709  -5.7271  -5.6879  -5.4581  -5.3570
    -5.3154  -5.2468  -5.2027  -5.1753  -5.1696  -5.1210  -4.9999  -4.9202
    -4.8301  -4.7374  -4.4751  -3.7756  -2.4438  -2.1986  -0.5367  -0.1719
     0.4764   0.8128

     the Fermi energy is    -3.7431 ev

!    total energy              =    -329.49297802 Ry
     Harris-Foulkes estimate   =    -329.49297803 Ry
     estimated scf accuracy    <          5.0E-12 Ry

     The total energy is the sum of the following terms:

     one-electron contribution =    -607.31094043 Ry
     hartree contribution      =     325.08851023 Ry
     xc contribution           =     -51.40020738 Ry
     ewald contribution        =       4.13401395 Ry
     smearing contrib. (-TS)   =      -0.00435438 Ry

     convergence has been achieved in  10 iterations

     Forces acting on atoms (Ry/au):

     atom    1 type  1   force =     0.00056554    0.00029636   -0.00022343
     atom    2 type  1   force =    -0.00057551   -0.00002643   -0.00086574
     atom    3 type  1   force =     0.00001573   -0.00055391   -0.00012365
     atom    4 type  1   force =    -0.00038565   -0.00006166    0.00097053
     atom    5 type  1   force =     0.00037989    0.00034564    0.00024229

     Total force =     0.001811     Total SCF correction =     0.000010

     bfgs converged in  34 scf cycles and  33 bfgs steps
     (criteria: energy <  1.0E-04, force <  1.0E-03)

     End of BFGS Geometry Optimization

     Final energy   =    -329.4929780169 Ry
Begin final coordinates

ATOMIC_POSITIONS (bohr)
Au      -1.523272621   2.227811367  -1.090272762
Au      -0.731643176   4.294433888   3.587343165
Au       3.122133865   1.662402620   0.812806483
Au       3.971366023   3.870681224   5.693059708
Au       7.611473909   1.305376899   3.087381407
End final coordinates



     Writing output data file pwscf.save
 
     init_run     :      0.15s CPU      0.18s WALL (       1 calls)
     electrons    :     76.28s CPU     81.72s WALL (      34 calls)
     update_pot   :      2.16s CPU      2.66s WALL (      33 calls)
     forces       :      1.44s CPU      1.46s WALL (      34 calls)

     Called by init_run:
     wfcinit      :      0.07s CPU      0.08s WALL (       1 calls)
     potinit      :      0.03s CPU      0.03s WALL (       1 calls)

     Called by electrons:
     c_bands      :     58.17s CPU     58.93s WALL (     348 calls)
     sum_band     :      8.22s CPU      8.41s WALL (     348 calls)
     v_of_rho     :      6.57s CPU      6.64s WALL (     371 calls)
     mix_rho      :      2.60s CPU      5.54s WALL (     348 calls)

     Called by c_bands:
     init_us_2    :      1.06s CPU      1.11s WALL (     697 calls)
     cegterg      :     51.88s CPU     52.31s WALL (     348 calls)

     Called by sum_band:

     Called by *egterg:
     h_psi        :     40.53s CPU     40.83s WALL (    1223 calls)
     g_psi        :      0.41s CPU      0.41s WALL (     874 calls)
     cdiaghg      :      2.78s CPU      2.79s WALL (    1178 calls)

     Called by h_psi:
     h_psi:pot    :     39.94s CPU     40.24s WALL (    1223 calls)
     h_psi:calbec :      2.21s CPU      2.22s WALL (    1223 calls)
     vloc_psi     :     35.29s CPU     35.57s WALL (    1223 calls)
     add_vuspsi   :      2.43s CPU      2.44s WALL (    1223 calls)

     General routines
     calbec       :      2.61s CPU      2.64s WALL (    1359 calls)
     fft          :      3.67s CPU      3.76s WALL (    4170 calls)
     fftw         :     37.06s CPU     37.64s WALL (   77918 calls)
     davcio       :      0.44s CPU      2.79s WALL (    3583 calls)
 
     Parallel routines
     fft_scatter  :      9.51s CPU      9.21s WALL (   82088 calls)
 
     PWSCF        :  1m20.96s CPU     1m28.52s WALL

 
   This run was terminated on:  21:27:14   3Aug2017            

=------------------------------------------------------------------------------=
   JOB DONE.
=------------------------------------------------------------------------------=
