
     Program PWSCF v.6.0 (svn rev. 13079) starts on  4Aug2017 at  1:17:51 

     This program is part of the open-source Quantum ESPRESSO suite
     for quantum simulation of materials; please cite
         "P. Giannozzi et al., J. Phys.:Condens. Matter 21 395502 (2009);
          URL http://www.quantum-espresso.org", 
     in publications or presentations arising from this work. More details at
     http://www.quantum-espresso.org/quote

     Parallel version (MPI), running on    10 processors
     R & G space division:  proc/nbgrp/npool/nimage =      10
     Reading input from input/multi/minchecks-Gold5-628.in

     Current dimensions of program PWSCF are:
     Max number of different atomic species (ntypx) = 10
     Max number of k-points (npk) =  40000
     Max angular momentum in pseudopotentials (lmaxx) =  3
     Message from routine iosys:
     pot_extrapolation='second-order' not available, using 'atomic'
     Message from routine iosys:
     wfc_extrapolation='second-order' not available, using 'atomic'

     Subspace diagonalization in iterative solution of the eigenvalue problem:
     a serial algorithm will be used

 
     Parallelization info
     --------------------
     sticks:   dense  smooth     PW     G-vecs:    dense   smooth      PW
     Min         380     380     94                17748    17748    2208
     Max         381     381     95                17753    17753    2213
     Sum        3809    3809    949               177509   177509   22119
 


     bravais-lattice index     =            1
     lattice parameter (alat)  =      20.0000  a.u.
     unit-cell volume          =    8000.0000 (a.u.)^3
     number of atoms/cell      =            5
     number of atomic types    =            1
     number of electrons       =        55.00
     number of Kohn-Sham states=           34
     kinetic-energy cutoff     =      30.0000  Ry
     charge density cutoff     =     120.0000  Ry
     convergence threshold     =      1.0E-08
     mixing beta               =       0.7000
     number of iterations used =            8  plain     mixing
     Exchange-correlation      = BLYP ( 1  3  1  3 0 0)
     nstep                     =           50


     celldm(1)=  20.000000  celldm(2)=   0.000000  celldm(3)=   0.000000
     celldm(4)=   0.000000  celldm(5)=   0.000000  celldm(6)=   0.000000

     crystal axes: (cart. coord. in units of alat)
               a(1) = (   1.000000   0.000000   0.000000 )  
               a(2) = (   0.000000   1.000000   0.000000 )  
               a(3) = (   0.000000   0.000000   1.000000 )  

     reciprocal axes: (cart. coord. in units 2 pi/alat)
               b(1) = (  1.000000  0.000000  0.000000 )  
               b(2) = (  0.000000  1.000000  0.000000 )  
               b(3) = (  0.000000  0.000000  1.000000 )  


     PseudoPot. # 1 for Au read from file:
     ./Au.blyp-d-hgh.UPF
     MD5 check sum: c10d8bae01f806c36a1643a1c69a8479
     Pseudo is Norm-conserving, Zval = 11.0
     Generated in analytical, separable form
     Using radial grid of 1279 points,  6 beta functions with: 
                l(1) =   0
                l(2) =   0
                l(3) =   1
                l(4) =   1
                l(5) =   2
                l(6) =   2

     atomic species   valence    mass     pseudopotential
        Au            11.00    28.08600     Au( 1.00)

     No symmetry found



   Cartesian axes

     site n.     atom                  positions (alat units)
         1           Au  tau(   1) = (  -0.1029503   0.1013129  -0.0248839  )
         2           Au  tau(   2) = (   0.0065519   0.1645676   0.2021891  )
         3           Au  tau(   3) = (   0.1512742   0.0648065   0.0004973  )
         4           Au  tau(   4) = (   0.2315491   0.2329194   0.2903173  )
         5           Au  tau(   5) = (   0.3708816   0.0608783   0.1244380  )

     number of k points=     1  Marzari-Vanderbilt smearing, width (Ry)=  0.0250
                       cart. coord. in units 2pi/alat
        k(    1) = (   0.0000000   0.0000000   0.0000000), wk =   2.0000000

     Dense  grid:   177509 G-vectors     FFT dimensions: (  72,  72,  72)

     Estimated max dynamical RAM per process >      15.04Mb

     Estimated total allocated dynamical RAM >     150.39Mb

     Initial potential from superposition of free atoms
     Check: negative starting charge=   -0.006185

     starting charge   54.99940, renormalised to   55.00000

     negative rho (up, down):  6.185E-03 0.000E+00
     Starting wfc are   45 randomized atomic wfcs

     total cpu time spent up to now is        0.3 secs

     per-process dynamical memory:    41.0 Mb

     Self-consistent Calculation

     iteration #  1     ecut=    30.00 Ry     beta=0.70
     Davidson diagonalization with overlap
     ethr =  1.00E-02,  avg # of iterations =  3.0

     Threshold (ethr) on eigenvalues was too large:
     Diagonalizing with lowered threshold

     Davidson diagonalization with overlap
     ethr =  4.08E-04,  avg # of iterations =  7.0

     negative rho (up, down):  8.265E-04 0.000E+00

     total cpu time spent up to now is        0.7 secs

     total energy              =    -329.36167664 Ry
     Harris-Foulkes estimate   =    -329.52807208 Ry
     estimated scf accuracy    <       0.28365684 Ry

     iteration #  2     ecut=    30.00 Ry     beta=0.70
     Davidson diagonalization with overlap
     ethr =  5.16E-04,  avg # of iterations =  4.0

     negative rho (up, down):  3.312E-04 0.000E+00

     total cpu time spent up to now is        1.0 secs

     total energy              =    -329.42837461 Ry
     Harris-Foulkes estimate   =    -329.53454019 Ry
     estimated scf accuracy    <       0.21101269 Ry

     iteration #  3     ecut=    30.00 Ry     beta=0.70
     Davidson diagonalization with overlap
     ethr =  3.84E-04,  avg # of iterations =  2.0

     negative rho (up, down):  1.609E-04 0.000E+00

     total cpu time spent up to now is        1.2 secs

     total energy              =    -329.46551242 Ry
     Harris-Foulkes estimate   =    -329.48045181 Ry
     estimated scf accuracy    <       0.03923003 Ry

     iteration #  4     ecut=    30.00 Ry     beta=0.70
     Davidson diagonalization with overlap
     ethr =  7.13E-05,  avg # of iterations =  3.0

     negative rho (up, down):  4.858E-05 0.000E+00

     total cpu time spent up to now is        1.4 secs

     total energy              =    -329.46950510 Ry
     Harris-Foulkes estimate   =    -329.47504913 Ry
     estimated scf accuracy    <       0.01806061 Ry

     iteration #  5     ecut=    30.00 Ry     beta=0.70
     Davidson diagonalization with overlap
     ethr =  3.28E-05,  avg # of iterations =  2.0

     negative rho (up, down):  8.113E-08 0.000E+00

     total cpu time spent up to now is        1.6 secs

     total energy              =    -329.47177007 Ry
     Harris-Foulkes estimate   =    -329.47399878 Ry
     estimated scf accuracy    <       0.00849248 Ry

     iteration #  6     ecut=    30.00 Ry     beta=0.70
     Davidson diagonalization with overlap
     ethr =  1.54E-05,  avg # of iterations =  2.0

     total cpu time spent up to now is        1.8 secs

     total energy              =    -329.47202142 Ry
     Harris-Foulkes estimate   =    -329.47265239 Ry
     estimated scf accuracy    <       0.00322562 Ry

     iteration #  7     ecut=    30.00 Ry     beta=0.70
     Davidson diagonalization with overlap
     ethr =  5.86E-06,  avg # of iterations =  7.0

     total cpu time spent up to now is        2.0 secs

     total energy              =    -329.47374643 Ry
     Harris-Foulkes estimate   =    -329.47197266 Ry
     estimated scf accuracy    <       0.00439781 Ry

     iteration #  8     ecut=    30.00 Ry     beta=0.70
     Davidson diagonalization with overlap
     ethr =  5.86E-06,  avg # of iterations =  3.0

     total cpu time spent up to now is        2.3 secs

     total energy              =    -329.47341423 Ry
     Harris-Foulkes estimate   =    -329.47309210 Ry
     estimated scf accuracy    <       0.00094746 Ry

     iteration #  9     ecut=    30.00 Ry     beta=0.70
     Davidson diagonalization with overlap
     ethr =  1.72E-06,  avg # of iterations =  7.0

     total cpu time spent up to now is        2.5 secs

     total energy              =    -329.47369876 Ry
     Harris-Foulkes estimate   =    -329.47344598 Ry
     estimated scf accuracy    <       0.00097120 Ry

     iteration # 10     ecut=    30.00 Ry     beta=0.70
     Davidson diagonalization with overlap
     ethr =  1.72E-06,  avg # of iterations =  1.0

     total cpu time spent up to now is        2.7 secs

     total energy              =    -329.47383866 Ry
     Harris-Foulkes estimate   =    -329.47370483 Ry
     estimated scf accuracy    <       0.00129477 Ry

     iteration # 11     ecut=    30.00 Ry     beta=0.70
     Davidson diagonalization with overlap
     ethr =  1.72E-06,  avg # of iterations =  1.0

     total cpu time spent up to now is        2.9 secs

     total energy              =    -329.47338851 Ry
     Harris-Foulkes estimate   =    -329.47384785 Ry
     estimated scf accuracy    <       0.00162054 Ry

     iteration # 12     ecut=    30.00 Ry     beta=0.70
     Davidson diagonalization with overlap
     ethr =  1.72E-06,  avg # of iterations =  2.0

     total cpu time spent up to now is        3.1 secs

     total energy              =    -329.47310192 Ry
     Harris-Foulkes estimate   =    -329.47340628 Ry
     estimated scf accuracy    <       0.00085509 Ry

     iteration # 13     ecut=    30.00 Ry     beta=0.70
     Davidson diagonalization with overlap
     ethr =  1.55E-06,  avg # of iterations =  2.0

     total cpu time spent up to now is        3.3 secs

     total energy              =    -329.47271458 Ry
     Harris-Foulkes estimate   =    -329.47309596 Ry
     estimated scf accuracy    <       0.00071359 Ry

     iteration # 14     ecut=    30.00 Ry     beta=0.70
     Davidson diagonalization with overlap
     ethr =  1.30E-06,  avg # of iterations =  3.0

     total cpu time spent up to now is        3.6 secs

     total energy              =    -329.47234453 Ry
     Harris-Foulkes estimate   =    -329.47240113 Ry
     estimated scf accuracy    <       0.00243066 Ry

     iteration # 15     ecut=    30.00 Ry     beta=0.70
     Davidson diagonalization with overlap
     ethr =  1.30E-06,  avg # of iterations =  1.0

     total cpu time spent up to now is        3.8 secs

     total energy              =    -329.47243584 Ry
     Harris-Foulkes estimate   =    -329.47234423 Ry
     estimated scf accuracy    <       0.00262633 Ry

     iteration # 16     ecut=    30.00 Ry     beta=0.70
     Davidson diagonalization with overlap
     ethr =  1.30E-06,  avg # of iterations =  1.0

     total cpu time spent up to now is        3.9 secs

     total energy              =    -329.47329853 Ry
     Harris-Foulkes estimate   =    -329.47243233 Ry
     estimated scf accuracy    <       0.00231664 Ry

     iteration # 17     ecut=    30.00 Ry     beta=0.70
     Davidson diagonalization with overlap
     ethr =  1.30E-06,  avg # of iterations =  3.0

     total cpu time spent up to now is        4.2 secs

     total energy              =    -329.47336145 Ry
     Harris-Foulkes estimate   =    -329.47302324 Ry
     estimated scf accuracy    <       0.00075493 Ry

     iteration # 18     ecut=    30.00 Ry     beta=0.70
     Davidson diagonalization with overlap
     ethr =  1.30E-06,  avg # of iterations =  2.0

     total cpu time spent up to now is        4.4 secs

     total energy              =    -329.47343574 Ry
     Harris-Foulkes estimate   =    -329.47329698 Ry
     estimated scf accuracy    <       0.00064887 Ry

     iteration # 19     ecut=    30.00 Ry     beta=0.70
     Davidson diagonalization with overlap
     ethr =  1.18E-06,  avg # of iterations =  1.0

     total cpu time spent up to now is        4.6 secs

     total energy              =    -329.47392588 Ry
     Harris-Foulkes estimate   =    -329.47343430 Ry
     estimated scf accuracy    <       0.00077074 Ry

     iteration # 20     ecut=    30.00 Ry     beta=0.70
     Davidson diagonalization with overlap
     ethr =  1.18E-06,  avg # of iterations =  3.0

     total cpu time spent up to now is        4.8 secs

     total energy              =    -329.47411242 Ry
     Harris-Foulkes estimate   =    -329.47397380 Ry
     estimated scf accuracy    <       0.00200950 Ry

     iteration # 21     ecut=    30.00 Ry     beta=0.70
     Davidson diagonalization with overlap
     ethr =  1.18E-06,  avg # of iterations =  1.0

     total cpu time spent up to now is        5.0 secs

     total energy              =    -329.47382735 Ry
     Harris-Foulkes estimate   =    -329.47411622 Ry
     estimated scf accuracy    <       0.00237601 Ry

     iteration # 22     ecut=    30.00 Ry     beta=0.70
     Davidson diagonalization with overlap
     ethr =  1.18E-06,  avg # of iterations =  1.0

     total cpu time spent up to now is        5.2 secs

     total energy              =    -329.47377140 Ry
     Harris-Foulkes estimate   =    -329.47383729 Ry
     estimated scf accuracy    <       0.00172698 Ry

     iteration # 23     ecut=    30.00 Ry     beta=0.70
     Davidson diagonalization with overlap
     ethr =  1.18E-06,  avg # of iterations =  1.0

     total cpu time spent up to now is        5.4 secs

     total energy              =    -329.47303965 Ry
     Harris-Foulkes estimate   =    -329.47377421 Ry
     estimated scf accuracy    <       0.00154609 Ry

     iteration # 24     ecut=    30.00 Ry     beta=0.70
     Davidson diagonalization with overlap
     ethr =  1.18E-06,  avg # of iterations =  3.0

     total cpu time spent up to now is        5.6 secs

     total energy              =    -329.47262497 Ry
     Harris-Foulkes estimate   =    -329.47308202 Ry
     estimated scf accuracy    <       0.00065974 Ry

     iteration # 25     ecut=    30.00 Ry     beta=0.70
     Davidson diagonalization with overlap
     ethr =  1.18E-06,  avg # of iterations =  6.0

     total cpu time spent up to now is        5.9 secs

     total energy              =    -329.47175255 Ry
     Harris-Foulkes estimate   =    -329.47187767 Ry
     estimated scf accuracy    <       0.00340959 Ry

     iteration # 26     ecut=    30.00 Ry     beta=0.70
     Davidson diagonalization with overlap
     ethr =  1.18E-06,  avg # of iterations =  1.0

     total cpu time spent up to now is        6.1 secs

     total energy              =    -329.47203651 Ry
     Harris-Foulkes estimate   =    -329.47175280 Ry
     estimated scf accuracy    <       0.00342625 Ry

     iteration # 27     ecut=    30.00 Ry     beta=0.70
     Davidson diagonalization with overlap
     ethr =  1.18E-06,  avg # of iterations =  1.0

     total cpu time spent up to now is        6.3 secs

     total energy              =    -329.47143726 Ry
     Harris-Foulkes estimate   =    -329.47202935 Ry
     estimated scf accuracy    <       0.00316498 Ry

     iteration # 28     ecut=    30.00 Ry     beta=0.70
     Davidson diagonalization with overlap
     ethr =  1.18E-06,  avg # of iterations =  2.0

     total cpu time spent up to now is        6.5 secs

     total energy              =    -329.47093415 Ry
     Harris-Foulkes estimate   =    -329.47141583 Ry
     estimated scf accuracy    <       0.00271033 Ry

     iteration # 29     ecut=    30.00 Ry     beta=0.70
     Davidson diagonalization with overlap
     ethr =  1.18E-06,  avg # of iterations =  3.0

     total cpu time spent up to now is        6.7 secs

     total energy              =    -329.47124134 Ry
     Harris-Foulkes estimate   =    -329.47116717 Ry
     estimated scf accuracy    <       0.00155492 Ry

     iteration # 30     ecut=    30.00 Ry     beta=0.70
     Davidson diagonalization with overlap
     ethr =  1.18E-06,  avg # of iterations =  4.0

     total cpu time spent up to now is        7.0 secs

     total energy              =    -329.47476910 Ry
     Harris-Foulkes estimate   =    -329.47270195 Ry
     estimated scf accuracy    <       0.00142453 Ry

     iteration # 31     ecut=    30.00 Ry     beta=0.70
     Davidson diagonalization with overlap
     ethr =  1.18E-06,  avg # of iterations =  6.0

     total cpu time spent up to now is        7.3 secs

     total energy              =    -329.47450525 Ry
     Harris-Foulkes estimate   =    -329.47389187 Ry
     estimated scf accuracy    <       0.00182338 Ry

     iteration # 32     ecut=    30.00 Ry     beta=0.70
     Davidson diagonalization with overlap
     ethr =  1.18E-06,  avg # of iterations =  2.0

     total cpu time spent up to now is        7.5 secs

     total energy              =    -329.47608776 Ry
     Harris-Foulkes estimate   =    -329.47456615 Ry
     estimated scf accuracy    <       0.00373715 Ry

     iteration # 33     ecut=    30.00 Ry     beta=0.70
     Davidson diagonalization with overlap
     ethr =  1.18E-06,  avg # of iterations =  4.0

     total cpu time spent up to now is        7.8 secs

     total energy              =    -329.47815270 Ry
     Harris-Foulkes estimate   =    -329.47631996 Ry
     estimated scf accuracy    <       0.00940904 Ry

     iteration # 34     ecut=    30.00 Ry     beta=0.70
     Davidson diagonalization with overlap
     ethr =  1.18E-06,  avg # of iterations =  2.0

     total cpu time spent up to now is        8.0 secs

     total energy              =    -329.47847921 Ry
     Harris-Foulkes estimate   =    -329.47831218 Ry
     estimated scf accuracy    <       0.01605478 Ry

     iteration # 35     ecut=    30.00 Ry     beta=0.70
     Davidson diagonalization with overlap
     ethr =  1.18E-06,  avg # of iterations =  1.0

     total cpu time spent up to now is        8.2 secs

     total energy              =    -329.47703839 Ry
     Harris-Foulkes estimate   =    -329.47848117 Ry
     estimated scf accuracy    <       0.01656406 Ry

     iteration # 36     ecut=    30.00 Ry     beta=0.70
     Davidson diagonalization with overlap
     ethr =  1.18E-06,  avg # of iterations =  2.0

     total cpu time spent up to now is        8.4 secs

     total energy              =    -329.47692190 Ry
     Harris-Foulkes estimate   =    -329.47710278 Ry
     estimated scf accuracy    <       0.01212591 Ry

     iteration # 37     ecut=    30.00 Ry     beta=0.70
     Davidson diagonalization with overlap
     ethr =  1.18E-06,  avg # of iterations =  1.0

     total cpu time spent up to now is        8.6 secs

     total energy              =    -329.46984871 Ry
     Harris-Foulkes estimate   =    -329.47692594 Ry
     estimated scf accuracy    <       0.01154332 Ry

     iteration # 38     ecut=    30.00 Ry     beta=0.70
     Davidson diagonalization with overlap
     ethr =  1.18E-06,  avg # of iterations =  7.0

     total cpu time spent up to now is        8.9 secs

     total energy              =    -329.47095432 Ry
     Harris-Foulkes estimate   =    -329.47203503 Ry
     estimated scf accuracy    <       0.00320684 Ry

     iteration # 39     ecut=    30.00 Ry     beta=0.70
     Davidson diagonalization with overlap
     ethr =  1.18E-06,  avg # of iterations =  6.0

     total cpu time spent up to now is        9.2 secs

     total energy              =    -329.47116129 Ry
     Harris-Foulkes estimate   =    -329.47121525 Ry
     estimated scf accuracy    <       0.00168429 Ry

     iteration # 40     ecut=    30.00 Ry     beta=0.70
     Davidson diagonalization with overlap
     ethr =  1.18E-06,  avg # of iterations =  3.0

     total cpu time spent up to now is        9.4 secs

     total energy              =    -329.47143272 Ry
     Harris-Foulkes estimate   =    -329.47185799 Ry
     estimated scf accuracy    <       0.00334629 Ry

     iteration # 41     ecut=    30.00 Ry     beta=0.70
     Davidson diagonalization with overlap
     ethr =  1.18E-06,  avg # of iterations =  2.0

     total cpu time spent up to now is        9.6 secs

     total energy              =    -329.47014980 Ry
     Harris-Foulkes estimate   =    -329.47144597 Ry
     estimated scf accuracy    <       0.00271945 Ry

     iteration # 42     ecut=    30.00 Ry     beta=0.70
     Davidson diagonalization with overlap
     ethr =  1.18E-06,  avg # of iterations =  8.0

     total cpu time spent up to now is        9.9 secs

     total energy              =    -329.52589082 Ry
     Harris-Foulkes estimate   =    -329.47934107 Ry
     estimated scf accuracy    <       0.21386445 Ry

     iteration # 43     ecut=    30.00 Ry     beta=0.70
     Davidson diagonalization with overlap
     ethr =  1.18E-06,  avg # of iterations =  8.0

     total cpu time spent up to now is       10.3 secs

     total energy              =    -329.58558122 Ry
     Harris-Foulkes estimate   =    -329.57293872 Ry
     estimated scf accuracy    <       1.36229077 Ry

     iteration # 44     ecut=    30.00 Ry     beta=0.70
     Davidson diagonalization with overlap
     ethr =  1.18E-06,  avg # of iterations =  3.0

     total cpu time spent up to now is       10.5 secs

     total energy              =    -329.65126461 Ry
     Harris-Foulkes estimate   =    -329.58556129 Ry
     estimated scf accuracy    <       1.37829107 Ry

     iteration # 45     ecut=    30.00 Ry     beta=0.70
     Davidson diagonalization with overlap
     ethr =  1.18E-06,  avg # of iterations =  7.0

     total cpu time spent up to now is       10.9 secs

     total energy              =    -329.64341039 Ry
     Harris-Foulkes estimate   =    -329.65357041 Ry
     estimated scf accuracy    <       1.72776066 Ry

     iteration # 46     ecut=    30.00 Ry     beta=0.70
     Davidson diagonalization with overlap
     ethr =  1.18E-06,  avg # of iterations =  2.0

     total cpu time spent up to now is       11.1 secs

     total energy              =    -329.37679417 Ry
     Harris-Foulkes estimate   =    -329.64348762 Ry
     estimated scf accuracy    <       1.66429381 Ry

     iteration # 47     ecut=    30.00 Ry     beta=0.70
     Davidson diagonalization with overlap
     ethr =  1.18E-06,  avg # of iterations = 20.0

     total cpu time spent up to now is       11.5 secs

     total energy              =    -329.47227808 Ry
     Harris-Foulkes estimate   =    -329.47239746 Ry
     estimated scf accuracy    <       0.00261757 Ry

     iteration # 48     ecut=    30.00 Ry     beta=0.70
     Davidson diagonalization with overlap
     ethr =  1.18E-06,  avg # of iterations =  1.0

     total cpu time spent up to now is       11.7 secs

     total energy              =    -329.47248470 Ry
     Harris-Foulkes estimate   =    -329.47230973 Ry
     estimated scf accuracy    <       0.00269371 Ry

     iteration # 49     ecut=    30.00 Ry     beta=0.70
     Davidson diagonalization with overlap
     ethr =  1.18E-06,  avg # of iterations =  1.0

     total cpu time spent up to now is       11.9 secs

     total energy              =    -329.47208779 Ry
     Harris-Foulkes estimate   =    -329.47248567 Ry
     estimated scf accuracy    <       0.00211209 Ry

     iteration # 50     ecut=    30.00 Ry     beta=0.70
     Davidson diagonalization with overlap
     ethr =  1.18E-06,  avg # of iterations =  2.0

     total cpu time spent up to now is       12.1 secs

     total energy              =    -329.47151358 Ry
     Harris-Foulkes estimate   =    -329.47204088 Ry
     estimated scf accuracy    <       0.00316621 Ry

     iteration # 51     ecut=    30.00 Ry     beta=0.70
     Davidson diagonalization with overlap
     ethr =  1.18E-06,  avg # of iterations =  2.0

     total cpu time spent up to now is       12.3 secs

     total energy              =    -329.47121262 Ry
     Harris-Foulkes estimate   =    -329.47153511 Ry
     estimated scf accuracy    <       0.00265559 Ry

     iteration # 52     ecut=    30.00 Ry     beta=0.70
     Davidson diagonalization with overlap
     ethr =  1.18E-06,  avg # of iterations =  2.0

     total cpu time spent up to now is       12.5 secs

     total energy              =    -329.47145420 Ry
     Harris-Foulkes estimate   =    -329.47129460 Ry
     estimated scf accuracy    <       0.00124127 Ry

     iteration # 53     ecut=    30.00 Ry     beta=0.70
     Davidson diagonalization with overlap
     ethr =  1.18E-06,  avg # of iterations =  2.0

     total cpu time spent up to now is       12.7 secs

     total energy              =    -329.47162772 Ry
     Harris-Foulkes estimate   =    -329.47158154 Ry
     estimated scf accuracy    <       0.00272101 Ry

     iteration # 54     ecut=    30.00 Ry     beta=0.70
     Davidson diagonalization with overlap
     ethr =  1.18E-06,  avg # of iterations =  1.0

     total cpu time spent up to now is       12.9 secs

     total energy              =    -329.47172565 Ry
     Harris-Foulkes estimate   =    -329.47163246 Ry
     estimated scf accuracy    <       0.00290766 Ry

     iteration # 55     ecut=    30.00 Ry     beta=0.70
     Davidson diagonalization with overlap
     ethr =  1.18E-06,  avg # of iterations =  1.0

     total cpu time spent up to now is       13.1 secs

     total energy              =    -329.47261750 Ry
     Harris-Foulkes estimate   =    -329.47172858 Ry
     estimated scf accuracy    <       0.00312957 Ry

     iteration # 56     ecut=    30.00 Ry     beta=0.70
     Davidson diagonalization with overlap
     ethr =  1.18E-06,  avg # of iterations =  3.0

     total cpu time spent up to now is       13.4 secs

     total energy              =    -329.47294545 Ry
     Harris-Foulkes estimate   =    -329.47272712 Ry
     estimated scf accuracy    <       0.00302261 Ry

     iteration # 57     ecut=    30.00 Ry     beta=0.70
     Davidson diagonalization with overlap
     ethr =  1.18E-06,  avg # of iterations =  2.0

     total cpu time spent up to now is       13.6 secs

     total energy              =    -329.47306535 Ry
     Harris-Foulkes estimate   =    -329.47296842 Ry
     estimated scf accuracy    <       0.00085729 Ry

     iteration # 58     ecut=    30.00 Ry     beta=0.70
     Davidson diagonalization with overlap
     ethr =  1.18E-06,  avg # of iterations =  1.0

     total cpu time spent up to now is       13.8 secs

     total energy              =    -329.47323622 Ry
     Harris-Foulkes estimate   =    -329.47307675 Ry
     estimated scf accuracy    <       0.00066086 Ry

     iteration # 59     ecut=    30.00 Ry     beta=0.70
     Davidson diagonalization with overlap
     ethr =  1.18E-06,  avg # of iterations =  2.0

     total cpu time spent up to now is       14.0 secs

     total energy              =    -329.47342599 Ry
     Harris-Foulkes estimate   =    -329.47323084 Ry
     estimated scf accuracy    <       0.00054999 Ry

     iteration # 60     ecut=    30.00 Ry     beta=0.70
     Davidson diagonalization with overlap
     ethr =  1.00E-06,  avg # of iterations =  1.0

     total cpu time spent up to now is       14.2 secs

     total energy              =    -329.47363636 Ry
     Harris-Foulkes estimate   =    -329.47341746 Ry
     estimated scf accuracy    <       0.00067333 Ry

     iteration # 61     ecut=    30.00 Ry     beta=0.70
     Davidson diagonalization with overlap
     ethr =  1.00E-06,  avg # of iterations =  7.0

     total cpu time spent up to now is       14.4 secs

     total energy              =    -329.47293459 Ry
     Harris-Foulkes estimate   =    -329.47364995 Ry
     estimated scf accuracy    <       0.00108134 Ry

     iteration # 62     ecut=    30.00 Ry     beta=0.70
     Davidson diagonalization with overlap
     ethr =  1.00E-06,  avg # of iterations =  4.0

     total cpu time spent up to now is       14.7 secs

     total energy              =    -329.47157969 Ry
     Harris-Foulkes estimate   =    -329.47267120 Ry
     estimated scf accuracy    <       0.00153979 Ry

     iteration # 63     ecut=    30.00 Ry     beta=0.70
     Davidson diagonalization with overlap
     ethr =  1.00E-06,  avg # of iterations =  7.0

     total cpu time spent up to now is       15.0 secs

     total energy              =    -329.46560806 Ry
     Harris-Foulkes estimate   =    -329.47682174 Ry
     estimated scf accuracy    <       0.13485669 Ry

     iteration # 64     ecut=    30.00 Ry     beta=0.70
     Davidson diagonalization with overlap
     ethr =  1.00E-06,  avg # of iterations =  7.0

     total cpu time spent up to now is       15.3 secs

     total energy              =    -329.47099402 Ry
     Harris-Foulkes estimate   =    -329.47128455 Ry
     estimated scf accuracy    <       0.00221336 Ry

     iteration # 65     ecut=    30.00 Ry     beta=0.70
     Davidson diagonalization with overlap
     ethr =  1.00E-06,  avg # of iterations =  6.0

     total cpu time spent up to now is       15.6 secs

     total energy              =    -329.47293058 Ry
     Harris-Foulkes estimate   =    -329.47309771 Ry
     estimated scf accuracy    <       0.00064378 Ry

     iteration # 66     ecut=    30.00 Ry     beta=0.70
     Davidson diagonalization with overlap
     ethr =  1.00E-06,  avg # of iterations =  1.0

     total cpu time spent up to now is       15.8 secs

     total energy              =    -329.47320861 Ry
     Harris-Foulkes estimate   =    -329.47289621 Ry
     estimated scf accuracy    <       0.00097997 Ry

     iteration # 67     ecut=    30.00 Ry     beta=0.70
     Davidson diagonalization with overlap
     ethr =  1.00E-06,  avg # of iterations =  1.0

     total cpu time spent up to now is       16.0 secs

     total energy              =    -329.47322974 Ry
     Harris-Foulkes estimate   =    -329.47313848 Ry
     estimated scf accuracy    <       0.00054372 Ry

     iteration # 68     ecut=    30.00 Ry     beta=0.70
     Davidson diagonalization with overlap
     ethr =  9.89E-07,  avg # of iterations =  1.0

     total cpu time spent up to now is       16.2 secs

     total energy              =    -329.47330235 Ry
     Harris-Foulkes estimate   =    -329.47322949 Ry
     estimated scf accuracy    <       0.00055744 Ry

     iteration # 69     ecut=    30.00 Ry     beta=0.70
     Davidson diagonalization with overlap
     ethr =  9.89E-07,  avg # of iterations =  1.0

     total cpu time spent up to now is       16.4 secs

     total energy              =    -329.47343482 Ry
     Harris-Foulkes estimate   =    -329.47330097 Ry
     estimated scf accuracy    <       0.00057332 Ry

     iteration # 70     ecut=    30.00 Ry     beta=0.70
     Davidson diagonalization with overlap
     ethr =  9.89E-07,  avg # of iterations =  1.0

     total cpu time spent up to now is       16.6 secs

     total energy              =    -329.47346123 Ry
     Harris-Foulkes estimate   =    -329.47343524 Ry
     estimated scf accuracy    <       0.00072507 Ry

     iteration # 71     ecut=    30.00 Ry     beta=0.70
     Davidson diagonalization with overlap
     ethr =  9.89E-07,  avg # of iterations =  1.0

     total cpu time spent up to now is       16.8 secs

     total energy              =    -329.47350675 Ry
     Harris-Foulkes estimate   =    -329.47346256 Ry
     estimated scf accuracy    <       0.00075917 Ry

     iteration # 72     ecut=    30.00 Ry     beta=0.70
     Davidson diagonalization with overlap
     ethr =  9.89E-07,  avg # of iterations =  1.0

     total cpu time spent up to now is       16.9 secs

     total energy              =    -329.47306574 Ry
     Harris-Foulkes estimate   =    -329.47350812 Ry
     estimated scf accuracy    <       0.00084799 Ry

     iteration # 73     ecut=    30.00 Ry     beta=0.70
     Davidson diagonalization with overlap
     ethr =  9.89E-07,  avg # of iterations =  7.0

     total cpu time spent up to now is       17.3 secs

     total energy              =    -329.47105970 Ry
     Harris-Foulkes estimate   =    -329.47129725 Ry
     estimated scf accuracy    <       0.00175032 Ry

     iteration # 74     ecut=    30.00 Ry     beta=0.70
     Davidson diagonalization with overlap
     ethr =  9.89E-07,  avg # of iterations =  7.0

     total cpu time spent up to now is       17.5 secs

     total energy              =    -329.45709402 Ry
     Harris-Foulkes estimate   =    -329.47325521 Ry
     estimated scf accuracy    <       0.04157837 Ry

     iteration # 75     ecut=    30.00 Ry     beta=0.70
     Davidson diagonalization with overlap
     ethr =  9.89E-07,  avg # of iterations = 10.0

     total cpu time spent up to now is       17.9 secs

     total energy              =    -329.47461978 Ry
     Harris-Foulkes estimate   =    -329.47376539 Ry
     estimated scf accuracy    <       0.00138157 Ry

     iteration # 76     ecut=    30.00 Ry     beta=0.70
     Davidson diagonalization with overlap
     ethr =  9.89E-07,  avg # of iterations =  7.0

     total cpu time spent up to now is       18.1 secs

     total energy              =    -329.47453807 Ry
     Harris-Foulkes estimate   =    -329.47473546 Ry
     estimated scf accuracy    <       0.00404551 Ry

     iteration # 77     ecut=    30.00 Ry     beta=0.70
     Davidson diagonalization with overlap
     ethr =  9.89E-07,  avg # of iterations =  1.0

     total cpu time spent up to now is       18.3 secs

     total energy              =    -329.47458069 Ry
     Harris-Foulkes estimate   =    -329.47454278 Ry
     estimated scf accuracy    <       0.00351974 Ry

     iteration # 78     ecut=    30.00 Ry     beta=0.70
     Davidson diagonalization with overlap
     ethr =  9.89E-07,  avg # of iterations =  1.0

     total cpu time spent up to now is       18.5 secs

     total energy              =    -329.47607667 Ry
     Harris-Foulkes estimate   =    -329.47458105 Ry
     estimated scf accuracy    <       0.00360519 Ry

     iteration # 79     ecut=    30.00 Ry     beta=0.70
     Davidson diagonalization with overlap
     ethr =  9.89E-07,  avg # of iterations =  3.0

     total cpu time spent up to now is       18.8 secs

     total energy              =    -329.47660046 Ry
     Harris-Foulkes estimate   =    -329.47628097 Ry
     estimated scf accuracy    <       0.00884547 Ry

     iteration # 80     ecut=    30.00 Ry     beta=0.70
     Davidson diagonalization with overlap
     ethr =  9.89E-07,  avg # of iterations =  1.0

     total cpu time spent up to now is       18.9 secs

     total energy              =    -329.47583152 Ry
     Harris-Foulkes estimate   =    -329.47660573 Ry
     estimated scf accuracy    <       0.00980291 Ry

     iteration # 81     ecut=    30.00 Ry     beta=0.70
     Davidson diagonalization with overlap
     ethr =  9.89E-07,  avg # of iterations =  1.0

     total cpu time spent up to now is       19.1 secs

     total energy              =    -329.47600137 Ry
     Harris-Foulkes estimate   =    -329.47585574 Ry
     estimated scf accuracy    <       0.00768509 Ry

     iteration # 82     ecut=    30.00 Ry     beta=0.70
     Davidson diagonalization with overlap
     ethr =  9.89E-07,  avg # of iterations =  1.0

     total cpu time spent up to now is       19.3 secs

     total energy              =    -329.47194893 Ry
     Harris-Foulkes estimate   =    -329.47600315 Ry
     estimated scf accuracy    <       0.00802145 Ry

     iteration # 83     ecut=    30.00 Ry     beta=0.70
     Davidson diagonalization with overlap
     ethr =  9.89E-07,  avg # of iterations =  5.0

     total cpu time spent up to now is       19.6 secs

     total energy              =    -329.47304410 Ry
     Harris-Foulkes estimate   =    -329.47315248 Ry
     estimated scf accuracy    <       0.00058353 Ry

     iteration # 84     ecut=    30.00 Ry     beta=0.70
     Davidson diagonalization with overlap
     ethr =  9.89E-07,  avg # of iterations =  1.0

     total cpu time spent up to now is       19.8 secs

     total energy              =    -329.47285960 Ry
     Harris-Foulkes estimate   =    -329.47303648 Ry
     estimated scf accuracy    <       0.00067734 Ry

     iteration # 85     ecut=    30.00 Ry     beta=0.70
     Davidson diagonalization with overlap
     ethr =  9.89E-07,  avg # of iterations =  2.0

     total cpu time spent up to now is       20.0 secs

     total energy              =    -329.47266143 Ry
     Harris-Foulkes estimate   =    -329.47281955 Ry
     estimated scf accuracy    <       0.00110809 Ry

     iteration # 86     ecut=    30.00 Ry     beta=0.70
     Davidson diagonalization with overlap
     ethr =  9.89E-07,  avg # of iterations =  1.0

     total cpu time spent up to now is       20.2 secs

     total energy              =    -329.47207466 Ry
     Harris-Foulkes estimate   =    -329.47263712 Ry
     estimated scf accuracy    <       0.00164881 Ry

     iteration # 87     ecut=    30.00 Ry     beta=0.70
     Davidson diagonalization with overlap
     ethr =  9.89E-07,  avg # of iterations =  6.0

     total cpu time spent up to now is       20.4 secs

     total energy              =    -329.46971648 Ry
     Harris-Foulkes estimate   =    -329.47184006 Ry
     estimated scf accuracy    <       0.00335527 Ry

     iteration # 88     ecut=    30.00 Ry     beta=0.70
     Davidson diagonalization with overlap
     ethr =  9.89E-07,  avg # of iterations =  8.0

     total cpu time spent up to now is       20.8 secs

     total energy              =    -329.44586616 Ry
     Harris-Foulkes estimate   =    -329.49991428 Ry
     estimated scf accuracy    <       0.81810290 Ry

     iteration # 89     ecut=    30.00 Ry     beta=0.70
     Davidson diagonalization with overlap
     ethr =  9.89E-07,  avg # of iterations =  8.0

     total cpu time spent up to now is       21.1 secs

     total energy              =    -329.46934907 Ry
     Harris-Foulkes estimate   =    -329.47156505 Ry
     estimated scf accuracy    <       0.00716590 Ry

     iteration # 90     ecut=    30.00 Ry     beta=0.70
     Davidson diagonalization with overlap
     ethr =  9.89E-07,  avg # of iterations = 14.0

     total cpu time spent up to now is       21.5 secs

     total energy              =    -329.47220096 Ry
     Harris-Foulkes estimate   =    -329.48400976 Ry
     estimated scf accuracy    <       0.03408109 Ry

     iteration # 91     ecut=    30.00 Ry     beta=0.70
     Davidson diagonalization with overlap
     ethr =  9.89E-07,  avg # of iterations =  5.0

     total cpu time spent up to now is       21.8 secs

     total energy              =    -329.47259680 Ry
     Harris-Foulkes estimate   =    -329.47479177 Ry
     estimated scf accuracy    <       0.00424788 Ry

     iteration # 92     ecut=    30.00 Ry     beta=0.70
     Davidson diagonalization with overlap
     ethr =  9.89E-07,  avg # of iterations =  6.0

     total cpu time spent up to now is       22.1 secs

     total energy              =    -329.47288767 Ry
     Harris-Foulkes estimate   =    -329.47310907 Ry
     estimated scf accuracy    <       0.00059390 Ry

     iteration # 93     ecut=    30.00 Ry     beta=0.70
     Davidson diagonalization with overlap
     ethr =  9.89E-07,  avg # of iterations =  2.0

     total cpu time spent up to now is       22.3 secs

     total energy              =    -329.47332497 Ry
     Harris-Foulkes estimate   =    -329.47280279 Ry
     estimated scf accuracy    <       0.00118763 Ry

     iteration # 94     ecut=    30.00 Ry     beta=0.70
     Davidson diagonalization with overlap
     ethr =  9.89E-07,  avg # of iterations =  2.0

     total cpu time spent up to now is       22.6 secs

     total energy              =    -329.47312908 Ry
     Harris-Foulkes estimate   =    -329.47316982 Ry
     estimated scf accuracy    <       0.00054146 Ry

     iteration # 95     ecut=    30.00 Ry     beta=0.70
     Davidson diagonalization with overlap
     ethr =  9.84E-07,  avg # of iterations =  1.0

     total cpu time spent up to now is       22.7 secs

     total energy              =    -329.47337997 Ry
     Harris-Foulkes estimate   =    -329.47312844 Ry
     estimated scf accuracy    <       0.00058116 Ry

     iteration # 96     ecut=    30.00 Ry     beta=0.70
     Davidson diagonalization with overlap
     ethr =  9.84E-07,  avg # of iterations =  2.0

     total cpu time spent up to now is       22.9 secs

     total energy              =    -329.47374815 Ry
     Harris-Foulkes estimate   =    -329.47334691 Ry
     estimated scf accuracy    <       0.00060384 Ry

     iteration # 97     ecut=    30.00 Ry     beta=0.70
     Davidson diagonalization with overlap
     ethr =  9.84E-07,  avg # of iterations =  3.0

     total cpu time spent up to now is       23.2 secs

     total energy              =    -329.47363694 Ry
     Harris-Foulkes estimate   =    -329.47375466 Ry
     estimated scf accuracy    <       0.00132060 Ry

     iteration # 98     ecut=    30.00 Ry     beta=0.70
     Davidson diagonalization with overlap
     ethr =  9.84E-07,  avg # of iterations =  1.0

     total cpu time spent up to now is       23.3 secs

     total energy              =    -329.47380110 Ry
     Harris-Foulkes estimate   =    -329.47363943 Ry
     estimated scf accuracy    <       0.00109436 Ry

     iteration # 99     ecut=    30.00 Ry     beta=0.70
     Davidson diagonalization with overlap
     ethr =  9.84E-07,  avg # of iterations =  1.0

     total cpu time spent up to now is       23.5 secs

     total energy              =    -329.47377143 Ry
     Harris-Foulkes estimate   =    -329.47380309 Ry
     estimated scf accuracy    <       0.00138136 Ry

     iteration #100     ecut=    30.00 Ry     beta=0.70
     Davidson diagonalization with overlap
     ethr =  9.84E-07,  avg # of iterations =  1.0

     total cpu time spent up to now is       23.7 secs

     total energy              =    -329.47383399 Ry
     Harris-Foulkes estimate   =    -329.47377178 Ry
     estimated scf accuracy    <       0.00133828 Ry

     End of self-consistent calculation

     convergence NOT achieved after 100 iterations: stopping

     Writing output data file pwscf.save
 
     init_run     :      0.16s CPU      0.19s WALL (       1 calls)
     electrons    :     21.60s CPU     23.43s WALL (       1 calls)

     Called by init_run:
     wfcinit      :      0.08s CPU      0.09s WALL (       1 calls)
     potinit      :      0.03s CPU      0.03s WALL (       1 calls)

     Called by electrons:
     c_bands      :     16.04s CPU     16.40s WALL (     101 calls)
     sum_band     :      2.35s CPU      2.41s WALL (     101 calls)
     v_of_rho     :      1.87s CPU      1.87s WALL (     101 calls)
     mix_rho      :      1.27s CPU      2.58s WALL (     101 calls)

     Called by c_bands:
     init_us_2    :      0.30s CPU      0.32s WALL (     203 calls)
     cegterg      :     14.24s CPU     14.54s WALL (     101 calls)

     Called by sum_band:

     Called by *egterg:
     h_psi        :     10.76s CPU     10.84s WALL (     436 calls)
     g_psi        :      0.10s CPU      0.10s WALL (     334 calls)
     cdiaghg      :      1.08s CPU      1.09s WALL (     434 calls)

     Called by h_psi:
     h_psi:pot    :     10.60s CPU     10.68s WALL (     436 calls)
     h_psi:calbec :      0.66s CPU      0.66s WALL (     436 calls)
     vloc_psi     :      9.24s CPU      9.31s WALL (     436 calls)
     add_vuspsi   :      0.70s CPU      0.70s WALL (     436 calls)

     General routines
     calbec       :      0.66s CPU      0.66s WALL (     436 calls)
     fft          :      1.00s CPU      1.01s WALL (    1113 calls)
     fftw         :      9.85s CPU      9.98s WALL (   20748 calls)
     davcio       :      0.19s CPU      1.06s WALL (    1928 calls)
 
     Parallel routines
     fft_scatter  :      2.56s CPU      2.44s WALL (   21861 calls)
 
     PWSCF        :    21.86s CPU        23.81s WALL

 
   This run was terminated on:   1:18:15   4Aug2017            

=------------------------------------------------------------------------------=
   JOB DONE.
=------------------------------------------------------------------------------=
