
     Program PWSCF v.6.0 (svn rev. 13079) starts on  4Aug2017 at  0:44: 7 

     This program is part of the open-source Quantum ESPRESSO suite
     for quantum simulation of materials; please cite
         "P. Giannozzi et al., J. Phys.:Condens. Matter 21 395502 (2009);
          URL http://www.quantum-espresso.org", 
     in publications or presentations arising from this work. More details at
     http://www.quantum-espresso.org/quote

     Parallel version (MPI), running on    10 processors
     R & G space division:  proc/nbgrp/npool/nimage =      10
     Reading input from input/multi/minchecks-Gold5-606.in

     Current dimensions of program PWSCF are:
     Max number of different atomic species (ntypx) = 10
     Max number of k-points (npk) =  40000
     Max angular momentum in pseudopotentials (lmaxx) =  3
     Message from routine iosys:
     pot_extrapolation='second-order' not available, using 'atomic'
     Message from routine iosys:
     wfc_extrapolation='second-order' not available, using 'atomic'

     Subspace diagonalization in iterative solution of the eigenvalue problem:
     a serial algorithm will be used

 
     Parallelization info
     --------------------
     sticks:   dense  smooth     PW     G-vecs:    dense   smooth      PW
     Min         380     380     94                17748    17748    2208
     Max         381     381     95                17753    17753    2213
     Sum        3809    3809    949               177509   177509   22119
 


     bravais-lattice index     =            1
     lattice parameter (alat)  =      20.0000  a.u.
     unit-cell volume          =    8000.0000 (a.u.)^3
     number of atoms/cell      =            5
     number of atomic types    =            1
     number of electrons       =        55.00
     number of Kohn-Sham states=           34
     kinetic-energy cutoff     =      30.0000  Ry
     charge density cutoff     =     120.0000  Ry
     convergence threshold     =      1.0E-08
     mixing beta               =       0.7000
     number of iterations used =            8  plain     mixing
     Exchange-correlation      = BLYP ( 1  3  1  3 0 0)
     nstep                     =           50


     celldm(1)=  20.000000  celldm(2)=   0.000000  celldm(3)=   0.000000
     celldm(4)=   0.000000  celldm(5)=   0.000000  celldm(6)=   0.000000

     crystal axes: (cart. coord. in units of alat)
               a(1) = (   1.000000   0.000000   0.000000 )  
               a(2) = (   0.000000   1.000000   0.000000 )  
               a(3) = (   0.000000   0.000000   1.000000 )  

     reciprocal axes: (cart. coord. in units 2 pi/alat)
               b(1) = (  1.000000  0.000000  0.000000 )  
               b(2) = (  0.000000  1.000000  0.000000 )  
               b(3) = (  0.000000  0.000000  1.000000 )  


     PseudoPot. # 1 for Au read from file:
     ./Au.blyp-d-hgh.UPF
     MD5 check sum: c10d8bae01f806c36a1643a1c69a8479
     Pseudo is Norm-conserving, Zval = 11.0
     Generated in analytical, separable form
     Using radial grid of 1279 points,  6 beta functions with: 
                l(1) =   0
                l(2) =   0
                l(3) =   1
                l(4) =   1
                l(5) =   2
                l(6) =   2

     atomic species   valence    mass     pseudopotential
        Au            11.00    28.08600     Au( 1.00)

     No symmetry found



   Cartesian axes

     site n.     atom                  positions (alat units)
         1           Au  tau(   1) = (  -0.1109825   0.0352956  -0.0101185  )
         2           Au  tau(   2) = (  -0.0079997   0.1484754   0.2200248  )
         3           Au  tau(   3) = (   0.1437824   0.0323169   0.0020972  )
         4           Au  tau(   4) = (   0.2140182   0.2069518   0.2949760  )
         5           Au  tau(   5) = (   0.3803129   0.0764176   0.1283864  )

     number of k points=     1  Marzari-Vanderbilt smearing, width (Ry)=  0.0250
                       cart. coord. in units 2pi/alat
        k(    1) = (   0.0000000   0.0000000   0.0000000), wk =   2.0000000

     Dense  grid:   177509 G-vectors     FFT dimensions: (  72,  72,  72)

     Estimated max dynamical RAM per process >      15.04Mb

     Estimated total allocated dynamical RAM >     150.39Mb

     Initial potential from superposition of free atoms
     Check: negative starting charge=   -0.006246

     starting charge   54.99940, renormalised to   55.00000

     negative rho (up, down):  6.246E-03 0.000E+00
     Starting wfc are   45 randomized atomic wfcs

     total cpu time spent up to now is        0.4 secs

     per-process dynamical memory:    41.0 Mb

     Self-consistent Calculation

     iteration #  1     ecut=    30.00 Ry     beta=0.70
     Davidson diagonalization with overlap
     ethr =  1.00E-02,  avg # of iterations =  3.0

     Threshold (ethr) on eigenvalues was too large:
     Diagonalizing with lowered threshold

     Davidson diagonalization with overlap
     ethr =  5.06E-04,  avg # of iterations =  3.0

     negative rho (up, down):  8.122E-04 0.000E+00

     total cpu time spent up to now is        0.7 secs

     total energy              =    -329.30174386 Ry
     Harris-Foulkes estimate   =    -329.50677973 Ry
     estimated scf accuracy    <       0.33102932 Ry

     iteration #  2     ecut=    30.00 Ry     beta=0.70
     Davidson diagonalization with overlap
     ethr =  6.02E-04,  avg # of iterations =  3.0

     negative rho (up, down):  4.718E-04 0.000E+00

     total cpu time spent up to now is        1.0 secs

     total energy              =    -329.27731038 Ry
     Harris-Foulkes estimate   =    -329.62454405 Ry
     estimated scf accuracy    <       0.88715294 Ry

     iteration #  3     ecut=    30.00 Ry     beta=0.70
     Davidson diagonalization with overlap
     ethr =  6.02E-04,  avg # of iterations =  3.0

     negative rho (up, down):  1.708E-04 0.000E+00

     total cpu time spent up to now is        1.2 secs

     total energy              =    -329.43392736 Ry
     Harris-Foulkes estimate   =    -329.48313403 Ry
     estimated scf accuracy    <       0.12565075 Ry

     iteration #  4     ecut=    30.00 Ry     beta=0.70
     Davidson diagonalization with overlap
     ethr =  2.28E-04,  avg # of iterations =  2.0

     negative rho (up, down):  5.054E-05 0.000E+00

     total cpu time spent up to now is        1.4 secs

     total energy              =    -329.45063931 Ry
     Harris-Foulkes estimate   =    -329.45363387 Ry
     estimated scf accuracy    <       0.00818898 Ry

     iteration #  5     ecut=    30.00 Ry     beta=0.70
     Davidson diagonalization with overlap
     ethr =  1.49E-05,  avg # of iterations =  3.0

     negative rho (up, down):  4.381E-06 0.000E+00

     total cpu time spent up to now is        1.7 secs

     total energy              =    -329.45123425 Ry
     Harris-Foulkes estimate   =    -329.45263575 Ry
     estimated scf accuracy    <       0.00332662 Ry

     iteration #  6     ecut=    30.00 Ry     beta=0.70
     Davidson diagonalization with overlap
     ethr =  6.05E-06,  avg # of iterations =  3.0

     negative rho (up, down):  5.447E-06 0.000E+00

     total cpu time spent up to now is        1.9 secs

     total energy              =    -329.45205965 Ry
     Harris-Foulkes estimate   =    -329.45080851 Ry
     estimated scf accuracy    <       0.00670358 Ry

     iteration #  7     ecut=    30.00 Ry     beta=0.70
     Davidson diagonalization with overlap
     ethr =  6.05E-06,  avg # of iterations =  1.0

     negative rho (up, down):  1.522E-07 0.000E+00

     total cpu time spent up to now is        2.1 secs

     total energy              =    -329.45303439 Ry
     Harris-Foulkes estimate   =    -329.45190750 Ry
     estimated scf accuracy    <       0.00396707 Ry

     iteration #  8     ecut=    30.00 Ry     beta=0.70
     Davidson diagonalization with overlap
     ethr =  6.05E-06,  avg # of iterations =  3.0

     total cpu time spent up to now is        2.3 secs

     total energy              =    -329.45317058 Ry
     Harris-Foulkes estimate   =    -329.45283535 Ry
     estimated scf accuracy    <       0.00188576 Ry

     iteration #  9     ecut=    30.00 Ry     beta=0.70
     Davidson diagonalization with overlap
     ethr =  3.43E-06,  avg # of iterations =  3.0

     total cpu time spent up to now is        2.5 secs

     total energy              =    -329.45342979 Ry
     Harris-Foulkes estimate   =    -329.45319060 Ry
     estimated scf accuracy    <       0.00151796 Ry

     iteration # 10     ecut=    30.00 Ry     beta=0.70
     Davidson diagonalization with overlap
     ethr =  2.76E-06,  avg # of iterations =  4.0

     total cpu time spent up to now is        2.7 secs

     total energy              =    -329.45367425 Ry
     Harris-Foulkes estimate   =    -329.45346097 Ry
     estimated scf accuracy    <       0.00210038 Ry

     iteration # 11     ecut=    30.00 Ry     beta=0.70
     Davidson diagonalization with overlap
     ethr =  2.76E-06,  avg # of iterations =  1.0

     total cpu time spent up to now is        2.9 secs

     total energy              =    -329.45299151 Ry
     Harris-Foulkes estimate   =    -329.45369100 Ry
     estimated scf accuracy    <       0.00268662 Ry

     iteration # 12     ecut=    30.00 Ry     beta=0.70
     Davidson diagonalization with overlap
     ethr =  2.76E-06,  avg # of iterations =  2.0

     total cpu time spent up to now is        3.1 secs

     total energy              =    -329.45250281 Ry
     Harris-Foulkes estimate   =    -329.45304817 Ry
     estimated scf accuracy    <       0.00122774 Ry

     iteration # 13     ecut=    30.00 Ry     beta=0.70
     Davidson diagonalization with overlap
     ethr =  2.23E-06,  avg # of iterations =  3.0

     total cpu time spent up to now is        3.4 secs

     total energy              =    -329.45184490 Ry
     Harris-Foulkes estimate   =    -329.45238971 Ry
     estimated scf accuracy    <       0.00157194 Ry

     iteration # 14     ecut=    30.00 Ry     beta=0.70
     Davidson diagonalization with overlap
     ethr =  2.23E-06,  avg # of iterations =  3.0

     total cpu time spent up to now is        3.6 secs

     total energy              =    -329.45186959 Ry
     Harris-Foulkes estimate   =    -329.45150696 Ry
     estimated scf accuracy    <       0.00495211 Ry

     iteration # 15     ecut=    30.00 Ry     beta=0.70
     Davidson diagonalization with overlap
     ethr =  2.23E-06,  avg # of iterations =  1.0

     total cpu time spent up to now is        3.8 secs

     total energy              =    -329.45222177 Ry
     Harris-Foulkes estimate   =    -329.45183961 Ry
     estimated scf accuracy    <       0.00358631 Ry

     iteration # 16     ecut=    30.00 Ry     beta=0.70
     Davidson diagonalization with overlap
     ethr =  2.23E-06,  avg # of iterations =  1.0

     total cpu time spent up to now is        4.0 secs

     total energy              =    -329.45294585 Ry
     Harris-Foulkes estimate   =    -329.45217500 Ry
     estimated scf accuracy    <       0.00224374 Ry

     iteration # 17     ecut=    30.00 Ry     beta=0.70
     Davidson diagonalization with overlap
     ethr =  2.23E-06,  avg # of iterations =  3.0

     total cpu time spent up to now is        4.2 secs

     total energy              =    -329.45276451 Ry
     Harris-Foulkes estimate   =    -329.45270989 Ry
     estimated scf accuracy    <       0.00089113 Ry

     iteration # 18     ecut=    30.00 Ry     beta=0.70
     Davidson diagonalization with overlap
     ethr =  1.62E-06,  avg # of iterations =  1.0

     total cpu time spent up to now is        4.4 secs

     total energy              =    -329.45288759 Ry
     Harris-Foulkes estimate   =    -329.45276411 Ry
     estimated scf accuracy    <       0.00081511 Ry

     iteration # 19     ecut=    30.00 Ry     beta=0.70
     Davidson diagonalization with overlap
     ethr =  1.48E-06,  avg # of iterations =  1.0

     total cpu time spent up to now is        4.6 secs

     total energy              =    -329.45299067 Ry
     Harris-Foulkes estimate   =    -329.45288104 Ry
     estimated scf accuracy    <       0.00081146 Ry

     iteration # 20     ecut=    30.00 Ry     beta=0.70
     Davidson diagonalization with overlap
     ethr =  1.48E-06,  avg # of iterations =  1.0

     total cpu time spent up to now is        4.7 secs

     total energy              =    -329.45305468 Ry
     Harris-Foulkes estimate   =    -329.45298814 Ry
     estimated scf accuracy    <       0.00085060 Ry

     iteration # 21     ecut=    30.00 Ry     beta=0.70
     Davidson diagonalization with overlap
     ethr =  1.48E-06,  avg # of iterations =  1.0

     total cpu time spent up to now is        4.9 secs

     total energy              =    -329.45310719 Ry
     Harris-Foulkes estimate   =    -329.45305791 Ry
     estimated scf accuracy    <       0.00098102 Ry

     iteration # 22     ecut=    30.00 Ry     beta=0.70
     Davidson diagonalization with overlap
     ethr =  1.48E-06,  avg # of iterations =  1.0

     total cpu time spent up to now is        5.1 secs

     total energy              =    -329.45289678 Ry
     Harris-Foulkes estimate   =    -329.45310927 Ry
     estimated scf accuracy    <       0.00107045 Ry

     iteration # 23     ecut=    30.00 Ry     beta=0.70
     Davidson diagonalization with overlap
     ethr =  1.48E-06,  avg # of iterations =  1.0

     total cpu time spent up to now is        5.3 secs

     total energy              =    -329.45244609 Ry
     Harris-Foulkes estimate   =    -329.45288636 Ry
     estimated scf accuracy    <       0.00091198 Ry

     iteration # 24     ecut=    30.00 Ry     beta=0.70
     Davidson diagonalization with overlap
     ethr =  1.48E-06,  avg # of iterations =  2.0

     total cpu time spent up to now is        5.5 secs

     total energy              =    -329.45202687 Ry
     Harris-Foulkes estimate   =    -329.45223619 Ry
     estimated scf accuracy    <       0.00207628 Ry

     iteration # 25     ecut=    30.00 Ry     beta=0.70
     Davidson diagonalization with overlap
     ethr =  1.48E-06,  avg # of iterations =  1.0

     total cpu time spent up to now is        5.7 secs

     total energy              =    -329.45265627 Ry
     Harris-Foulkes estimate   =    -329.45201109 Ry
     estimated scf accuracy    <       0.00297595 Ry

     iteration # 26     ecut=    30.00 Ry     beta=0.70
     Davidson diagonalization with overlap
     ethr =  1.48E-06,  avg # of iterations =  2.0

     total cpu time spent up to now is        5.9 secs

     total energy              =    -329.45257648 Ry
     Harris-Foulkes estimate   =    -329.45248304 Ry
     estimated scf accuracy    <       0.00104704 Ry

     iteration # 27     ecut=    30.00 Ry     beta=0.70
     Davidson diagonalization with overlap
     ethr =  1.48E-06,  avg # of iterations =  1.0

     total cpu time spent up to now is        6.1 secs

     total energy              =    -329.45280467 Ry
     Harris-Foulkes estimate   =    -329.45257590 Ry
     estimated scf accuracy    <       0.00085929 Ry

     iteration # 28     ecut=    30.00 Ry     beta=0.70
     Davidson diagonalization with overlap
     ethr =  1.48E-06,  avg # of iterations =  1.0

     total cpu time spent up to now is        6.3 secs

     total energy              =    -329.45287813 Ry
     Harris-Foulkes estimate   =    -329.45277058 Ry
     estimated scf accuracy    <       0.00059152 Ry

     iteration # 29     ecut=    30.00 Ry     beta=0.70
     Davidson diagonalization with overlap
     ethr =  1.08E-06,  avg # of iterations =  1.0

     total cpu time spent up to now is        6.5 secs

     total energy              =    -329.45310978 Ry
     Harris-Foulkes estimate   =    -329.45287697 Ry
     estimated scf accuracy    <       0.00057976 Ry

     iteration # 30     ecut=    30.00 Ry     beta=0.70
     Davidson diagonalization with overlap
     ethr =  1.05E-06,  avg # of iterations =  3.0

     total cpu time spent up to now is        6.7 secs

     total energy              =    -329.45307664 Ry
     Harris-Foulkes estimate   =    -329.45311428 Ry
     estimated scf accuracy    <       0.00086318 Ry

     iteration # 31     ecut=    30.00 Ry     beta=0.70
     Davidson diagonalization with overlap
     ethr =  1.05E-06,  avg # of iterations =  1.0

     total cpu time spent up to now is        6.9 secs

     total energy              =    -329.45320752 Ry
     Harris-Foulkes estimate   =    -329.45307902 Ry
     estimated scf accuracy    <       0.00083050 Ry

     iteration # 32     ecut=    30.00 Ry     beta=0.70
     Davidson diagonalization with overlap
     ethr =  1.05E-06,  avg # of iterations =  1.0

     total cpu time spent up to now is        7.1 secs

     total energy              =    -329.45339324 Ry
     Harris-Foulkes estimate   =    -329.45320916 Ry
     estimated scf accuracy    <       0.00103041 Ry

     iteration # 33     ecut=    30.00 Ry     beta=0.70
     Davidson diagonalization with overlap
     ethr =  1.05E-06,  avg # of iterations =  1.0

     total cpu time spent up to now is        7.3 secs

     total energy              =    -329.45346383 Ry
     Harris-Foulkes estimate   =    -329.45340279 Ry
     estimated scf accuracy    <       0.00145884 Ry

     iteration # 34     ecut=    30.00 Ry     beta=0.70
     Davidson diagonalization with overlap
     ethr =  1.05E-06,  avg # of iterations =  1.0

     total cpu time spent up to now is        7.5 secs

     total energy              =    -329.45240895 Ry
     Harris-Foulkes estimate   =    -329.45346632 Ry
     estimated scf accuracy    <       0.00161561 Ry

     iteration # 35     ecut=    30.00 Ry     beta=0.70
     Davidson diagonalization with overlap
     ethr =  1.05E-06,  avg # of iterations =  3.0

     total cpu time spent up to now is        7.7 secs

     total energy              =    -329.45174065 Ry
     Harris-Foulkes estimate   =    -329.45229292 Ry
     estimated scf accuracy    <       0.00168831 Ry

     iteration # 36     ecut=    30.00 Ry     beta=0.70
     Davidson diagonalization with overlap
     ethr =  1.05E-06,  avg # of iterations =  4.0

     total cpu time spent up to now is        7.9 secs

     total energy              =    -329.45357149 Ry
     Harris-Foulkes estimate   =    -329.45143938 Ry
     estimated scf accuracy    <       0.00511392 Ry

     iteration # 37     ecut=    30.00 Ry     beta=0.70
     Davidson diagonalization with overlap
     ethr =  1.05E-06,  avg # of iterations =  3.0

     total cpu time spent up to now is        8.2 secs

     total energy              =    -329.45277966 Ry
     Harris-Foulkes estimate   =    -329.45267635 Ry
     estimated scf accuracy    <       0.00069095 Ry

     iteration # 38     ecut=    30.00 Ry     beta=0.70
     Davidson diagonalization with overlap
     ethr =  1.05E-06,  avg # of iterations =  1.0

     total cpu time spent up to now is        8.4 secs

     total energy              =    -329.45352644 Ry
     Harris-Foulkes estimate   =    -329.45277245 Ry
     estimated scf accuracy    <       0.00061368 Ry

     iteration # 39     ecut=    30.00 Ry     beta=0.70
     Davidson diagonalization with overlap
     ethr =  1.05E-06,  avg # of iterations =  5.0

     total cpu time spent up to now is        8.7 secs

     total energy              =    -329.45292329 Ry
     Harris-Foulkes estimate   =    -329.45347799 Ry
     estimated scf accuracy    <       0.00175070 Ry

     iteration # 40     ecut=    30.00 Ry     beta=0.70
     Davidson diagonalization with overlap
     ethr =  1.05E-06,  avg # of iterations =  2.0

     total cpu time spent up to now is        8.9 secs

     total energy              =    -329.45293403 Ry
     Harris-Foulkes estimate   =    -329.45297111 Ry
     estimated scf accuracy    <       0.00075374 Ry

     iteration # 41     ecut=    30.00 Ry     beta=0.70
     Davidson diagonalization with overlap
     ethr =  1.05E-06,  avg # of iterations =  1.0

     total cpu time spent up to now is        9.1 secs

     total energy              =    -329.45288146 Ry
     Harris-Foulkes estimate   =    -329.45293509 Ry
     estimated scf accuracy    <       0.00072299 Ry

     iteration # 42     ecut=    30.00 Ry     beta=0.70
     Davidson diagonalization with overlap
     ethr =  1.05E-06,  avg # of iterations =  1.0

     total cpu time spent up to now is        9.3 secs

     total energy              =    -329.45291925 Ry
     Harris-Foulkes estimate   =    -329.45288151 Ry
     estimated scf accuracy    <       0.00068812 Ry

     iteration # 43     ecut=    30.00 Ry     beta=0.70
     Davidson diagonalization with overlap
     ethr =  1.05E-06,  avg # of iterations =  1.0

     total cpu time spent up to now is        9.4 secs

     total energy              =    -329.45297638 Ry
     Harris-Foulkes estimate   =    -329.45291877 Ry
     estimated scf accuracy    <       0.00068462 Ry

     iteration # 44     ecut=    30.00 Ry     beta=0.70
     Davidson diagonalization with overlap
     ethr =  1.05E-06,  avg # of iterations =  1.0

     total cpu time spent up to now is        9.6 secs

     total energy              =    -329.45299567 Ry
     Harris-Foulkes estimate   =    -329.45297578 Ry
     estimated scf accuracy    <       0.00073069 Ry

     iteration # 45     ecut=    30.00 Ry     beta=0.70
     Davidson diagonalization with overlap
     ethr =  1.05E-06,  avg # of iterations =  1.0

     total cpu time spent up to now is        9.8 secs

     total energy              =    -329.45246581 Ry
     Harris-Foulkes estimate   =    -329.45299581 Ry
     estimated scf accuracy    <       0.00075004 Ry

     iteration # 46     ecut=    30.00 Ry     beta=0.70
     Davidson diagonalization with overlap
     ethr =  1.05E-06,  avg # of iterations =  5.0

     total cpu time spent up to now is       10.1 secs

     total energy              =    -329.45615465 Ry
     Harris-Foulkes estimate   =    -329.45145550 Ry
     estimated scf accuracy    <       0.00503785 Ry

     iteration # 47     ecut=    30.00 Ry     beta=0.70
     Davidson diagonalization with overlap
     ethr =  1.05E-06,  avg # of iterations =  6.0

     total cpu time spent up to now is       10.4 secs

     total energy              =    -329.45414253 Ry
     Harris-Foulkes estimate   =    -329.45347041 Ry
     estimated scf accuracy    <       0.00171856 Ry

     iteration # 48     ecut=    30.00 Ry     beta=0.70
     Davidson diagonalization with overlap
     ethr =  1.05E-06,  avg # of iterations =  2.0

     total cpu time spent up to now is       10.7 secs

     total energy              =    -329.45436769 Ry
     Harris-Foulkes estimate   =    -329.45422356 Ry
     estimated scf accuracy    <       0.00395117 Ry

     iteration # 49     ecut=    30.00 Ry     beta=0.70
     Davidson diagonalization with overlap
     ethr =  1.05E-06,  avg # of iterations =  1.0

     total cpu time spent up to now is       10.8 secs

     total energy              =    -329.45455457 Ry
     Harris-Foulkes estimate   =    -329.45437105 Ry
     estimated scf accuracy    <       0.00438455 Ry

     iteration # 50     ecut=    30.00 Ry     beta=0.70
     Davidson diagonalization with overlap
     ethr =  1.05E-06,  avg # of iterations =  1.0

     total cpu time spent up to now is       11.0 secs

     total energy              =    -329.45467274 Ry
     Harris-Foulkes estimate   =    -329.45455935 Ry
     estimated scf accuracy    <       0.00498582 Ry

     iteration # 51     ecut=    30.00 Ry     beta=0.70
     Davidson diagonalization with overlap
     ethr =  1.05E-06,  avg # of iterations =  1.0

     total cpu time spent up to now is       11.2 secs

     total energy              =    -329.45401752 Ry
     Harris-Foulkes estimate   =    -329.45467531 Ry
     estimated scf accuracy    <       0.00536685 Ry

     iteration # 52     ecut=    30.00 Ry     beta=0.70
     Davidson diagonalization with overlap
     ethr =  1.05E-06,  avg # of iterations =  1.0

     total cpu time spent up to now is       11.4 secs

     total energy              =    -329.45474326 Ry
     Harris-Foulkes estimate   =    -329.45405359 Ry
     estimated scf accuracy    <       0.00354395 Ry

     iteration # 53     ecut=    30.00 Ry     beta=0.70
     Davidson diagonalization with overlap
     ethr =  1.05E-06,  avg # of iterations =  1.0

     total cpu time spent up to now is       11.6 secs

     total energy              =    -329.45445819 Ry
     Harris-Foulkes estimate   =    -329.45478940 Ry
     estimated scf accuracy    <       0.00563714 Ry

     iteration # 54     ecut=    30.00 Ry     beta=0.70
     Davidson diagonalization with overlap
     ethr =  1.05E-06,  avg # of iterations =  1.0

     total cpu time spent up to now is       11.8 secs

     total energy              =    -329.46058884 Ry
     Harris-Foulkes estimate   =    -329.45446774 Ry
     estimated scf accuracy    <       0.00475142 Ry

     iteration # 55     ecut=    30.00 Ry     beta=0.70
     Davidson diagonalization with overlap
     ethr =  1.05E-06,  avg # of iterations =  6.0

     total cpu time spent up to now is       12.1 secs

     total energy              =    -329.44567497 Ry
     Harris-Foulkes estimate   =    -329.46312605 Ry
     estimated scf accuracy    <       0.03630019 Ry

     iteration # 56     ecut=    30.00 Ry     beta=0.70
     Davidson diagonalization with overlap
     ethr =  1.05E-06,  avg # of iterations =  6.0

     total cpu time spent up to now is       12.5 secs

     total energy              =    -329.45259552 Ry
     Harris-Foulkes estimate   =    -329.45267734 Ry
     estimated scf accuracy    <       0.00089493 Ry

     iteration # 57     ecut=    30.00 Ry     beta=0.70
     Davidson diagonalization with overlap
     ethr =  1.05E-06,  avg # of iterations =  1.0

     total cpu time spent up to now is       12.7 secs

     total energy              =    -329.45241854 Ry
     Harris-Foulkes estimate   =    -329.45264328 Ry
     estimated scf accuracy    <       0.00087995 Ry

     iteration # 58     ecut=    30.00 Ry     beta=0.70
     Davidson diagonalization with overlap
     ethr =  1.05E-06,  avg # of iterations =  2.0

     total cpu time spent up to now is       12.8 secs

     total energy              =    -329.45205005 Ry
     Harris-Foulkes estimate   =    -329.45240068 Ry
     estimated scf accuracy    <       0.00136832 Ry

     iteration # 59     ecut=    30.00 Ry     beta=0.70
     Davidson diagonalization with overlap
     ethr =  1.05E-06,  avg # of iterations =  2.0

     total cpu time spent up to now is       13.0 secs

     total energy              =    -329.45083347 Ry
     Harris-Foulkes estimate   =    -329.45193792 Ry
     estimated scf accuracy    <       0.00322108 Ry

     iteration # 60     ecut=    30.00 Ry     beta=0.70
     Davidson diagonalization with overlap
     ethr =  1.05E-06,  avg # of iterations =  6.0

     total cpu time spent up to now is       13.3 secs

     total energy              =    -329.44991620 Ry
     Harris-Foulkes estimate   =    -329.45042019 Ry
     estimated scf accuracy    <       0.00470582 Ry

     iteration # 61     ecut=    30.00 Ry     beta=0.70
     Davidson diagonalization with overlap
     ethr =  1.05E-06,  avg # of iterations =  2.0

     total cpu time spent up to now is       13.5 secs

     total energy              =    -329.44994484 Ry
     Harris-Foulkes estimate   =    -329.45004514 Ry
     estimated scf accuracy    <       0.00205853 Ry

     iteration # 62     ecut=    30.00 Ry     beta=0.70
     Davidson diagonalization with overlap
     ethr =  1.05E-06,  avg # of iterations =  1.0

     total cpu time spent up to now is       13.7 secs

     total energy              =    -329.44996282 Ry
     Harris-Foulkes estimate   =    -329.45003763 Ry
     estimated scf accuracy    <       0.00224315 Ry

     iteration # 63     ecut=    30.00 Ry     beta=0.70
     Davidson diagonalization with overlap
     ethr =  1.05E-06,  avg # of iterations =  1.0

     total cpu time spent up to now is       13.9 secs

     total energy              =    -329.44998717 Ry
     Harris-Foulkes estimate   =    -329.45003214 Ry
     estimated scf accuracy    <       0.00187941 Ry

     iteration # 64     ecut=    30.00 Ry     beta=0.70
     Davidson diagonalization with overlap
     ethr =  1.05E-06,  avg # of iterations =  1.0

     total cpu time spent up to now is       14.1 secs

     total energy              =    -329.45033062 Ry
     Harris-Foulkes estimate   =    -329.45003526 Ry
     estimated scf accuracy    <       0.00209609 Ry

     iteration # 65     ecut=    30.00 Ry     beta=0.70
     Davidson diagonalization with overlap
     ethr =  1.05E-06,  avg # of iterations =  6.0

     total cpu time spent up to now is       14.4 secs

     total energy              =    -329.45267797 Ry
     Harris-Foulkes estimate   =    -329.45267636 Ry
     estimated scf accuracy    <       0.00077077 Ry

     iteration # 66     ecut=    30.00 Ry     beta=0.70
     Davidson diagonalization with overlap
     ethr =  1.05E-06,  avg # of iterations =  1.0

     total cpu time spent up to now is       14.6 secs

     total energy              =    -329.45277201 Ry
     Harris-Foulkes estimate   =    -329.45270483 Ry
     estimated scf accuracy    <       0.00087828 Ry

     iteration # 67     ecut=    30.00 Ry     beta=0.70
     Davidson diagonalization with overlap
     ethr =  1.05E-06,  avg # of iterations =  1.0

     total cpu time spent up to now is       14.8 secs

     total energy              =    -329.45299635 Ry
     Harris-Foulkes estimate   =    -329.45278594 Ry
     estimated scf accuracy    <       0.00067550 Ry

     iteration # 68     ecut=    30.00 Ry     beta=0.70
     Davidson diagonalization with overlap
     ethr =  1.05E-06,  avg # of iterations =  2.0

     total cpu time spent up to now is       15.0 secs

     total energy              =    -329.45318182 Ry
     Harris-Foulkes estimate   =    -329.45299016 Ry
     estimated scf accuracy    <       0.00083277 Ry

     iteration # 69     ecut=    30.00 Ry     beta=0.70
     Davidson diagonalization with overlap
     ethr =  1.05E-06,  avg # of iterations =  1.0

     total cpu time spent up to now is       15.1 secs

     total energy              =    -329.45258783 Ry
     Harris-Foulkes estimate   =    -329.45318624 Ry
     estimated scf accuracy    <       0.00116867 Ry

     iteration # 70     ecut=    30.00 Ry     beta=0.70
     Davidson diagonalization with overlap
     ethr =  1.05E-06,  avg # of iterations =  3.0

     total cpu time spent up to now is       15.4 secs

     total energy              =    -329.45475292 Ry
     Harris-Foulkes estimate   =    -329.45248650 Ry
     estimated scf accuracy    <       0.00113976 Ry

     iteration # 71     ecut=    30.00 Ry     beta=0.70
     Davidson diagonalization with overlap
     ethr =  1.05E-06,  avg # of iterations =  5.0

     total cpu time spent up to now is       15.7 secs

     total energy              =    -329.45406859 Ry
     Harris-Foulkes estimate   =    -329.45415607 Ry
     estimated scf accuracy    <       0.00405560 Ry

     iteration # 72     ecut=    30.00 Ry     beta=0.70
     Davidson diagonalization with overlap
     ethr =  1.05E-06,  avg # of iterations =  1.0

     total cpu time spent up to now is       15.9 secs

     total energy              =    -329.45193366 Ry
     Harris-Foulkes estimate   =    -329.45407911 Ry
     estimated scf accuracy    <       0.00373269 Ry

     iteration # 73     ecut=    30.00 Ry     beta=0.70
     Davidson diagonalization with overlap
     ethr =  1.05E-06,  avg # of iterations =  6.0

     total cpu time spent up to now is       16.2 secs

     total energy              =    -329.45219031 Ry
     Harris-Foulkes estimate   =    -329.45236758 Ry
     estimated scf accuracy    <       0.00155835 Ry

     iteration # 74     ecut=    30.00 Ry     beta=0.70
     Davidson diagonalization with overlap
     ethr =  1.05E-06,  avg # of iterations =  1.0

     total cpu time spent up to now is       16.3 secs

     total energy              =    -329.45146373 Ry
     Harris-Foulkes estimate   =    -329.45220102 Ry
     estimated scf accuracy    <       0.00207242 Ry

     iteration # 75     ecut=    30.00 Ry     beta=0.70
     Davidson diagonalization with overlap
     ethr =  1.05E-06,  avg # of iterations =  3.0

     total cpu time spent up to now is       16.6 secs

     total energy              =    -329.44939793 Ry
     Harris-Foulkes estimate   =    -329.45104568 Ry
     estimated scf accuracy    <       0.00579607 Ry

     iteration # 76     ecut=    30.00 Ry     beta=0.70
     Davidson diagonalization with overlap
     ethr =  1.05E-06,  avg # of iterations =  5.0

     total cpu time spent up to now is       16.9 secs

     total energy              =    -329.45003575 Ry
     Harris-Foulkes estimate   =    -329.45012643 Ry
     estimated scf accuracy    <       0.00325929 Ry

     iteration # 77     ecut=    30.00 Ry     beta=0.70
     Davidson diagonalization with overlap
     ethr =  1.05E-06,  avg # of iterations =  1.0

     total cpu time spent up to now is       17.0 secs

     total energy              =    -329.44977651 Ry
     Harris-Foulkes estimate   =    -329.45005264 Ry
     estimated scf accuracy    <       0.00222458 Ry

     iteration # 78     ecut=    30.00 Ry     beta=0.70
     Davidson diagonalization with overlap
     ethr =  1.05E-06,  avg # of iterations =  3.0

     total cpu time spent up to now is       17.3 secs

     total energy              =    -329.45209612 Ry
     Harris-Foulkes estimate   =    -329.45070240 Ry
     estimated scf accuracy    <       0.00551547 Ry

     iteration # 79     ecut=    30.00 Ry     beta=0.70
     Davidson diagonalization with overlap
     ethr =  1.05E-06,  avg # of iterations =  4.0

     total cpu time spent up to now is       17.5 secs

     total energy              =    -329.45119392 Ry
     Harris-Foulkes estimate   =    -329.45199151 Ry
     estimated scf accuracy    <       0.00312060 Ry

     iteration # 80     ecut=    30.00 Ry     beta=0.70
     Davidson diagonalization with overlap
     ethr =  1.05E-06,  avg # of iterations =  3.0

     total cpu time spent up to now is       17.7 secs

     total energy              =    -329.45145733 Ry
     Harris-Foulkes estimate   =    -329.45092313 Ry
     estimated scf accuracy    <       0.00590920 Ry

     iteration # 81     ecut=    30.00 Ry     beta=0.70
     Davidson diagonalization with overlap
     ethr =  1.05E-06,  avg # of iterations =  1.0

     total cpu time spent up to now is       17.9 secs

     total energy              =    -329.45205159 Ry
     Harris-Foulkes estimate   =    -329.45143448 Ry
     estimated scf accuracy    <       0.00496867 Ry

     iteration # 82     ecut=    30.00 Ry     beta=0.70
     Davidson diagonalization with overlap
     ethr =  1.05E-06,  avg # of iterations =  2.0

     total cpu time spent up to now is       18.1 secs

     total energy              =    -329.45160489 Ry
     Harris-Foulkes estimate   =    -329.45197425 Ry
     estimated scf accuracy    <       0.00295894 Ry

     iteration # 83     ecut=    30.00 Ry     beta=0.70
     Davidson diagonalization with overlap
     ethr =  1.05E-06,  avg # of iterations =  2.0

     total cpu time spent up to now is       18.3 secs

     total energy              =    -329.45134022 Ry
     Harris-Foulkes estimate   =    -329.45153480 Ry
     estimated scf accuracy    <       0.00496789 Ry

     iteration # 84     ecut=    30.00 Ry     beta=0.70
     Davidson diagonalization with overlap
     ethr =  1.05E-06,  avg # of iterations =  1.0

     total cpu time spent up to now is       18.5 secs

     total energy              =    -329.45135753 Ry
     Harris-Foulkes estimate   =    -329.45133373 Ry
     estimated scf accuracy    <       0.00564654 Ry

     iteration # 85     ecut=    30.00 Ry     beta=0.70
     Davidson diagonalization with overlap
     ethr =  1.05E-06,  avg # of iterations =  1.0

     total cpu time spent up to now is       18.7 secs

     total energy              =    -329.45150791 Ry
     Harris-Foulkes estimate   =    -329.45135880 Ry
     estimated scf accuracy    <       0.00553927 Ry

     iteration # 86     ecut=    30.00 Ry     beta=0.70
     Davidson diagonalization with overlap
     ethr =  1.05E-06,  avg # of iterations =  1.0

     total cpu time spent up to now is       18.9 secs

     total energy              =    -329.45358790 Ry
     Harris-Foulkes estimate   =    -329.45150434 Ry
     estimated scf accuracy    <       0.00499167 Ry

     iteration # 87     ecut=    30.00 Ry     beta=0.70
     Davidson diagonalization with overlap
     ethr =  1.05E-06,  avg # of iterations =  4.0

     total cpu time spent up to now is       19.1 secs

     total energy              =    -329.45291474 Ry
     Harris-Foulkes estimate   =    -329.45275277 Ry
     estimated scf accuracy    <       0.00106764 Ry

     iteration # 88     ecut=    30.00 Ry     beta=0.70
     Davidson diagonalization with overlap
     ethr =  1.05E-06,  avg # of iterations =  2.0

     total cpu time spent up to now is       19.3 secs

     total energy              =    -329.45313314 Ry
     Harris-Foulkes estimate   =    -329.45291438 Ry
     estimated scf accuracy    <       0.00085136 Ry

     iteration # 89     ecut=    30.00 Ry     beta=0.70
     Davidson diagonalization with overlap
     ethr =  1.05E-06,  avg # of iterations =  1.0

     total cpu time spent up to now is       19.5 secs

     total energy              =    -329.45306045 Ry
     Harris-Foulkes estimate   =    -329.45313150 Ry
     estimated scf accuracy    <       0.00112839 Ry

     iteration # 90     ecut=    30.00 Ry     beta=0.70
     Davidson diagonalization with overlap
     ethr =  1.05E-06,  avg # of iterations =  1.0

     total cpu time spent up to now is       19.7 secs

     total energy              =    -329.45284160 Ry
     Harris-Foulkes estimate   =    -329.45306257 Ry
     estimated scf accuracy    <       0.00104161 Ry

     iteration # 91     ecut=    30.00 Ry     beta=0.70
     Davidson diagonalization with overlap
     ethr =  1.05E-06,  avg # of iterations =  1.0

     total cpu time spent up to now is       19.9 secs

     total energy              =    -329.45238142 Ry
     Harris-Foulkes estimate   =    -329.45282361 Ry
     estimated scf accuracy    <       0.00097508 Ry

     iteration # 92     ecut=    30.00 Ry     beta=0.70
     Davidson diagonalization with overlap
     ethr =  1.05E-06,  avg # of iterations =  3.0

     total cpu time spent up to now is       20.1 secs

     total energy              =    -329.45115804 Ry
     Harris-Foulkes estimate   =    -329.45196528 Ry
     estimated scf accuracy    <       0.00363835 Ry

     iteration # 93     ecut=    30.00 Ry     beta=0.70
     Davidson diagonalization with overlap
     ethr =  1.05E-06,  avg # of iterations =  4.0

     total cpu time spent up to now is       20.3 secs

     total energy              =    -329.46019699 Ry
     Harris-Foulkes estimate   =    -329.45094976 Ry
     estimated scf accuracy    <       0.00579884 Ry

     iteration # 94     ecut=    30.00 Ry     beta=0.70
     Davidson diagonalization with overlap
     ethr =  1.05E-06,  avg # of iterations =  6.0

     total cpu time spent up to now is       20.7 secs

     total energy              =    -329.45457208 Ry
     Harris-Foulkes estimate   =    -329.45580505 Ry
     estimated scf accuracy    <       0.00979174 Ry

     iteration # 95     ecut=    30.00 Ry     beta=0.70
     Davidson diagonalization with overlap
     ethr =  1.05E-06,  avg # of iterations =  2.0

     total cpu time spent up to now is       20.9 secs

     total energy              =    -329.45457595 Ry
     Harris-Foulkes estimate   =    -329.45467156 Ry
     estimated scf accuracy    <       0.00581254 Ry

     iteration # 96     ecut=    30.00 Ry     beta=0.70
     Davidson diagonalization with overlap
     ethr =  1.05E-06,  avg # of iterations =  1.0

     total cpu time spent up to now is       21.1 secs

     total energy              =    -329.45348534 Ry
     Harris-Foulkes estimate   =    -329.45459679 Ry
     estimated scf accuracy    <       0.00541267 Ry

     iteration # 97     ecut=    30.00 Ry     beta=0.70
     Davidson diagonalization with overlap
     ethr =  1.05E-06,  avg # of iterations =  3.0

     total cpu time spent up to now is       21.3 secs

     total energy              =    -329.45336415 Ry
     Harris-Foulkes estimate   =    -329.45362893 Ry
     estimated scf accuracy    <       0.00221512 Ry

     iteration # 98     ecut=    30.00 Ry     beta=0.70
     Davidson diagonalization with overlap
     ethr =  1.05E-06,  avg # of iterations =  1.0

     total cpu time spent up to now is       21.5 secs

     total energy              =    -329.45291707 Ry
     Harris-Foulkes estimate   =    -329.45337719 Ry
     estimated scf accuracy    <       0.00153992 Ry

     iteration # 99     ecut=    30.00 Ry     beta=0.70
     Davidson diagonalization with overlap
     ethr =  1.05E-06,  avg # of iterations =  2.0

     total cpu time spent up to now is       21.7 secs

     total energy              =    -329.45281363 Ry
     Harris-Foulkes estimate   =    -329.45296203 Ry
     estimated scf accuracy    <       0.00071637 Ry

     iteration #100     ecut=    30.00 Ry     beta=0.70
     Davidson diagonalization with overlap
     ethr =  1.05E-06,  avg # of iterations =  1.0

     total cpu time spent up to now is       21.9 secs

     total energy              =    -329.45263743 Ry
     Harris-Foulkes estimate   =    -329.45280946 Ry
     estimated scf accuracy    <       0.00061583 Ry

     End of self-consistent calculation

     convergence NOT achieved after 100 iterations: stopping

     Writing output data file pwscf.save
 
     init_run     :      0.16s CPU      0.18s WALL (       1 calls)
     electrons    :     19.61s CPU     21.54s WALL (       1 calls)

     Called by init_run:
     wfcinit      :      0.07s CPU      0.08s WALL (       1 calls)
     potinit      :      0.03s CPU      0.03s WALL (       1 calls)

     Called by electrons:
     c_bands      :     14.18s CPU     14.65s WALL (     101 calls)
     sum_band     :      2.34s CPU      2.40s WALL (     101 calls)
     v_of_rho     :      1.84s CPU      1.85s WALL (     101 calls)
     mix_rho      :      1.15s CPU      2.46s WALL (     101 calls)

     Called by c_bands:
     init_us_2    :      0.31s CPU      0.32s WALL (     203 calls)
     cegterg      :     12.44s CPU     12.83s WALL (     101 calls)

     Called by sum_band:

     Called by *egterg:
     h_psi        :      9.84s CPU      9.94s WALL (     324 calls)
     g_psi        :      0.09s CPU      0.09s WALL (     222 calls)
     cdiaghg      :      0.68s CPU      0.69s WALL (     322 calls)

     Called by h_psi:
     h_psi:pot    :      9.69s CPU      9.78s WALL (     324 calls)
     h_psi:calbec :      0.55s CPU      0.56s WALL (     324 calls)
     vloc_psi     :      8.52s CPU      8.61s WALL (     324 calls)
     add_vuspsi   :      0.61s CPU      0.62s WALL (     324 calls)

     General routines
     calbec       :      0.55s CPU      0.56s WALL (     324 calls)
     fft          :      0.97s CPU      0.98s WALL (    1113 calls)
     fftw         :      9.28s CPU      9.38s WALL (   19802 calls)
     davcio       :      0.18s CPU      1.05s WALL (    1928 calls)
 
     Parallel routines
     fft_scatter  :      2.45s CPU      2.32s WALL (   20915 calls)
 
     PWSCF        :    19.86s CPU        21.95s WALL

 
   This run was terminated on:   0:44:28   4Aug2017            

=------------------------------------------------------------------------------=
   JOB DONE.
=------------------------------------------------------------------------------=
