
     Program PWSCF v.6.0 (svn rev. 13079) starts on  3Aug2017 at 21:33: 2 

     This program is part of the open-source Quantum ESPRESSO suite
     for quantum simulation of materials; please cite
         "P. Giannozzi et al., J. Phys.:Condens. Matter 21 395502 (2009);
          URL http://www.quantum-espresso.org", 
     in publications or presentations arising from this work. More details at
     http://www.quantum-espresso.org/quote

     Parallel version (MPI), running on    10 processors
     R & G space division:  proc/nbgrp/npool/nimage =      10
     Reading input from input/multi/minchecks-Gold5-485.in

     Current dimensions of program PWSCF are:
     Max number of different atomic species (ntypx) = 10
     Max number of k-points (npk) =  40000
     Max angular momentum in pseudopotentials (lmaxx) =  3
     Message from routine iosys:
     pot_extrapolation='second-order' not available, using 'atomic'
     Message from routine iosys:
     wfc_extrapolation='second-order' not available, using 'atomic'

     Subspace diagonalization in iterative solution of the eigenvalue problem:
     a serial algorithm will be used

 
     Parallelization info
     --------------------
     sticks:   dense  smooth     PW     G-vecs:    dense   smooth      PW
     Min         380     380     94                17748    17748    2208
     Max         381     381     95                17753    17753    2213
     Sum        3809    3809    949               177509   177509   22119
 


     bravais-lattice index     =            1
     lattice parameter (alat)  =      20.0000  a.u.
     unit-cell volume          =    8000.0000 (a.u.)^3
     number of atoms/cell      =            5
     number of atomic types    =            1
     number of electrons       =        55.00
     number of Kohn-Sham states=           34
     kinetic-energy cutoff     =      30.0000  Ry
     charge density cutoff     =     120.0000  Ry
     convergence threshold     =      1.0E-08
     mixing beta               =       0.7000
     number of iterations used =            8  plain     mixing
     Exchange-correlation      = BLYP ( 1  3  1  3 0 0)
     nstep                     =           50


     celldm(1)=  20.000000  celldm(2)=   0.000000  celldm(3)=   0.000000
     celldm(4)=   0.000000  celldm(5)=   0.000000  celldm(6)=   0.000000

     crystal axes: (cart. coord. in units of alat)
               a(1) = (   1.000000   0.000000   0.000000 )  
               a(2) = (   0.000000   1.000000   0.000000 )  
               a(3) = (   0.000000   0.000000   1.000000 )  

     reciprocal axes: (cart. coord. in units 2 pi/alat)
               b(1) = (  1.000000  0.000000  0.000000 )  
               b(2) = (  0.000000  1.000000  0.000000 )  
               b(3) = (  0.000000  0.000000  1.000000 )  


     PseudoPot. # 1 for Au read from file:
     ./Au.blyp-d-hgh.UPF
     MD5 check sum: c10d8bae01f806c36a1643a1c69a8479
     Pseudo is Norm-conserving, Zval = 11.0
     Generated in analytical, separable form
     Using radial grid of 1279 points,  6 beta functions with: 
                l(1) =   0
                l(2) =   0
                l(3) =   1
                l(4) =   1
                l(5) =   2
                l(6) =   2

     atomic species   valence    mass     pseudopotential
        Au            11.00    28.08600     Au( 1.00)

     No symmetry found



   Cartesian axes

     site n.     atom                  positions (alat units)
         1           Au  tau(   1) = (  -0.1120864   0.0572075  -0.0214060  )
         2           Au  tau(   2) = (   0.0000580   0.1096440   0.2038644  )
         3           Au  tau(   3) = (   0.1382402   0.0519509   0.0027687  )
         4           Au  tau(   4) = (   0.2176004   0.2104913   0.2803927  )
         5           Au  tau(   5) = (   0.3529005   0.0536662   0.1210607  )

     number of k points=     1  Marzari-Vanderbilt smearing, width (Ry)=  0.0250
                       cart. coord. in units 2pi/alat
        k(    1) = (   0.0000000   0.0000000   0.0000000), wk =   2.0000000

     Dense  grid:   177509 G-vectors     FFT dimensions: (  72,  72,  72)

     Estimated max dynamical RAM per process >      15.04Mb

     Estimated total allocated dynamical RAM >     150.39Mb

     Initial potential from superposition of free atoms
     Check: negative starting charge=   -0.006380

     starting charge   54.99940, renormalised to   55.00000

     negative rho (up, down):  6.380E-03 0.000E+00
     Starting wfc are   45 randomized atomic wfcs

     total cpu time spent up to now is        0.3 secs

     per-process dynamical memory:    41.0 Mb

     Self-consistent Calculation

     iteration #  1     ecut=    30.00 Ry     beta=0.70
     Davidson diagonalization with overlap
     ethr =  1.00E-02,  avg # of iterations =  3.0

     Threshold (ethr) on eigenvalues was too large:
     Diagonalizing with lowered threshold

     Davidson diagonalization with overlap
     ethr =  4.20E-04,  avg # of iterations =  7.0

     negative rho (up, down):  8.464E-04 0.000E+00

     total cpu time spent up to now is        0.8 secs

     total energy              =    -329.35991975 Ry
     Harris-Foulkes estimate   =    -329.53389856 Ry
     estimated scf accuracy    <       0.28986516 Ry

     iteration #  2     ecut=    30.00 Ry     beta=0.70
     Davidson diagonalization with overlap
     ethr =  5.27E-04,  avg # of iterations =  4.0

     negative rho (up, down):  3.348E-04 0.000E+00

     total cpu time spent up to now is        1.0 secs

     total energy              =    -329.43141897 Ry
     Harris-Foulkes estimate   =    -329.53326967 Ry
     estimated scf accuracy    <       0.19931804 Ry

     iteration #  3     ecut=    30.00 Ry     beta=0.70
     Davidson diagonalization with overlap
     ethr =  3.62E-04,  avg # of iterations =  2.0

     negative rho (up, down):  1.323E-04 0.000E+00

     total cpu time spent up to now is        1.3 secs

     total energy              =    -329.46924414 Ry
     Harris-Foulkes estimate   =    -329.47942808 Ry
     estimated scf accuracy    <       0.02311840 Ry

     iteration #  4     ecut=    30.00 Ry     beta=0.70
     Davidson diagonalization with overlap
     ethr =  4.20E-05,  avg # of iterations =  3.0

     negative rho (up, down):  4.123E-06 0.000E+00

     total cpu time spent up to now is        1.5 secs

     total energy              =    -329.47391665 Ry
     Harris-Foulkes estimate   =    -329.47520721 Ry
     estimated scf accuracy    <       0.00315672 Ry

     iteration #  5     ecut=    30.00 Ry     beta=0.70
     Davidson diagonalization with overlap
     ethr =  5.74E-06,  avg # of iterations =  4.0

     total cpu time spent up to now is        1.8 secs

     total energy              =    -329.47370313 Ry
     Harris-Foulkes estimate   =    -329.47610590 Ry
     estimated scf accuracy    <       0.00919582 Ry

     iteration #  6     ecut=    30.00 Ry     beta=0.70
     Davidson diagonalization with overlap
     ethr =  5.74E-06,  avg # of iterations =  2.0

     total cpu time spent up to now is        2.0 secs

     total energy              =    -329.47486008 Ry
     Harris-Foulkes estimate   =    -329.47506218 Ry
     estimated scf accuracy    <       0.00065574 Ry

     iteration #  7     ecut=    30.00 Ry     beta=0.70
     Davidson diagonalization with overlap
     ethr =  1.19E-06,  avg # of iterations =  2.0

     total cpu time spent up to now is        2.2 secs

     total energy              =    -329.47496305 Ry
     Harris-Foulkes estimate   =    -329.47497184 Ry
     estimated scf accuracy    <       0.00002401 Ry

     iteration #  8     ecut=    30.00 Ry     beta=0.70
     Davidson diagonalization with overlap
     ethr =  4.37E-08,  avg # of iterations =  3.0

     total cpu time spent up to now is        2.5 secs

     total energy              =    -329.47496889 Ry
     Harris-Foulkes estimate   =    -329.47497209 Ry
     estimated scf accuracy    <       0.00000569 Ry

     iteration #  9     ecut=    30.00 Ry     beta=0.70
     Davidson diagonalization with overlap
     ethr =  1.03E-08,  avg # of iterations =  2.0

     total cpu time spent up to now is        2.7 secs

     total energy              =    -329.47496974 Ry
     Harris-Foulkes estimate   =    -329.47497023 Ry
     estimated scf accuracy    <       0.00000062 Ry

     iteration # 10     ecut=    30.00 Ry     beta=0.70
     Davidson diagonalization with overlap
     ethr =  1.12E-09,  avg # of iterations =  2.0

     total cpu time spent up to now is        2.9 secs

     total energy              =    -329.47496980 Ry
     Harris-Foulkes estimate   =    -329.47496992 Ry
     estimated scf accuracy    <       0.00000017 Ry

     iteration # 11     ecut=    30.00 Ry     beta=0.70
     Davidson diagonalization with overlap
     ethr =  3.11E-10,  avg # of iterations =  2.0

     total cpu time spent up to now is        3.2 secs

     total energy              =    -329.47496979 Ry
     Harris-Foulkes estimate   =    -329.47496984 Ry
     estimated scf accuracy    <       0.00000002 Ry

     iteration # 12     ecut=    30.00 Ry     beta=0.70
     Davidson diagonalization with overlap
     ethr =  3.46E-11,  avg # of iterations =  2.0

     total cpu time spent up to now is        3.4 secs

     End of self-consistent calculation

          k = 0.0000 0.0000 0.0000 ( 22119 PWs)   bands (ev):

    -8.4519  -7.7743  -7.6698  -7.4089  -6.9648  -6.7973  -6.6057  -6.5467
    -6.2214  -6.0115  -5.9574  -5.7300  -5.7040  -5.5697  -5.5448  -5.4626
    -5.2313  -5.1906  -5.1805  -5.1154  -5.1008  -4.9573  -4.9245  -4.9038
    -4.8208  -4.5538  -4.2791  -3.7551  -2.4454  -2.1308  -0.4412  -0.2248
     0.4243   0.7351

     the Fermi energy is    -3.7543 ev

!    total energy              =    -329.47496977 Ry
     Harris-Foulkes estimate   =    -329.47496980 Ry
     estimated scf accuracy    <          4.4E-09 Ry

     The total energy is the sum of the following terms:

     one-electron contribution =    -612.46572503 Ry
     hartree contribution      =     327.75793138 Ry
     xc contribution           =     -51.45164448 Ry
     ewald contribution        =       6.68230020 Ry
     smearing contrib. (-TS)   =       0.00216817 Ry

     convergence has been achieved in  12 iterations

     Forces acting on atoms (Ry/au):

     atom    1 type  1   force =    -0.01011202   -0.00354643   -0.00402089
     atom    2 type  1   force =    -0.02137997    0.00760867    0.01263008
     atom    3 type  1   force =    -0.00276824   -0.00562178   -0.02504285
     atom    4 type  1   force =     0.01374151   -0.00628684   -0.00018163
     atom    5 type  1   force =     0.02051871    0.00784638    0.01661529

     Total force =     0.049588     Total SCF correction =     0.000270

     BFGS Geometry Optimization

     number of scf cycles    =   1
     number of bfgs steps    =   0

     energy   new            =    -329.4749697713 Ry

     new trust radius        =       0.0275436216 bohr
     new conv_thr            =       0.0000000100 Ry


ATOMIC_POSITIONS (bohr)
Au      -2.251841020   1.140604574  -0.432140886
Au      -0.020220965   2.200487665   4.089918076
Au       2.762035762   1.033396223   0.030330153
Au       4.365749509   4.203540160   5.607673369
Au       7.078529714   1.081169378   2.437829289



     Writing output data file pwscf.save
     Check: negative starting charge=   -0.006380
     NEW-OLD atomic charge density approx. for the potential
     Check: negative starting charge=   -0.006361

     negative rho (up, down):  2.049E-04 0.000E+00

     total cpu time spent up to now is        3.7 secs

     per-process dynamical memory:    42.9 Mb

     Self-consistent Calculation

     iteration #  1     ecut=    30.00 Ry     beta=0.70
     Davidson diagonalization with overlap
     ethr =  1.00E-06,  avg # of iterations =  4.0

     negative rho (up, down):  4.036E-06 0.000E+00

     total cpu time spent up to now is        4.0 secs

     total energy              =    -329.47699690 Ry
     Harris-Foulkes estimate   =    -329.47702124 Ry
     estimated scf accuracy    <       0.00021335 Ry

     iteration #  2     ecut=    30.00 Ry     beta=0.70
     Davidson diagonalization with overlap
     ethr =  3.88E-07,  avg # of iterations =  3.0

     negative rho (up, down):  1.753E-06 0.000E+00

     total cpu time spent up to now is        4.3 secs

     total energy              =    -329.47683491 Ry
     Harris-Foulkes estimate   =    -329.47731732 Ry
     estimated scf accuracy    <       0.00181946 Ry

     iteration #  3     ecut=    30.00 Ry     beta=0.70
     Davidson diagonalization with overlap
     ethr =  3.88E-07,  avg # of iterations =  3.0

     negative rho (up, down):  3.255E-08 0.000E+00

     total cpu time spent up to now is        4.5 secs

     total energy              =    -329.47708537 Ry
     Harris-Foulkes estimate   =    -329.47710532 Ry
     estimated scf accuracy    <       0.00008777 Ry

     iteration #  4     ecut=    30.00 Ry     beta=0.70
     Davidson diagonalization with overlap
     ethr =  1.60E-07,  avg # of iterations =  2.0

     total cpu time spent up to now is        4.7 secs

     total energy              =    -329.47709768 Ry
     Harris-Foulkes estimate   =    -329.47710276 Ry
     estimated scf accuracy    <       0.00001446 Ry

     iteration #  5     ecut=    30.00 Ry     beta=0.70
     Davidson diagonalization with overlap
     ethr =  2.63E-08,  avg # of iterations =  2.0

     total cpu time spent up to now is        4.9 secs

     total energy              =    -329.47710074 Ry
     Harris-Foulkes estimate   =    -329.47710141 Ry
     estimated scf accuracy    <       0.00000177 Ry

     iteration #  6     ecut=    30.00 Ry     beta=0.70
     Davidson diagonalization with overlap
     ethr =  3.22E-09,  avg # of iterations =  2.0

     total cpu time spent up to now is        5.2 secs

     total energy              =    -329.47710122 Ry
     Harris-Foulkes estimate   =    -329.47710117 Ry
     estimated scf accuracy    <       0.00000008 Ry

     iteration #  7     ecut=    30.00 Ry     beta=0.70
     Davidson diagonalization with overlap
     ethr =  1.53E-10,  avg # of iterations =  2.0

     total cpu time spent up to now is        5.4 secs

     total energy              =    -329.47710119 Ry
     Harris-Foulkes estimate   =    -329.47710125 Ry
     estimated scf accuracy    <       0.00000002 Ry

     iteration #  8     ecut=    30.00 Ry     beta=0.70
     Davidson diagonalization with overlap
     ethr =  4.44E-11,  avg # of iterations =  2.0

     total cpu time spent up to now is        5.6 secs

     End of self-consistent calculation

          k = 0.0000 0.0000 0.0000 ( 22119 PWs)   bands (ev):

    -8.3939  -7.7203  -7.6214  -7.3644  -6.9758  -6.7590  -6.5835  -6.5091
    -6.2165  -6.0104  -5.9595  -5.7103  -5.6984  -5.5711  -5.5487  -5.4627
    -5.2294  -5.1894  -5.1834  -5.1182  -5.1034  -4.9657  -4.9311  -4.9127
    -4.8346  -4.5558  -4.2990  -3.7557  -2.4641  -2.1521  -0.4387  -0.2265
     0.4190   0.7218

     the Fermi energy is    -3.7527 ev

!    total energy              =    -329.47710117 Ry
     Harris-Foulkes estimate   =    -329.47710120 Ry
     estimated scf accuracy    <          3.5E-09 Ry

     The total energy is the sum of the following terms:

     one-electron contribution =    -609.94618328 Ry
     hartree contribution      =     326.50807757 Ry
     xc contribution           =     -51.43954215 Ry
     ewald contribution        =       5.39877559 Ry
     smearing contrib. (-TS)   =       0.00177110 Ry

     convergence has been achieved in   8 iterations

     Forces acting on atoms (Ry/au):

     atom    1 type  1   force =    -0.00794291   -0.00297400   -0.00270860
     atom    2 type  1   force =    -0.01646751    0.00691934    0.00772312
     atom    3 type  1   force =    -0.00035977   -0.00464710   -0.01696622
     atom    4 type  1   force =     0.01066203   -0.00687651   -0.00083276
     atom    5 type  1   force =     0.01410817    0.00757827    0.01278446

     Total force =     0.036730     Total SCF correction =     0.000287

     number of scf cycles    =   2
     number of bfgs steps    =   1

     energy   old            =    -329.4749697713 Ry
     energy   new            =    -329.4771011734 Ry

     CASE: energy  _new < energy  _old

     new trust radius        =       0.0302979838 bohr
     new conv_thr            =       0.0000000017 Ry


ATOMIC_POSITIONS (bohr)
Au      -2.263561915   1.136226876  -0.436163741
Au      -0.044539938   2.210643783   4.101441339
Au       2.761400252   1.026552096   0.005138145
Au       4.381490453   4.193504627   5.606484298
Au       7.099464149   1.092270618   2.456709960



     Writing output data file pwscf.save
     Check: negative starting charge=   -0.006361
     NEW-OLD atomic charge density approx. for the potential
     Check: negative starting charge=   -0.006349

     negative rho (up, down):  2.517E-04 0.000E+00

     total cpu time spent up to now is        5.8 secs

     per-process dynamical memory:    50.7 Mb

     Self-consistent Calculation

     iteration #  1     ecut=    30.00 Ry     beta=0.70
     Davidson diagonalization with overlap
     ethr =  1.00E-06,  avg # of iterations =  4.0

     negative rho (up, down):  5.924E-06 0.000E+00

     total cpu time spent up to now is        6.2 secs

     total energy              =    -329.47864924 Ry
     Harris-Foulkes estimate   =    -329.47866921 Ry
     estimated scf accuracy    <       0.00025366 Ry

     iteration #  2     ecut=    30.00 Ry     beta=0.70
     Davidson diagonalization with overlap
     ethr =  4.61E-07,  avg # of iterations =  3.0

     negative rho (up, down):  2.589E-06 0.000E+00

     total cpu time spent up to now is        6.4 secs

     total energy              =    -329.47847943 Ry
     Harris-Foulkes estimate   =    -329.47900561 Ry
     estimated scf accuracy    <       0.00189732 Ry

     iteration #  3     ecut=    30.00 Ry     beta=0.70
     Davidson diagonalization with overlap
     ethr =  4.61E-07,  avg # of iterations =  3.0

     negative rho (up, down):  4.929E-08 0.000E+00

     total cpu time spent up to now is        6.7 secs

     total energy              =    -329.47875254 Ry
     Harris-Foulkes estimate   =    -329.47877797 Ry
     estimated scf accuracy    <       0.00010579 Ry

     iteration #  4     ecut=    30.00 Ry     beta=0.70
     Davidson diagonalization with overlap
     ethr =  1.92E-07,  avg # of iterations =  2.0

     total cpu time spent up to now is        6.9 secs

     total energy              =    -329.47876808 Ry
     Harris-Foulkes estimate   =    -329.47877306 Ry
     estimated scf accuracy    <       0.00001578 Ry

     iteration #  5     ecut=    30.00 Ry     beta=0.70
     Davidson diagonalization with overlap
     ethr =  2.87E-08,  avg # of iterations =  2.0

     total cpu time spent up to now is        7.1 secs

     total energy              =    -329.47877146 Ry
     Harris-Foulkes estimate   =    -329.47877253 Ry
     estimated scf accuracy    <       0.00000261 Ry

     iteration #  6     ecut=    30.00 Ry     beta=0.70
     Davidson diagonalization with overlap
     ethr =  4.75E-09,  avg # of iterations =  2.0

     total cpu time spent up to now is        7.3 secs

     total energy              =    -329.47877195 Ry
     Harris-Foulkes estimate   =    -329.47877205 Ry
     estimated scf accuracy    <       0.00000011 Ry

     iteration #  7     ecut=    30.00 Ry     beta=0.70
     Davidson diagonalization with overlap
     ethr =  2.05E-10,  avg # of iterations =  3.0

     total cpu time spent up to now is        7.5 secs

     total energy              =    -329.47877185 Ry
     Harris-Foulkes estimate   =    -329.47877198 Ry
     estimated scf accuracy    <       0.00000002 Ry

     iteration #  8     ecut=    30.00 Ry     beta=0.70
     Davidson diagonalization with overlap
     ethr =  4.20E-11,  avg # of iterations =  3.0

     total cpu time spent up to now is        7.8 secs

     total energy              =    -329.47877184 Ry
     Harris-Foulkes estimate   =    -329.47877186 Ry
     estimated scf accuracy    <          6.0E-09 Ry

     iteration #  9     ecut=    30.00 Ry     beta=0.70
     Davidson diagonalization with overlap
     ethr =  1.10E-11,  avg # of iterations =  2.0

     total cpu time spent up to now is        8.0 secs

     End of self-consistent calculation

          k = 0.0000 0.0000 0.0000 ( 22119 PWs)   bands (ev):

    -8.3356  -7.6685  -7.5763  -7.3226  -6.9941  -6.7209  -6.5675  -6.4714
    -6.2159  -6.0159  -5.9615  -5.6932  -5.6918  -5.5758  -5.5518  -5.4637
    -5.2284  -5.1913  -5.1858  -5.1213  -5.1066  -4.9762  -4.9389  -4.9225
    -4.8512  -4.5594  -4.3207  -3.7552  -2.4860  -2.1727  -0.4373  -0.2284
     0.4124   0.7084

     the Fermi energy is    -3.7487 ev

!    total energy              =    -329.47877186 Ry
     Harris-Foulkes estimate   =    -329.47877184 Ry
     estimated scf accuracy    <          7.2E-10 Ry

     The total energy is the sum of the following terms:

     one-electron contribution =    -607.43608939 Ry
     hartree contribution      =     325.25901716 Ry
     xc contribution           =     -51.42704302 Ry
     ewald contribution        =       4.12420728 Ry
     smearing contrib. (-TS)   =       0.00113610 Ry

     convergence has been achieved in   9 iterations

     Forces acting on atoms (Ry/au):

     atom    1 type  1   force =    -0.00521031   -0.00247835   -0.00146974
     atom    2 type  1   force =    -0.01177964    0.00639145    0.00353938
     atom    3 type  1   force =     0.00120545   -0.00348930   -0.00980438
     atom    4 type  1   force =     0.00687785   -0.00705360   -0.00093322
     atom    5 type  1   force =     0.00890665    0.00662980    0.00866796

     Total force =     0.025173     Total SCF correction =     0.000105

     number of scf cycles    =   3
     number of bfgs steps    =   2

     energy   old            =    -329.4771011734 Ry
     energy   new            =    -329.4787718641 Ry

     CASE: energy  _new < energy  _old

     new trust radius        =       0.0454469757 bohr
     new conv_thr            =       0.0000000012 Ry


ATOMIC_POSITIONS (bohr)
Au      -2.280623077   1.128756482  -0.441407068
Au      -0.082026984   2.229261723   4.115166355
Au       2.763373789   1.015677521  -0.028948980
Au       4.404168641   4.173684153   5.603991280
Au       7.129360631   1.111818120   2.484808413



     Writing output data file pwscf.save
     Check: negative starting charge=   -0.006349
     NEW-OLD atomic charge density approx. for the potential
     Check: negative starting charge=   -0.006342

     negative rho (up, down):  5.696E-04 0.000E+00

     total cpu time spent up to now is        8.2 secs

     per-process dynamical memory:    50.7 Mb

     Self-consistent Calculation

     iteration #  1     ecut=    30.00 Ry     beta=0.70
     Davidson diagonalization with overlap
     ethr =  1.00E-06,  avg # of iterations =  5.0

     negative rho (up, down):  2.557E-05 0.000E+00

     total cpu time spent up to now is        8.6 secs

     total energy              =    -329.47993674 Ry
     Harris-Foulkes estimate   =    -329.47979912 Ry
     estimated scf accuracy    <       0.00053257 Ry

     iteration #  2     ecut=    30.00 Ry     beta=0.70
     Davidson diagonalization with overlap
     ethr =  9.68E-07,  avg # of iterations =  4.0

     negative rho (up, down):  1.225E-05 0.000E+00

     total cpu time spent up to now is        8.9 secs

     total energy              =    -329.47965383 Ry
     Harris-Foulkes estimate   =    -329.48058617 Ry
     estimated scf accuracy    <       0.00308806 Ry

     iteration #  3     ecut=    30.00 Ry     beta=0.70
     Davidson diagonalization with overlap
     ethr =  9.68E-07,  avg # of iterations =  3.0

     negative rho (up, down):  5.394E-07 0.000E+00

     total cpu time spent up to now is        9.1 secs

     total energy              =    -329.48013582 Ry
     Harris-Foulkes estimate   =    -329.48020092 Ry
     estimated scf accuracy    <       0.00025001 Ry

     iteration #  4     ecut=    30.00 Ry     beta=0.70
     Davidson diagonalization with overlap
     ethr =  4.55E-07,  avg # of iterations =  2.0

     total cpu time spent up to now is        9.3 secs

     total energy              =    -329.48017213 Ry
     Harris-Foulkes estimate   =    -329.48018205 Ry
     estimated scf accuracy    <       0.00003031 Ry

     iteration #  5     ecut=    30.00 Ry     beta=0.70
     Davidson diagonalization with overlap
     ethr =  5.51E-08,  avg # of iterations =  2.0

     total cpu time spent up to now is        9.5 secs

     total energy              =    -329.48017962 Ry
     Harris-Foulkes estimate   =    -329.48018201 Ry
     estimated scf accuracy    <       0.00000738 Ry

     iteration #  6     ecut=    30.00 Ry     beta=0.70
     Davidson diagonalization with overlap
     ethr =  1.34E-08,  avg # of iterations =  2.0

     total cpu time spent up to now is        9.7 secs

     total energy              =    -329.48018081 Ry
     Harris-Foulkes estimate   =    -329.48018118 Ry
     estimated scf accuracy    <       0.00000030 Ry

     iteration #  7     ecut=    30.00 Ry     beta=0.70
     Davidson diagonalization with overlap
     ethr =  5.45E-10,  avg # of iterations =  3.0

     total cpu time spent up to now is        9.9 secs

     total energy              =    -329.48018078 Ry
     Harris-Foulkes estimate   =    -329.48018090 Ry
     estimated scf accuracy    <       0.00000005 Ry

     iteration #  8     ecut=    30.00 Ry     beta=0.70
     Davidson diagonalization with overlap
     ethr =  8.28E-11,  avg # of iterations =  3.0

     total cpu time spent up to now is       10.2 secs

     total energy              =    -329.48018081 Ry
     Harris-Foulkes estimate   =    -329.48018080 Ry
     estimated scf accuracy    <       0.00000002 Ry

     iteration #  9     ecut=    30.00 Ry     beta=0.70
     Davidson diagonalization with overlap
     ethr =  4.01E-11,  avg # of iterations =  3.0

     total cpu time spent up to now is       10.4 secs

     total energy              =    -329.48018082 Ry
     Harris-Foulkes estimate   =    -329.48018082 Ry
     estimated scf accuracy    <          2.0E-09 Ry

     iteration # 10     ecut=    30.00 Ry     beta=0.70
     Davidson diagonalization with overlap
     ethr =  3.64E-12,  avg # of iterations =  3.0

     total cpu time spent up to now is       10.6 secs

     End of self-consistent calculation

          k = 0.0000 0.0000 0.0000 ( 22119 PWs)   bands (ev):

    -8.2582  -7.6037  -7.5225  -7.2765  -7.0207  -6.6718  -6.5543  -6.4253
    -6.2186  -6.0318  -5.9639  -5.6872  -5.6699  -5.5863  -5.5543  -5.4661
    -5.2287  -5.2009  -5.1859  -5.1260  -5.1120  -4.9939  -4.9517  -4.9355
    -4.8778  -4.5663  -4.3536  -3.7536  -2.5195  -2.1991  -0.4370  -0.2313
     0.4017   0.6904

     the Fermi energy is    -3.7409 ev

!    total energy              =    -329.48018082 Ry
     Harris-Foulkes estimate   =    -329.48018082 Ry
     estimated scf accuracy    <          4.3E-10 Ry

     The total energy is the sum of the following terms:

     one-electron contribution =    -604.08676139 Ry
     hartree contribution      =     323.58657158 Ry
     xc contribution           =     -51.40999152 Ry
     ewald contribution        =       2.43005686 Ry
     smearing contrib. (-TS)   =      -0.00005635 Ry

     convergence has been achieved in  10 iterations

     Forces acting on atoms (Ry/au):

     atom    1 type  1   force =    -0.00109173   -0.00180811   -0.00005913
     atom    2 type  1   force =    -0.00529301    0.00560354   -0.00096585
     atom    3 type  1   force =     0.00242998   -0.00148159   -0.00113793
     atom    4 type  1   force =     0.00136390   -0.00676852   -0.00032212
     atom    5 type  1   force =     0.00259087    0.00445468    0.00248502

     Total force =     0.012439     Total SCF correction =     0.000111

     number of scf cycles    =   4
     number of bfgs steps    =   3

     energy   old            =    -329.4787718641 Ry
     energy   new            =    -329.4801808191 Ry

     CASE: energy  _new < energy  _old

     new trust radius        =       0.0323123943 bohr
     new conv_thr            =       0.0000000007 Ry


ATOMIC_POSITIONS (bohr)
Au      -2.290689838   1.122373570  -0.444197421
Au      -0.108578728   2.246731473   4.120989031
Au       2.767629220   1.008147725  -0.048080579
Au       4.417458646   4.154063427   5.602453240
Au       7.148433701   1.127881805   2.502445729



     Writing output data file pwscf.save
     Check: negative starting charge=   -0.006342
     NEW-OLD atomic charge density approx. for the potential
     Check: negative starting charge=   -0.006333

     negative rho (up, down):  2.750E-04 0.000E+00

     total cpu time spent up to now is       10.8 secs

     per-process dynamical memory:    50.7 Mb

     Self-consistent Calculation

     iteration #  1     ecut=    30.00 Ry     beta=0.70
     Davidson diagonalization with overlap
     ethr =  1.00E-06,  avg # of iterations =  4.0

     negative rho (up, down):  6.524E-06 0.000E+00

     total cpu time spent up to now is       11.2 secs

     total energy              =    -329.48045191 Ry
     Harris-Foulkes estimate   =    -329.48046671 Ry
     estimated scf accuracy    <       0.00026202 Ry

     iteration #  2     ecut=    30.00 Ry     beta=0.70
     Davidson diagonalization with overlap
     ethr =  4.76E-07,  avg # of iterations =  3.0

     negative rho (up, down):  2.299E-06 0.000E+00

     total cpu time spent up to now is       11.4 secs

     total energy              =    -329.48034129 Ry
     Harris-Foulkes estimate   =    -329.48073811 Ry
     estimated scf accuracy    <       0.00122509 Ry

     iteration #  3     ecut=    30.00 Ry     beta=0.70
     Davidson diagonalization with overlap
     ethr =  4.76E-07,  avg # of iterations =  3.0

     negative rho (up, down):  4.431E-08 0.000E+00

     total cpu time spent up to now is       11.7 secs

     total energy              =    -329.48054344 Ry
     Harris-Foulkes estimate   =    -329.48058268 Ry
     estimated scf accuracy    <       0.00014204 Ry

     iteration #  4     ecut=    30.00 Ry     beta=0.70
     Davidson diagonalization with overlap
     ethr =  2.58E-07,  avg # of iterations =  2.0

     total cpu time spent up to now is       11.8 secs

     total energy              =    -329.48056474 Ry
     Harris-Foulkes estimate   =    -329.48056732 Ry
     estimated scf accuracy    <       0.00001022 Ry

     iteration #  5     ecut=    30.00 Ry     beta=0.70
     Davidson diagonalization with overlap
     ethr =  1.86E-08,  avg # of iterations =  3.0

     total cpu time spent up to now is       12.1 secs

     total energy              =    -329.48056778 Ry
     Harris-Foulkes estimate   =    -329.48056920 Ry
     estimated scf accuracy    <       0.00000499 Ry

     iteration #  6     ecut=    30.00 Ry     beta=0.70
     Davidson diagonalization with overlap
     ethr =  9.07E-09,  avg # of iterations =  2.0

     total cpu time spent up to now is       12.3 secs

     total energy              =    -329.48056849 Ry
     Harris-Foulkes estimate   =    -329.48056874 Ry
     estimated scf accuracy    <       0.00000020 Ry

     iteration #  7     ecut=    30.00 Ry     beta=0.70
     Davidson diagonalization with overlap
     ethr =  3.67E-10,  avg # of iterations =  3.0

     total cpu time spent up to now is       12.5 secs

     total energy              =    -329.48056861 Ry
     Harris-Foulkes estimate   =    -329.48056855 Ry
     estimated scf accuracy    <       0.00000002 Ry

     iteration #  8     ecut=    30.00 Ry     beta=0.70
     Davidson diagonalization with overlap
     ethr =  4.26E-11,  avg # of iterations =  3.0

     total cpu time spent up to now is       12.8 secs

     total energy              =    -329.48056867 Ry
     Harris-Foulkes estimate   =    -329.48056862 Ry
     estimated scf accuracy    <          8.0E-09 Ry

     iteration #  9     ecut=    30.00 Ry     beta=0.70
     Davidson diagonalization with overlap
     ethr =  1.45E-11,  avg # of iterations =  3.0

     total cpu time spent up to now is       13.0 secs

     total energy              =    -329.48056869 Ry
     Harris-Foulkes estimate   =    -329.48056867 Ry
     estimated scf accuracy    <          2.6E-09 Ry

     iteration # 10     ecut=    30.00 Ry     beta=0.70
     Davidson diagonalization with overlap
     ethr =  4.81E-12,  avg # of iterations =  2.0

     total cpu time spent up to now is       13.2 secs

     End of self-consistent calculation

          k = 0.0000 0.0000 0.0000 ( 22119 PWs)   bands (ev):

    -8.2134  -7.5702  -7.4971  -7.2606  -7.0351  -6.6441  -6.5521  -6.4047
    -6.2208  -6.0469  -5.9662  -5.6841  -5.6593  -5.5923  -5.5548  -5.4675
    -5.2300  -5.2086  -5.1864  -5.1284  -5.1152  -5.0061  -4.9599  -4.9406
    -4.8951  -4.5704  -4.3747  -3.7525  -2.5410  -2.2117  -0.4386  -0.2337
     0.3953   0.6814

     the Fermi energy is    -3.7356 ev

!    total energy              =    -329.48056871 Ry
     Harris-Foulkes estimate   =    -329.48056869 Ry
     estimated scf accuracy    <          1.8E-10 Ry

     The total energy is the sum of the following terms:

     one-electron contribution =    -602.24599876 Ry
     hartree contribution      =     322.66416670 Ry
     xc contribution           =     -51.40049986 Ry
     ewald contribution        =       1.50262992 Ry
     smearing contrib. (-TS)   =      -0.00086670 Ry

     convergence has been achieved in  10 iterations

     Forces acting on atoms (Ry/au):

     atom    1 type  1   force =     0.00156893   -0.00127737    0.00067024
     atom    2 type  1   force =    -0.00176019    0.00476594   -0.00337729
     atom    3 type  1   force =     0.00230311   -0.00028902    0.00342048
     atom    4 type  1   force =    -0.00175523   -0.00612799    0.00042894
     atom    5 type  1   force =    -0.00035662    0.00292843   -0.00114237

     Total force =     0.010473     Total SCF correction =     0.000061

     number of scf cycles    =   5
     number of bfgs steps    =   4

     energy   old            =    -329.4801808191 Ry
     energy   new            =    -329.4805687136 Ry

     CASE: energy  _new < energy  _old

     new trust radius        =       0.0181313286 bohr
     new conv_thr            =       0.0000000004 Ry


ATOMIC_POSITIONS (bohr)
Au      -2.292875589   1.118304137  -0.444613678
Au      -0.121551896   2.259328585   4.119664359
Au       2.771729194   1.004781836  -0.052220647
Au       4.420816876   4.139106818   5.602501405
Au       7.156134414   1.137676623   2.508278560



     Writing output data file pwscf.save
     Check: negative starting charge=   -0.006333
     NEW-OLD atomic charge density approx. for the potential
     Check: negative starting charge=   -0.006329

     negative rho (up, down):  5.391E-05 0.000E+00

     total cpu time spent up to now is       13.4 secs

     per-process dynamical memory:    50.7 Mb

     Self-consistent Calculation

     iteration #  1     ecut=    30.00 Ry     beta=0.70
     Davidson diagonalization with overlap
     ethr =  1.00E-06,  avg # of iterations =  4.0

     negative rho (up, down):  2.236E-07 0.000E+00

     total cpu time spent up to now is       13.8 secs

     total energy              =    -329.48069466 Ry
     Harris-Foulkes estimate   =    -329.48072288 Ry
     estimated scf accuracy    <       0.00007977 Ry

     iteration #  2     ecut=    30.00 Ry     beta=0.70
     Davidson diagonalization with overlap
     ethr =  1.45E-07,  avg # of iterations =  3.0

     negative rho (up, down):  3.561E-08 0.000E+00

     total cpu time spent up to now is       14.0 secs

     total energy              =    -329.48067163 Ry
     Harris-Foulkes estimate   =    -329.48077068 Ry
     estimated scf accuracy    <       0.00027795 Ry

     iteration #  3     ecut=    30.00 Ry     beta=0.70
     Davidson diagonalization with overlap
     ethr =  1.45E-07,  avg # of iterations =  3.0

     total cpu time spent up to now is       14.3 secs

     total energy              =    -329.48071944 Ry
     Harris-Foulkes estimate   =    -329.48073622 Ry
     estimated scf accuracy    <       0.00005897 Ry

     iteration #  4     ecut=    30.00 Ry     beta=0.70
     Davidson diagonalization with overlap
     ethr =  1.07E-07,  avg # of iterations =  1.0

     total cpu time spent up to now is       14.4 secs

     total energy              =    -329.48072871 Ry
     Harris-Foulkes estimate   =    -329.48072823 Ry
     estimated scf accuracy    <       0.00000162 Ry

     iteration #  5     ecut=    30.00 Ry     beta=0.70
     Davidson diagonalization with overlap
     ethr =  2.94E-09,  avg # of iterations =  3.0

     total cpu time spent up to now is       14.7 secs

     total energy              =    -329.48072898 Ry
     Harris-Foulkes estimate   =    -329.48072972 Ry
     estimated scf accuracy    <       0.00000140 Ry

     iteration #  6     ecut=    30.00 Ry     beta=0.70
     Davidson diagonalization with overlap
     ethr =  2.54E-09,  avg # of iterations =  2.0

     total cpu time spent up to now is       14.9 secs

     total energy              =    -329.48072928 Ry
     Harris-Foulkes estimate   =    -329.48072924 Ry
     estimated scf accuracy    <       0.00000009 Ry

     iteration #  7     ecut=    30.00 Ry     beta=0.70
     Davidson diagonalization with overlap
     ethr =  1.63E-10,  avg # of iterations =  3.0

     total cpu time spent up to now is       15.1 secs

     total energy              =    -329.48072936 Ry
     Harris-Foulkes estimate   =    -329.48072930 Ry
     estimated scf accuracy    <          9.5E-09 Ry

     iteration #  8     ecut=    30.00 Ry     beta=0.70
     Davidson diagonalization with overlap
     ethr =  1.73E-11,  avg # of iterations =  2.0

     total cpu time spent up to now is       15.3 secs

     total energy              =    -329.48072933 Ry
     Harris-Foulkes estimate   =    -329.48072936 Ry
     estimated scf accuracy    <          2.6E-09 Ry

     iteration #  9     ecut=    30.00 Ry     beta=0.70
     Davidson diagonalization with overlap
     ethr =  4.71E-12,  avg # of iterations =  2.0

     total cpu time spent up to now is       15.6 secs

     total energy              =    -329.48072936 Ry
     Harris-Foulkes estimate   =    -329.48072933 Ry
     estimated scf accuracy    <          8.8E-10 Ry

     iteration # 10     ecut=    30.00 Ry     beta=0.70
     Davidson diagonalization with overlap
     ethr =  1.60E-12,  avg # of iterations =  2.0

     total cpu time spent up to now is       15.8 secs

     End of self-consistent calculation

          k = 0.0000 0.0000 0.0000 ( 22119 PWs)   bands (ev):

    -8.2006  -7.5634  -7.4933  -7.2617  -7.0438  -6.6363  -6.5554  -6.4017
    -6.2220  -6.0573  -5.9683  -5.6834  -5.6565  -5.5947  -5.5553  -5.4681
    -5.2311  -5.2120  -5.1868  -5.1286  -5.1160  -5.0114  -4.9621  -4.9396
    -4.9016  -4.5712  -4.3815  -3.7518  -2.5483  -2.2122  -0.4412  -0.2354
     0.3940   0.6807

     the Fermi energy is    -3.7336 ev

!    total energy              =    -329.48072936 Ry
     Harris-Foulkes estimate   =    -329.48072936 Ry
     estimated scf accuracy    <          5.1E-11 Ry

     The total energy is the sum of the following terms:

     one-electron contribution =    -601.85739698 Ry
     hartree contribution      =     322.46706568 Ry
     xc contribution           =     -51.39830795 Ry
     ewald contribution        =       1.30904432 Ry
     smearing contrib. (-TS)   =      -0.00113443 Ry

     convergence has been achieved in  10 iterations

     Forces acting on atoms (Ry/au):

     atom    1 type  1   force =     0.00248764   -0.00104932    0.00072077
     atom    2 type  1   force =    -0.00090542    0.00426618   -0.00394400
     atom    3 type  1   force =     0.00177107    0.00008421    0.00470557
     atom    4 type  1   force =    -0.00284005   -0.00540389    0.00098765
     atom    5 type  1   force =    -0.00051325    0.00210283   -0.00246999

     Total force =     0.010803     Total SCF correction =     0.000029

     number of scf cycles    =   6
     number of bfgs steps    =   5

     energy   old            =    -329.4805687136 Ry
     energy   new            =    -329.4807293569 Ry

     CASE: energy  _new < energy  _old

     new trust radius        =       0.0199444614 bohr
     new conv_thr            =       0.0000000002 Ry


ATOMIC_POSITIONS (bohr)
Au      -2.292769744   1.113773010  -0.444486425
Au      -0.134188770   2.274160162   4.115408154
Au       2.776629544   1.001813391  -0.052313733
Au       4.421490731   4.121348967   5.603523256
Au       7.163091240   1.148102470   2.511478748



     Writing output data file pwscf.save
     Check: negative starting charge=   -0.006329
     NEW-OLD atomic charge density approx. for the potential
     Check: negative starting charge=   -0.006329

     negative rho (up, down):  6.939E-05 0.000E+00

     total cpu time spent up to now is       16.0 secs

     per-process dynamical memory:    50.7 Mb

     Self-consistent Calculation

     iteration #  1     ecut=    30.00 Ry     beta=0.70
     Davidson diagonalization with overlap
     ethr =  1.00E-06,  avg # of iterations =  4.0

     negative rho (up, down):  4.030E-07 0.000E+00

     total cpu time spent up to now is       16.3 secs

     total energy              =    -329.48088020 Ry
     Harris-Foulkes estimate   =    -329.48091233 Ry
     estimated scf accuracy    <       0.00009299 Ry

     iteration #  2     ecut=    30.00 Ry     beta=0.70
     Davidson diagonalization with overlap
     ethr =  1.69E-07,  avg # of iterations =  3.0

     negative rho (up, down):  5.694E-08 0.000E+00

     total cpu time spent up to now is       16.6 secs

     total energy              =    -329.48086553 Ry
     Harris-Foulkes estimate   =    -329.48095628 Ry
     estimated scf accuracy    <       0.00023206 Ry

     iteration #  3     ecut=    30.00 Ry     beta=0.70
     Davidson diagonalization with overlap
     ethr =  1.69E-07,  avg # of iterations =  3.0

     total cpu time spent up to now is       16.8 secs

     total energy              =    -329.48090608 Ry
     Harris-Foulkes estimate   =    -329.48092958 Ry
     estimated scf accuracy    <       0.00008251 Ry

     iteration #  4     ecut=    30.00 Ry     beta=0.70
     Davidson diagonalization with overlap
     ethr =  1.50E-07,  avg # of iterations =  1.0

     total cpu time spent up to now is       17.0 secs

     total energy              =    -329.48091778 Ry
     Harris-Foulkes estimate   =    -329.48091819 Ry
     estimated scf accuracy    <       0.00000169 Ry

     iteration #  5     ecut=    30.00 Ry     beta=0.70
     Davidson diagonalization with overlap
     ethr =  3.07E-09,  avg # of iterations =  3.0

     total cpu time spent up to now is       17.2 secs

     total energy              =    -329.48091826 Ry
     Harris-Foulkes estimate   =    -329.48091878 Ry
     estimated scf accuracy    <       0.00000126 Ry

     iteration #  6     ecut=    30.00 Ry     beta=0.70
     Davidson diagonalization with overlap
     ethr =  2.29E-09,  avg # of iterations =  2.0

     total cpu time spent up to now is       17.4 secs

     total energy              =    -329.48091863 Ry
     Harris-Foulkes estimate   =    -329.48091850 Ry
     estimated scf accuracy    <       0.00000012 Ry

     iteration #  7     ecut=    30.00 Ry     beta=0.70
     Davidson diagonalization with overlap
     ethr =  2.14E-10,  avg # of iterations =  2.0

     total cpu time spent up to now is       17.6 secs

     total energy              =    -329.48091862 Ry
     Harris-Foulkes estimate   =    -329.48091865 Ry
     estimated scf accuracy    <       0.00000001 Ry

     iteration #  8     ecut=    30.00 Ry     beta=0.70
     Davidson diagonalization with overlap
     ethr =  2.33E-11,  avg # of iterations =  2.0

     total cpu time spent up to now is       17.9 secs

     total energy              =    -329.48091860 Ry
     Harris-Foulkes estimate   =    -329.48091862 Ry
     estimated scf accuracy    <          3.5E-09 Ry

     iteration #  9     ecut=    30.00 Ry     beta=0.70
     Davidson diagonalization with overlap
     ethr =  6.41E-12,  avg # of iterations =  2.0

     total cpu time spent up to now is       18.1 secs

     total energy              =    -329.48091858 Ry
     Harris-Foulkes estimate   =    -329.48091860 Ry
     estimated scf accuracy    <          1.1E-09 Ry

     iteration # 10     ecut=    30.00 Ry     beta=0.70
     Davidson diagonalization with overlap
     ethr =  1.93E-12,  avg # of iterations =  2.0

     total cpu time spent up to now is       18.3 secs

     End of self-consistent calculation

          k = 0.0000 0.0000 0.0000 ( 22119 PWs)   bands (ev):

    -8.1950  -7.5627  -7.4949  -7.2670  -7.0530  -6.6327  -6.5609  -6.4027
    -6.2226  -6.0690  -5.9706  -5.6831  -5.6551  -5.5969  -5.5559  -5.4685
    -5.2324  -5.2149  -5.1875  -5.1282  -5.1161  -5.0161  -4.9632  -4.9366
    -4.9065  -4.5711  -4.3855  -3.7513  -2.5529  -2.2093  -0.4448  -0.2373
     0.3942   0.6827

     the Fermi energy is    -3.7323 ev

!    total energy              =    -329.48091857 Ry
     Harris-Foulkes estimate   =    -329.48091858 Ry
     estimated scf accuracy    <          6.0E-11 Ry

     The total energy is the sum of the following terms:

     one-electron contribution =    -601.80724347 Ry
     hartree contribution      =     322.43839875 Ry
     xc contribution           =     -51.39776857 Ry
     ewald contribution        =       1.28698621 Ry
     smearing contrib. (-TS)   =      -0.00129149 Ry

     convergence has been achieved in  10 iterations

     Forces acting on atoms (Ry/au):

     atom    1 type  1   force =     0.00302420   -0.00092600    0.00055949
     atom    2 type  1   force =    -0.00059242    0.00378490   -0.00401315
     atom    3 type  1   force =     0.00112328    0.00027303    0.00545531
     atom    4 type  1   force =    -0.00352618   -0.00437314    0.00145629
     atom    5 type  1   force =    -0.00002888    0.00124121   -0.00345793

     Total force =     0.010926     Total SCF correction =     0.000028

     number of scf cycles    =   7
     number of bfgs steps    =   6

     energy   old            =    -329.4807293569 Ry
     energy   new            =    -329.4809185651 Ry

     CASE: energy  _new < energy  _old

     new trust radius        =       0.0299166921 bohr
     new conv_thr            =       0.0000000002 Ry


ATOMIC_POSITIONS (bohr)
Au      -2.290274522   1.106965493  -0.444020582
Au      -0.151691066   2.296851697   4.106819070
Au       2.783833798   0.998041110  -0.048222238
Au       4.419590842   4.094606520   5.606123338
Au       7.172793949   1.162733179   2.512910412



     Writing output data file pwscf.save
     Check: negative starting charge=   -0.006329
     NEW-OLD atomic charge density approx. for the potential
     Check: negative starting charge=   -0.006330

     negative rho (up, down):  2.003E-04 0.000E+00

     total cpu time spent up to now is       18.5 secs

     per-process dynamical memory:    50.7 Mb

     Self-consistent Calculation

     iteration #  1     ecut=    30.00 Ry     beta=0.70
     Davidson diagonalization with overlap
     ethr =  1.00E-06,  avg # of iterations =  4.0

     negative rho (up, down):  3.345E-06 0.000E+00

     total cpu time spent up to now is       18.9 secs

     total energy              =    -329.48111353 Ry
     Harris-Foulkes estimate   =    -329.48115926 Ry
     estimated scf accuracy    <       0.00020257 Ry

     iteration #  2     ecut=    30.00 Ry     beta=0.70
     Davidson diagonalization with overlap
     ethr =  3.68E-07,  avg # of iterations =  3.0

     negative rho (up, down):  5.820E-07 0.000E+00

     total cpu time spent up to now is       19.1 secs

     total energy              =    -329.48110459 Ry
     Harris-Foulkes estimate   =    -329.48125901 Ry
     estimated scf accuracy    <       0.00036387 Ry

     iteration #  3     ecut=    30.00 Ry     beta=0.70
     Davidson diagonalization with overlap
     ethr =  3.68E-07,  avg # of iterations =  3.0

     negative rho (up, down):  4.191E-08 0.000E+00

     total cpu time spent up to now is       19.4 secs

     total energy              =    -329.48116683 Ry
     Harris-Foulkes estimate   =    -329.48121908 Ry
     estimated scf accuracy    <       0.00018133 Ry

     iteration #  4     ecut=    30.00 Ry     beta=0.70
     Davidson diagonalization with overlap
     ethr =  3.30E-07,  avg # of iterations =  1.0

     total cpu time spent up to now is       19.5 secs

     total energy              =    -329.48119279 Ry
     Harris-Foulkes estimate   =    -329.48119437 Ry
     estimated scf accuracy    <       0.00000429 Ry

     iteration #  5     ecut=    30.00 Ry     beta=0.70
     Davidson diagonalization with overlap
     ethr =  7.80E-09,  avg # of iterations =  3.0

     total cpu time spent up to now is       19.8 secs

     total energy              =    -329.48119390 Ry
     Harris-Foulkes estimate   =    -329.48119484 Ry
     estimated scf accuracy    <       0.00000228 Ry

     iteration #  6     ecut=    30.00 Ry     beta=0.70
     Davidson diagonalization with overlap
     ethr =  4.14E-09,  avg # of iterations =  2.0

     total cpu time spent up to now is       20.0 secs

     total energy              =    -329.48119412 Ry
     Harris-Foulkes estimate   =    -329.48119434 Ry
     estimated scf accuracy    <       0.00000024 Ry

     iteration #  7     ecut=    30.00 Ry     beta=0.70
     Davidson diagonalization with overlap
     ethr =  4.40E-10,  avg # of iterations =  2.0

     total cpu time spent up to now is       20.2 secs

     total energy              =    -329.48119399 Ry
     Harris-Foulkes estimate   =    -329.48119416 Ry
     estimated scf accuracy    <       0.00000003 Ry

     iteration #  8     ecut=    30.00 Ry     beta=0.70
     Davidson diagonalization with overlap
     ethr =  4.59E-11,  avg # of iterations =  2.0

     total cpu time spent up to now is       20.4 secs

     total energy              =    -329.48119401 Ry
     Harris-Foulkes estimate   =    -329.48119400 Ry
     estimated scf accuracy    <          8.5E-09 Ry

     iteration #  9     ecut=    30.00 Ry     beta=0.70
     Davidson diagonalization with overlap
     ethr =  1.55E-11,  avg # of iterations =  2.0

     total cpu time spent up to now is       20.7 secs

     total energy              =    -329.48119404 Ry
     Harris-Foulkes estimate   =    -329.48119401 Ry
     estimated scf accuracy    <          2.0E-09 Ry

     iteration # 10     ecut=    30.00 Ry     beta=0.70
     Davidson diagonalization with overlap
     ethr =  3.72E-12,  avg # of iterations =  2.0

     total cpu time spent up to now is       20.9 secs

     End of self-consistent calculation

          k = 0.0000 0.0000 0.0000 ( 22119 PWs)   bands (ev):

    -8.1940  -7.5670  -7.5013  -7.2762  -7.0652  -6.6317  -6.5702  -6.4068
    -6.2220  -6.0862  -5.9730  -5.6833  -5.6547  -5.5997  -5.5569  -5.4687
    -5.2346  -5.2181  -5.1885  -5.1274  -5.1154  -5.0224  -4.9637  -4.9308
    -4.9116  -4.5701  -4.3889  -3.7510  -2.5567  -2.2025  -0.4507  -0.2400
     0.3958   0.6881

     the Fermi energy is    -3.7314 ev

!    total energy              =    -329.48119403 Ry
     Harris-Foulkes estimate   =    -329.48119404 Ry
     estimated scf accuracy    <          1.5E-10 Ry

     The total energy is the sum of the following terms:

     one-electron contribution =    -602.00745160 Ry
     hartree contribution      =     322.53314607 Ry
     xc contribution           =     -51.39837423 Ry
     ewald contribution        =       1.39288602 Ry
     smearing contrib. (-TS)   =      -0.00140029 Ry

     convergence has been achieved in  10 iterations

     Forces acting on atoms (Ry/au):

     atom    1 type  1   force =     0.00333320   -0.00096550    0.00014086
     atom    2 type  1   force =    -0.00053117    0.00324208   -0.00363124
     atom    3 type  1   force =     0.00020944    0.00027488    0.00607664
     atom    4 type  1   force =    -0.00405520   -0.00253926    0.00187171
     atom    5 type  1   force =     0.00104373   -0.00001220   -0.00445797

     Total force =     0.010975     Total SCF correction =     0.000045

     number of scf cycles    =   8
     number of bfgs steps    =   7

     energy   old            =    -329.4809185651 Ry
     energy   new            =    -329.4811940324 Ry

     CASE: energy  _new < energy  _old

     new trust radius        =       0.0448750382 bohr
     new conv_thr            =       0.0000000003 Ry


ATOMIC_POSITIONS (bohr)
Au      -2.284023649   1.096505902  -0.443401955
Au      -0.176436677   2.331214520   4.091965782
Au       2.793997710   0.992933062  -0.037029447
Au       4.413399552   4.055838178   5.611229294
Au       7.187316064   1.182706338   2.510846326



     Writing output data file pwscf.save
     Check: negative starting charge=   -0.006330
     NEW-OLD atomic charge density approx. for the potential
     Check: negative starting charge=   -0.006340

     negative rho (up, down):  4.749E-04 0.000E+00

     total cpu time spent up to now is       21.1 secs

     per-process dynamical memory:    50.7 Mb

     Self-consistent Calculation

     iteration #  1     ecut=    30.00 Ry     beta=0.70
     Davidson diagonalization with overlap
     ethr =  1.00E-06,  avg # of iterations =  4.0

     negative rho (up, down):  1.705E-05 0.000E+00

     total cpu time spent up to now is       21.4 secs

     total energy              =    -329.48140330 Ry
     Harris-Foulkes estimate   =    -329.48138040 Ry
     estimated scf accuracy    <       0.00044279 Ry

     iteration #  2     ecut=    30.00 Ry     beta=0.70
     Davidson diagonalization with overlap
     ethr =  8.05E-07,  avg # of iterations =  4.0

     negative rho (up, down):  3.291E-06 0.000E+00

     total cpu time spent up to now is       21.7 secs

     total energy              =    -329.48143343 Ry
     Harris-Foulkes estimate   =    -329.48168634 Ry
     estimated scf accuracy    <       0.00055371 Ry

     iteration #  3     ecut=    30.00 Ry     beta=0.70
     Davidson diagonalization with overlap
     ethr =  8.05E-07,  avg # of iterations =  2.0

     negative rho (up, down):  4.815E-07 0.000E+00

     total cpu time spent up to now is       21.9 secs

     total energy              =    -329.48152220 Ry
     Harris-Foulkes estimate   =    -329.48161919 Ry
     estimated scf accuracy    <       0.00032218 Ry

     iteration #  4     ecut=    30.00 Ry     beta=0.70
     Davidson diagonalization with overlap
     ethr =  5.86E-07,  avg # of iterations =  1.0

     total cpu time spent up to now is       22.1 secs

     total energy              =    -329.48157390 Ry
     Harris-Foulkes estimate   =    -329.48157680 Ry
     estimated scf accuracy    <       0.00001406 Ry

     iteration #  5     ecut=    30.00 Ry     beta=0.70
     Davidson diagonalization with overlap
     ethr =  2.56E-08,  avg # of iterations =  3.0

     total cpu time spent up to now is       22.3 secs

     total energy              =    -329.48157641 Ry
     Harris-Foulkes estimate   =    -329.48157825 Ry
     estimated scf accuracy    <       0.00000416 Ry

     iteration #  6     ecut=    30.00 Ry     beta=0.70
     Davidson diagonalization with overlap
     ethr =  7.56E-09,  avg # of iterations =  2.0

     total cpu time spent up to now is       22.5 secs

     total energy              =    -329.48157687 Ry
     Harris-Foulkes estimate   =    -329.48157725 Ry
     estimated scf accuracy    <       0.00000040 Ry

     iteration #  7     ecut=    30.00 Ry     beta=0.70
     Davidson diagonalization with overlap
     ethr =  7.29E-10,  avg # of iterations =  2.0

     total cpu time spent up to now is       22.7 secs

     total energy              =    -329.48157692 Ry
     Harris-Foulkes estimate   =    -329.48157696 Ry
     estimated scf accuracy    <       0.00000004 Ry

     iteration #  8     ecut=    30.00 Ry     beta=0.70
     Davidson diagonalization with overlap
     ethr =  7.23E-11,  avg # of iterations =  3.0

     total cpu time spent up to now is       23.0 secs

     total energy              =    -329.48157689 Ry
     Harris-Foulkes estimate   =    -329.48157694 Ry
     estimated scf accuracy    <       0.00000002 Ry

     iteration #  9     ecut=    30.00 Ry     beta=0.70
     Davidson diagonalization with overlap
     ethr =  3.60E-11,  avg # of iterations =  2.0

     total cpu time spent up to now is       23.2 secs

     total energy              =    -329.48157687 Ry
     Harris-Foulkes estimate   =    -329.48157690 Ry
     estimated scf accuracy    <          3.0E-09 Ry

     iteration # 10     ecut=    30.00 Ry     beta=0.70
     Davidson diagonalization with overlap
     ethr =  5.54E-12,  avg # of iterations =  2.0

     total cpu time spent up to now is       23.4 secs

     End of self-consistent calculation

          k = 0.0000 0.0000 0.0000 ( 22119 PWs)   bands (ev):

    -8.2003  -7.5773  -7.5141  -7.2882  -7.0799  -6.6349  -6.5840  -6.4143
    -6.2189  -6.1105  -5.9743  -5.6839  -5.6554  -5.6033  -5.5580  -5.4682
    -5.2384  -5.2211  -5.1903  -5.1259  -5.1139  -5.0313  -4.9636  -4.9221
    -4.9159  -4.5678  -4.3918  -3.7516  -2.5593  -2.1908  -0.4596  -0.2437
     0.3998   0.6987

     the Fermi energy is    -3.7319 ev

!    total energy              =    -329.48157686 Ry
     Harris-Foulkes estimate   =    -329.48157687 Ry
     estimated scf accuracy    <          2.2E-10 Ry

     The total energy is the sum of the following terms:

     one-electron contribution =    -602.51389618 Ry
     hartree contribution      =     322.77905641 Ry
     xc contribution           =     -51.40042612 Ry
     ewald contribution        =       1.65511070 Ry
     smearing contrib. (-TS)   =      -0.00142167 Ry

     convergence has been achieved in  10 iterations

     Forces acting on atoms (Ry/au):

     atom    1 type  1   force =     0.00325947   -0.00102104   -0.00083552
     atom    2 type  1   force =    -0.00043945    0.00319875   -0.00271453
     atom    3 type  1   force =    -0.00098308    0.00025145    0.00633270
     atom    4 type  1   force =    -0.00454388   -0.00089407    0.00270252
     atom    5 type  1   force =     0.00270694   -0.00153509   -0.00548517

     Total force =     0.011824     Total SCF correction =     0.000056

     number of scf cycles    =   9
     number of bfgs steps    =   8

     energy   old            =    -329.4811940324 Ry
     energy   new            =    -329.4815768608 Ry

     CASE: energy  _new < energy  _old

     new trust radius        =       0.0673125573 bohr
     new conv_thr            =       0.0000000004 Ry


ATOMIC_POSITIONS (bohr)
Au      -2.273275070   1.080611848  -0.443635436
Au      -0.212307440   2.383462216   4.069284358
Au       2.807862259   0.985643505  -0.016780840
Au       4.401466078   3.999351294   5.620634521
Au       7.210507173   1.210129136   2.504107396



     Writing output data file pwscf.save
     Check: negative starting charge=   -0.006340
     NEW-OLD atomic charge density approx. for the potential
     Check: negative starting charge=   -0.006369

     negative rho (up, down):  9.831E-04 0.000E+00

     total cpu time spent up to now is       23.6 secs

     per-process dynamical memory:    50.7 Mb

     Self-consistent Calculation

     iteration #  1     ecut=    30.00 Ry     beta=0.70
     Davidson diagonalization with overlap
     ethr =  1.00E-06,  avg # of iterations =  6.0

     negative rho (up, down):  6.059E-05 0.000E+00

     total cpu time spent up to now is       24.0 secs

     total energy              =    -329.48177320 Ry
     Harris-Foulkes estimate   =    -329.48146715 Ry
     estimated scf accuracy    <       0.00099540 Ry

     iteration #  2     ecut=    30.00 Ry     beta=0.70
     Davidson diagonalization with overlap
     ethr =  1.81E-06,  avg # of iterations =  6.0

     negative rho (up, down):  1.394E-05 0.000E+00

     total cpu time spent up to now is       24.3 secs

     total energy              =    -329.48192072 Ry
     Harris-Foulkes estimate   =    -329.48236360 Ry
     estimated scf accuracy    <       0.00095220 Ry

     iteration #  3     ecut=    30.00 Ry     beta=0.70
     Davidson diagonalization with overlap
     ethr =  1.73E-06,  avg # of iterations =  2.0

     negative rho (up, down):  2.961E-06 0.000E+00

     total cpu time spent up to now is       24.5 secs

     total energy              =    -329.48206764 Ry
     Harris-Foulkes estimate   =    -329.48222014 Ry
     estimated scf accuracy    <       0.00045933 Ry

     iteration #  4     ecut=    30.00 Ry     beta=0.70
     Davidson diagonalization with overlap
     ethr =  8.35E-07,  avg # of iterations =  2.0

     total cpu time spent up to now is       24.7 secs

     total energy              =    -329.48215315 Ry
     Harris-Foulkes estimate   =    -329.48216529 Ry
     estimated scf accuracy    <       0.00005482 Ry

     iteration #  5     ecut=    30.00 Ry     beta=0.70
     Davidson diagonalization with overlap
     ethr =  9.97E-08,  avg # of iterations =  2.0

     total cpu time spent up to now is       24.9 secs

     total energy              =    -329.48216125 Ry
     Harris-Foulkes estimate   =    -329.48216427 Ry
     estimated scf accuracy    <       0.00000741 Ry

     iteration #  6     ecut=    30.00 Ry     beta=0.70
     Davidson diagonalization with overlap
     ethr =  1.35E-08,  avg # of iterations =  2.0

     total cpu time spent up to now is       25.1 secs

     total energy              =    -329.48216278 Ry
     Harris-Foulkes estimate   =    -329.48216293 Ry
     estimated scf accuracy    <       0.00000055 Ry

     iteration #  7     ecut=    30.00 Ry     beta=0.70
     Davidson diagonalization with overlap
     ethr =  9.92E-10,  avg # of iterations =  3.0

     total cpu time spent up to now is       25.3 secs

     total energy              =    -329.48216268 Ry
     Harris-Foulkes estimate   =    -329.48216294 Ry
     estimated scf accuracy    <       0.00000008 Ry

     iteration #  8     ecut=    30.00 Ry     beta=0.70
     Davidson diagonalization with overlap
     ethr =  1.44E-10,  avg # of iterations =  2.0

     total cpu time spent up to now is       25.6 secs

     total energy              =    -329.48216265 Ry
     Harris-Foulkes estimate   =    -329.48216271 Ry
     estimated scf accuracy    <       0.00000003 Ry

     iteration #  9     ecut=    30.00 Ry     beta=0.70
     Davidson diagonalization with overlap
     ethr =  6.34E-11,  avg # of iterations =  2.0

     total cpu time spent up to now is       25.8 secs

     total energy              =    -329.48216269 Ry
     Harris-Foulkes estimate   =    -329.48216266 Ry
     estimated scf accuracy    <          2.8E-09 Ry

     iteration # 10     ecut=    30.00 Ry     beta=0.70
     Davidson diagonalization with overlap
     ethr =  5.07E-12,  avg # of iterations =  2.0

     total cpu time spent up to now is       26.0 secs

     End of self-consistent calculation

          k = 0.0000 0.0000 0.0000 ( 22119 PWs)   bands (ev):

    -8.2129  -7.5923  -7.5331  -7.2995  -7.0953  -6.6415  -6.6019  -6.4241
    -6.2120  -6.1442  -5.9724  -5.6850  -5.6566  -5.6076  -5.5585  -5.4658
    -5.2445  -5.2237  -5.1936  -5.1242  -5.1116  -5.0451  -4.9631  -4.9257
    -4.9050  -4.5630  -4.3966  -3.7544  -2.5618  -2.1742  -0.4723  -0.2490
     0.4061   0.7163

     the Fermi energy is    -3.7350 ev

!    total energy              =    -329.48216264 Ry
     Harris-Foulkes estimate   =    -329.48216269 Ry
     estimated scf accuracy    <          3.3E-10 Ry

     The total energy is the sum of the following terms:

     one-electron contribution =    -603.21405099 Ry
     hartree contribution      =     323.12014354 Ry
     xc contribution           =     -51.40357133 Ry
     ewald contribution        =       2.01666696 Ry
     smearing contrib. (-TS)   =      -0.00135081 Ry

     convergence has been achieved in  10 iterations

     Forces acting on atoms (Ry/au):

     atom    1 type  1   force =     0.00284156   -0.00088415   -0.00251702
     atom    2 type  1   force =     0.00020525    0.00429864   -0.00136110
     atom    3 type  1   force =    -0.00241248    0.00050545    0.00630037
     atom    4 type  1   force =    -0.00499436   -0.00071949    0.00409685
     atom    5 type  1   force =     0.00436001   -0.00320045   -0.00651910

     Total force =     0.013976     Total SCF correction =     0.000085

     number of scf cycles    =  10
     number of bfgs steps    =   9

     energy   old            =    -329.4815768608 Ry
     energy   new            =    -329.4821626366 Ry

     CASE: energy  _new < energy  _old


     WARNING: bfgs curvature condition failed, Theta= 0.876
     new trust radius        =       0.1009688359 bohr
     new conv_thr            =       0.0000000006 Ry


ATOMIC_POSITIONS (bohr)
Au      -2.257482219   1.056896176  -0.445109661
Au      -0.265580279   2.462582004   4.036166846
Au       2.827755021   0.974901616   0.013541187
Au       4.383311323   3.914631520   5.635643626
Au       7.246249154   1.250186684   2.493368002



     Writing output data file pwscf.save
     Check: negative starting charge=   -0.006369
     NEW-OLD atomic charge density approx. for the potential
     Check: negative starting charge=   -0.006405

     negative rho (up, down):  1.868E-03 0.000E+00

     total cpu time spent up to now is       26.2 secs

     per-process dynamical memory:    50.7 Mb

     Self-consistent Calculation

     iteration #  1     ecut=    30.00 Ry     beta=0.70
     Davidson diagonalization with overlap
     ethr =  1.00E-06,  avg # of iterations = 10.0

     negative rho (up, down):  1.672E-04 0.000E+00

     total cpu time spent up to now is       26.7 secs

     total energy              =    -329.48204670 Ry
     Harris-Foulkes estimate   =    -329.48132536 Ry
     estimated scf accuracy    <       0.00223882 Ry

     iteration #  2     ecut=    30.00 Ry     beta=0.70
     Davidson diagonalization with overlap
     ethr =  4.07E-06,  avg # of iterations =  6.0

     negative rho (up, down):  4.748E-05 0.000E+00

     total cpu time spent up to now is       27.0 secs

     total energy              =    -329.48245093 Ry
     Harris-Foulkes estimate   =    -329.48332595 Ry
     estimated scf accuracy    <       0.00190400 Ry

     iteration #  3     ecut=    30.00 Ry     beta=0.70
     Davidson diagonalization with overlap
     ethr =  3.46E-06,  avg # of iterations =  2.0

     negative rho (up, down):  1.269E-05 0.000E+00

     total cpu time spent up to now is       27.2 secs

     total energy              =    -329.48275570 Ry
     Harris-Foulkes estimate   =    -329.48301162 Ry
     estimated scf accuracy    <       0.00072407 Ry

     iteration #  4     ecut=    30.00 Ry     beta=0.70
     Davidson diagonalization with overlap
     ethr =  1.32E-06,  avg # of iterations =  2.0

     total cpu time spent up to now is       27.4 secs

     total energy              =    -329.48290258 Ry
     Harris-Foulkes estimate   =    -329.48294501 Ry
     estimated scf accuracy    <       0.00017364 Ry

     iteration #  5     ecut=    30.00 Ry     beta=0.70
     Davidson diagonalization with overlap
     ethr =  3.16E-07,  avg # of iterations =  1.0

     total cpu time spent up to now is       27.6 secs

     total energy              =    -329.48292517 Ry
     Harris-Foulkes estimate   =    -329.48293174 Ry
     estimated scf accuracy    <       0.00001538 Ry

     iteration #  6     ecut=    30.00 Ry     beta=0.70
     Davidson diagonalization with overlap
     ethr =  2.80E-08,  avg # of iterations =  2.0

     total cpu time spent up to now is       27.8 secs

     total energy              =    -329.48292868 Ry
     Harris-Foulkes estimate   =    -329.48292920 Ry
     estimated scf accuracy    <       0.00000085 Ry

     iteration #  7     ecut=    30.00 Ry     beta=0.70
     Davidson diagonalization with overlap
     ethr =  1.55E-09,  avg # of iterations =  3.0

     total cpu time spent up to now is       28.0 secs

     total energy              =    -329.48292884 Ry
     Harris-Foulkes estimate   =    -329.48292901 Ry
     estimated scf accuracy    <       0.00000020 Ry

     iteration #  8     ecut=    30.00 Ry     beta=0.70
     Davidson diagonalization with overlap
     ethr =  3.64E-10,  avg # of iterations =  2.0

     total cpu time spent up to now is       28.2 secs

     total energy              =    -329.48292886 Ry
     Harris-Foulkes estimate   =    -329.48292890 Ry
     estimated scf accuracy    <       0.00000006 Ry

     iteration #  9     ecut=    30.00 Ry     beta=0.70
     Davidson diagonalization with overlap
     ethr =  1.05E-10,  avg # of iterations =  2.0

     total cpu time spent up to now is       28.5 secs

     total energy              =    -329.48292884 Ry
     Harris-Foulkes estimate   =    -329.48292888 Ry
     estimated scf accuracy    <          2.7E-09 Ry

     iteration # 10     ecut=    30.00 Ry     beta=0.70
     Davidson diagonalization with overlap
     ethr =  4.84E-12,  avg # of iterations =  2.0

     total cpu time spent up to now is       28.7 secs

     End of self-consistent calculation

          k = 0.0000 0.0000 0.0000 ( 22119 PWs)   bands (ev):

    -8.2283  -7.6121  -7.5596  -7.3077  -7.1084  -6.6504  -6.6251  -6.4387
    -6.2033  -6.1864  -5.9673  -5.6870  -5.6573  -5.6133  -5.5553  -5.4594
    -5.2534  -5.2270  -5.1988  -5.1239  -5.1091  -5.0675  -4.9627  -4.9375
    -4.8861  -4.5542  -4.4085  -3.7596  -2.5679  -2.1534  -0.4896  -0.2556
     0.4139   0.7433

     the Fermi energy is    -3.7402 ev

!    total energy              =    -329.48292884 Ry
     Harris-Foulkes estimate   =    -329.48292884 Ry
     estimated scf accuracy    <          4.4E-10 Ry

     The total energy is the sum of the following terms:

     one-electron contribution =    -603.95776988 Ry
     hartree contribution      =     323.48030056 Ry
     xc contribution           =     -51.40696300 Ry
     ewald contribution        =       2.40279941 Ry
     smearing contrib. (-TS)   =      -0.00129593 Ry

     convergence has been achieved in  10 iterations

     Forces acting on atoms (Ry/au):

     atom    1 type  1   force =     0.00233826   -0.00127317   -0.00487254
     atom    2 type  1   force =     0.00220735    0.00398505   -0.00024492
     atom    3 type  1   force =    -0.00414188    0.00058407    0.00652064
     atom    4 type  1   force =    -0.00580613    0.00127577    0.00626230
     atom    5 type  1   force =     0.00540241   -0.00457171   -0.00766548

     Total force =     0.017177     Total SCF correction =     0.000099

     number of scf cycles    =  11
     number of bfgs steps    =  10

     energy   old            =    -329.4821626366 Ry
     energy   new            =    -329.4829288392 Ry

     CASE: energy  _new < energy  _old

     new trust radius        =       0.1514532539 bohr
     new conv_thr            =       0.0000000008 Ry


ATOMIC_POSITIONS (bohr)
Au      -2.229457239   1.019689397  -0.450664143
Au      -0.338823044   2.583639292   3.982141680
Au       2.855879175   0.960023684   0.070060964
Au       4.347869225   3.788377475   5.664103179
Au       7.298784883   1.307468152   2.467968320



     Writing output data file pwscf.save
     Check: negative starting charge=   -0.006405
     NEW-OLD atomic charge density approx. for the potential
     Check: negative starting charge=   -0.006433

     negative rho (up, down):  3.459E-03 0.000E+00

     total cpu time spent up to now is       28.9 secs

     per-process dynamical memory:    50.7 Mb

     Self-consistent Calculation

     iteration #  1     ecut=    30.00 Ry     beta=0.70
     Davidson diagonalization with overlap
     ethr =  1.00E-06,  avg # of iterations = 12.0

     negative rho (up, down):  4.034E-04 0.000E+00

     total cpu time spent up to now is       29.4 secs

     total energy              =    -329.48120494 Ry
     Harris-Foulkes estimate   =    -329.48511591 Ry
     estimated scf accuracy    <       0.00504985 Ry

     iteration #  2     ecut=    30.00 Ry     beta=0.70
     Davidson diagonalization with overlap
     ethr =  9.18E-06,  avg # of iterations =  7.0

     negative rho (up, down):  1.294E-04 0.000E+00

     total cpu time spent up to now is       29.7 secs

     total energy              =    -329.48275111 Ry
     Harris-Foulkes estimate   =    -329.48422492 Ry
     estimated scf accuracy    <       0.00338624 Ry

     iteration #  3     ecut=    30.00 Ry     beta=0.70
     Davidson diagonalization with overlap
     ethr =  6.16E-06,  avg # of iterations =  2.0

     negative rho (up, down):  1.828E-05 0.000E+00

     total cpu time spent up to now is       30.0 secs

     total energy              =    -329.48338904 Ry
     Harris-Foulkes estimate   =    -329.48357970 Ry
     estimated scf accuracy    <       0.00045941 Ry

     iteration #  4     ecut=    30.00 Ry     beta=0.70
     Davidson diagonalization with overlap
     ethr =  8.35E-07,  avg # of iterations =  4.0

     total cpu time spent up to now is       30.2 secs

     total energy              =    -329.48345865 Ry
     Harris-Foulkes estimate   =    -329.48368016 Ry
     estimated scf accuracy    <       0.00079863 Ry

     iteration #  5     ecut=    30.00 Ry     beta=0.70
     Davidson diagonalization with overlap
     ethr =  8.35E-07,  avg # of iterations =  2.0

     total cpu time spent up to now is       30.4 secs

     total energy              =    -329.48356281 Ry
     Harris-Foulkes estimate   =    -329.48357755 Ry
     estimated scf accuracy    <       0.00003708 Ry

     iteration #  6     ecut=    30.00 Ry     beta=0.70
     Davidson diagonalization with overlap
     ethr =  6.74E-08,  avg # of iterations =  3.0

     total cpu time spent up to now is       30.6 secs

     total energy              =    -329.48357146 Ry
     Harris-Foulkes estimate   =    -329.48357251 Ry
     estimated scf accuracy    <       0.00000244 Ry

     iteration #  7     ecut=    30.00 Ry     beta=0.70
     Davidson diagonalization with overlap
     ethr =  4.44E-09,  avg # of iterations =  3.0

     total cpu time spent up to now is       30.8 secs

     total energy              =    -329.48357179 Ry
     Harris-Foulkes estimate   =    -329.48357219 Ry
     estimated scf accuracy    <       0.00000045 Ry

     iteration #  8     ecut=    30.00 Ry     beta=0.70
     Davidson diagonalization with overlap
     ethr =  8.24E-10,  avg # of iterations =  2.0

     total cpu time spent up to now is       31.1 secs

     total energy              =    -329.48357171 Ry
     Harris-Foulkes estimate   =    -329.48357193 Ry
     estimated scf accuracy    <       0.00000012 Ry

     iteration #  9     ecut=    30.00 Ry     beta=0.70
     Davidson diagonalization with overlap
     ethr =  2.12E-10,  avg # of iterations =  2.0

     total cpu time spent up to now is       31.3 secs

     total energy              =    -329.48357170 Ry
     Harris-Foulkes estimate   =    -329.48357174 Ry
     estimated scf accuracy    <       0.00000001 Ry

     iteration # 10     ecut=    30.00 Ry     beta=0.70
     Davidson diagonalization with overlap
     ethr =  2.60E-11,  avg # of iterations =  2.0

     total cpu time spent up to now is       31.5 secs

     total energy              =    -329.48357166 Ry
     Harris-Foulkes estimate   =    -329.48357170 Ry
     estimated scf accuracy    <          2.4E-09 Ry

     iteration # 11     ecut=    30.00 Ry     beta=0.70
     Davidson diagonalization with overlap
     ethr =  4.30E-12,  avg # of iterations =  2.0

     total cpu time spent up to now is       31.7 secs

     End of self-consistent calculation

          k = 0.0000 0.0000 0.0000 ( 22119 PWs)   bands (ev):

    -8.2598  -7.6418  -7.5933  -7.3011  -7.1171  -6.6698  -6.6518  -6.4595
    -6.2321  -6.1867  -5.9591  -5.6882  -5.6556  -5.6220  -5.5402  -5.4460
    -5.2666  -5.2287  -5.2049  -5.1226  -5.1147  -5.0977  -4.9606  -4.9510
    -4.8614  -4.5393  -4.4258  -3.7701  -2.5709  -2.1268  -0.5123  -0.2630
     0.4265   0.7895

     the Fermi energy is    -3.7519 ev

!    total energy              =    -329.48357165 Ry
     Harris-Foulkes estimate   =    -329.48357166 Ry
     estimated scf accuracy    <          2.5E-10 Ry

     The total energy is the sum of the following terms:

     one-electron contribution =    -605.06739965 Ry
     hartree contribution      =     324.02247148 Ry
     xc contribution           =     -51.41148572 Ry
     ewald contribution        =       2.97380018 Ry
     smearing contrib. (-TS)   =      -0.00095794 Ry

     convergence has been achieved in  11 iterations

     Forces acting on atoms (Ry/au):

     atom    1 type  1   force =     0.00069935   -0.00230497   -0.00841841
     atom    2 type  1   force =     0.00455009    0.00163248    0.00143303
     atom    3 type  1   force =    -0.00615050    0.00094155    0.00682314
     atom    4 type  1   force =    -0.00578410    0.00363492    0.00742643
     atom    5 type  1   force =     0.00668516   -0.00390399   -0.00726419

     Total force =     0.020047     Total SCF correction =     0.000077

     number of scf cycles    =  12
     number of bfgs steps    =  11

     energy   old            =    -329.4829288392 Ry
     energy   new            =    -329.4835716515 Ry

     CASE: energy  _new < energy  _old

     new trust radius        =       0.0906569520 bohr
     new conv_thr            =       0.0000000006 Ry


ATOMIC_POSITIONS (bohr)
Au      -2.207944673   0.993877859  -0.460606806
Au      -0.374358355   2.657986653   3.944347573
Au       2.869762734   0.953124388   0.120042871
Au       4.316021258   3.713213607   5.688276402
Au       7.330772037   1.340995493   2.441549960



     Writing output data file pwscf.save
     Check: negative starting charge=   -0.006433
     NEW-OLD atomic charge density approx. for the potential
     Check: negative starting charge=   -0.006472

     negative rho (up, down):  1.857E-03 0.000E+00

     total cpu time spent up to now is       32.0 secs

     per-process dynamical memory:    50.7 Mb

     Self-consistent Calculation

     iteration #  1     ecut=    30.00 Ry     beta=0.70
     Davidson diagonalization with overlap
     ethr =  1.00E-06,  avg # of iterations = 11.0

     negative rho (up, down):  1.658E-04 0.000E+00

     total cpu time spent up to now is       32.5 secs

     total energy              =    -329.48346130 Ry
     Harris-Foulkes estimate   =    -329.48274875 Ry
     estimated scf accuracy    <       0.00221144 Ry

     iteration #  2     ecut=    30.00 Ry     beta=0.70
     Davidson diagonalization with overlap
     ethr =  4.02E-06,  avg # of iterations =  7.0

     negative rho (up, down):  4.382E-05 0.000E+00

     total cpu time spent up to now is       32.7 secs

     total energy              =    -329.48393224 Ry
     Harris-Foulkes estimate   =    -329.48468145 Ry
     estimated scf accuracy    <       0.00162906 Ry

     iteration #  3     ecut=    30.00 Ry     beta=0.70
     Davidson diagonalization with overlap
     ethr =  2.96E-06,  avg # of iterations =  2.0

     negative rho (up, down):  8.925E-06 0.000E+00

     total cpu time spent up to now is       33.0 secs

     total energy              =    -329.48420320 Ry
     Harris-Foulkes estimate   =    -329.48436311 Ry
     estimated scf accuracy    <       0.00040281 Ry

     iteration #  4     ecut=    30.00 Ry     beta=0.70
[...]

     per-process dynamical memory:    50.7 Mb

     Self-consistent Calculation

     iteration #  1     ecut=    30.00 Ry     beta=0.70
     Davidson diagonalization with overlap
     ethr =  1.00E-06,  avg # of iterations =  4.0

     Threshold (ethr) on eigenvalues was too large:
     Diagonalizing with lowered threshold

     Davidson diagonalization with overlap
     ethr =  2.66E-08,  avg # of iterations =  2.0

     total cpu time spent up to now is      124.1 secs

     total energy              =    -329.49107133 Ry
     Harris-Foulkes estimate   =    -329.49107414 Ry
     estimated scf accuracy    <       0.00001597 Ry

     iteration #  2     ecut=    30.00 Ry     beta=0.70
     Davidson diagonalization with overlap
     ethr =  2.90E-08,  avg # of iterations =  2.0

     total cpu time spent up to now is      124.3 secs

     total energy              =    -329.49107161 Ry
     Harris-Foulkes estimate   =    -329.49108129 Ry
     estimated scf accuracy    <       0.00002035 Ry

     iteration #  3     ecut=    30.00 Ry     beta=0.70
     Davidson diagonalization with overlap
     ethr =  2.90E-08,  avg # of iterations =  2.0

     total cpu time spent up to now is      124.6 secs

     total energy              =    -329.49107601 Ry
     Harris-Foulkes estimate   =    -329.49107790 Ry
     estimated scf accuracy    <       0.00000537 Ry

     iteration #  4     ecut=    30.00 Ry     beta=0.70
     Davidson diagonalization with overlap
     ethr =  9.76E-09,  avg # of iterations =  2.0

     total cpu time spent up to now is      124.7 secs

     total energy              =    -329.49107672 Ry
     Harris-Foulkes estimate   =    -329.49107723 Ry
     estimated scf accuracy    <       0.00000048 Ry

     iteration #  5     ecut=    30.00 Ry     beta=0.70
     Davidson diagonalization with overlap
     ethr =  8.74E-10,  avg # of iterations =  2.0

     total cpu time spent up to now is      125.0 secs

     total energy              =    -329.49107675 Ry
     Harris-Foulkes estimate   =    -329.49107686 Ry
     estimated scf accuracy    <       0.00000014 Ry

     iteration #  6     ecut=    30.00 Ry     beta=0.70
     Davidson diagonalization with overlap
     ethr =  2.54E-10,  avg # of iterations =  2.0

     total cpu time spent up to now is      125.2 secs

     total energy              =    -329.49107678 Ry
     Harris-Foulkes estimate   =    -329.49107678 Ry
     estimated scf accuracy    <          7.7E-09 Ry

     iteration #  7     ecut=    30.00 Ry     beta=0.70
     Davidson diagonalization with overlap
     ethr =  1.40E-11,  avg # of iterations =  3.0

     total cpu time spent up to now is      125.4 secs

     total energy              =    -329.49107679 Ry
     Harris-Foulkes estimate   =    -329.49107678 Ry
     estimated scf accuracy    <          2.3E-09 Ry

     iteration #  8     ecut=    30.00 Ry     beta=0.70
     Davidson diagonalization with overlap
     ethr =  4.18E-12,  avg # of iterations =  3.0

     total cpu time spent up to now is      125.6 secs

     total energy              =    -329.49107679 Ry
     Harris-Foulkes estimate   =    -329.49107679 Ry
     estimated scf accuracy    <          9.3E-10 Ry

     iteration #  9     ecut=    30.00 Ry     beta=0.70
     Davidson diagonalization with overlap
     ethr =  1.69E-12,  avg # of iterations =  2.0

     total cpu time spent up to now is      125.8 secs

     End of self-consistent calculation

          k = 0.0000 0.0000 0.0000 ( 22119 PWs)   bands (ev):

    -8.5237  -7.7879  -7.6507  -7.2267  -6.8707  -6.8267  -6.5957  -6.4859
    -6.3015  -6.0818  -5.9599  -5.7702  -5.7339  -5.6871  -5.4534  -5.3658
    -5.3168  -5.2464  -5.2015  -5.1962  -5.1656  -5.1270  -4.9919  -4.9253
    -4.8634  -4.7119  -4.4853  -3.7871  -2.4987  -2.2049  -0.5663  -0.1887
     0.5068   0.9207

     the Fermi energy is    -3.7552 ev

!    total energy              =    -329.49107678 Ry
     Harris-Foulkes estimate   =    -329.49107679 Ry
     estimated scf accuracy    <          9.4E-11 Ry

     The total energy is the sum of the following terms:

     one-electron contribution =    -609.23050405 Ry
     hartree contribution      =     326.04414167 Ry
     xc contribution           =     -51.40226770 Ry
     ewald contribution        =       5.10171447 Ry
     smearing contrib. (-TS)   =      -0.00416117 Ry

     convergence has been achieved in   9 iterations

     Forces acting on atoms (Ry/au):

     atom    1 type  1   force =     0.00107856    0.00037317    0.00117873
     atom    2 type  1   force =     0.00029759   -0.00066270   -0.00043328
     atom    3 type  1   force =    -0.00192502    0.00046393   -0.00092158
     atom    4 type  1   force =    -0.00086104   -0.00058575   -0.00061369
     atom    5 type  1   force =     0.00140990    0.00041135    0.00078982

     Total force =     0.003524     Total SCF correction =     0.000043

     number of scf cycles    =  48
     number of bfgs steps    =  46

     energy   old            =    -329.4910585542 Ry
     energy   new            =    -329.4910767798 Ry

     CASE: energy  _new < energy  _old

     new trust radius        =       0.0122537197 bohr
     new conv_thr            =            1.0E-10 Ry


ATOMIC_POSITIONS (bohr)
Au      -1.979041217   0.854327298  -0.614266699
Au      -0.788765205   3.068841807   3.923802024
Au       2.907462578   0.997732047   0.649872960
Au       4.145140020   3.376812991   5.481068185
Au       7.649456824   1.361483858   2.293133530



     Writing output data file pwscf.save
     Check: negative starting charge=   -0.006475
     NEW-OLD atomic charge density approx. for the potential
     Check: negative starting charge=   -0.006473

     negative rho (up, down):  1.758E-05 0.000E+00

     total cpu time spent up to now is      126.1 secs

     per-process dynamical memory:    50.7 Mb

     Self-consistent Calculation

     iteration #  1     ecut=    30.00 Ry     beta=0.70
     Davidson diagonalization with overlap
     ethr =  1.00E-06,  avg # of iterations =  4.0

     Threshold (ethr) on eigenvalues was too large:
     Diagonalizing with lowered threshold

     Davidson diagonalization with overlap
     ethr =  5.87E-08,  avg # of iterations =  1.0

     negative rho (up, down):  2.238E-08 0.000E+00

     total cpu time spent up to now is      126.5 secs

     total energy              =    -329.49108373 Ry
     Harris-Foulkes estimate   =    -329.49109217 Ry
     estimated scf accuracy    <       0.00003293 Ry

     iteration #  2     ecut=    30.00 Ry     beta=0.70
     Davidson diagonalization with overlap
     ethr =  5.99E-08,  avg # of iterations =  3.0

     total cpu time spent up to now is      126.8 secs

     total energy              =    -329.49108261 Ry
     Harris-Foulkes estimate   =    -329.49110794 Ry
     estimated scf accuracy    <       0.00005823 Ry

     iteration #  3     ecut=    30.00 Ry     beta=0.70
     Davidson diagonalization with overlap
     ethr =  5.99E-08,  avg # of iterations =  2.0

     total cpu time spent up to now is      127.0 secs

     total energy              =    -329.49109512 Ry
     Harris-Foulkes estimate   =    -329.49109871 Ry
     estimated scf accuracy    <       0.00001093 Ry

     iteration #  4     ecut=    30.00 Ry     beta=0.70
     Davidson diagonalization with overlap
     ethr =  1.99E-08,  avg # of iterations =  2.0

     total cpu time spent up to now is      127.2 secs

     total energy              =    -329.49109676 Ry
     Harris-Foulkes estimate   =    -329.49109742 Ry
     estimated scf accuracy    <       0.00000072 Ry

     iteration #  5     ecut=    30.00 Ry     beta=0.70
     Davidson diagonalization with overlap
     ethr =  1.30E-09,  avg # of iterations =  3.0

     total cpu time spent up to now is      127.4 secs

     total energy              =    -329.49109687 Ry
     Harris-Foulkes estimate   =    -329.49109704 Ry
     estimated scf accuracy    <       0.00000031 Ry

     iteration #  6     ecut=    30.00 Ry     beta=0.70
     Davidson diagonalization with overlap
     ethr =  5.61E-10,  avg # of iterations =  2.0

     total cpu time spent up to now is      127.6 secs

     total energy              =    -329.49109691 Ry
     Harris-Foulkes estimate   =    -329.49109693 Ry
     estimated scf accuracy    <       0.00000002 Ry

     iteration #  7     ecut=    30.00 Ry     beta=0.70
     Davidson diagonalization with overlap
     ethr =  3.25E-11,  avg # of iterations =  3.0

     total cpu time spent up to now is      127.8 secs

     total energy              =    -329.49109700 Ry
     Harris-Foulkes estimate   =    -329.49109692 Ry
     estimated scf accuracy    <          4.0E-09 Ry

     iteration #  8     ecut=    30.00 Ry     beta=0.70
     Davidson diagonalization with overlap
     ethr =  7.31E-12,  avg # of iterations =  3.0

     total cpu time spent up to now is      128.1 secs

     total energy              =    -329.49109697 Ry
     Harris-Foulkes estimate   =    -329.49109700 Ry
     estimated scf accuracy    <          2.2E-09 Ry

     iteration #  9     ecut=    30.00 Ry     beta=0.70
     Davidson diagonalization with overlap
     ethr =  3.95E-12,  avg # of iterations =  2.0

     total cpu time spent up to now is      128.3 secs

     total energy              =    -329.49109696 Ry
     Harris-Foulkes estimate   =    -329.49109697 Ry
     estimated scf accuracy    <          2.9E-10 Ry

     iteration # 10     ecut=    30.00 Ry     beta=0.70
     Davidson diagonalization with overlap
     ethr =  5.22E-13,  avg # of iterations =  3.0

     total cpu time spent up to now is      128.5 secs

     End of self-consistent calculation

          k = 0.0000 0.0000 0.0000 ( 22119 PWs)   bands (ev):

    -8.5199  -7.7846  -7.6496  -7.2264  -6.8695  -6.8243  -6.5987  -6.4825
    -6.3026  -6.0786  -5.9599  -5.7717  -5.7341  -5.6870  -5.4513  -5.3666
    -5.3171  -5.2451  -5.2013  -5.1941  -5.1667  -5.1270  -4.9922  -4.9225
    -4.8597  -4.7170  -4.4806  -3.7887  -2.5007  -2.2014  -0.5661  -0.1897
     0.5103   0.9221

     the Fermi energy is    -3.7575 ev

!    total energy              =    -329.49109696 Ry
     Harris-Foulkes estimate   =    -329.49109696 Ry
     estimated scf accuracy    <          1.9E-11 Ry

     The total energy is the sum of the following terms:

     one-electron contribution =    -609.24838313 Ry
     hartree contribution      =     326.05478607 Ry
     xc contribution           =     -51.40258985 Ry
     ewald contribution        =       5.10910149 Ry
     smearing contrib. (-TS)   =      -0.00401153 Ry

     convergence has been achieved in  10 iterations

     Forces acting on atoms (Ry/au):

     atom    1 type  1   force =     0.00022056    0.00039684    0.00044776
     atom    2 type  1   force =     0.00009026   -0.00071458   -0.00051232
     atom    3 type  1   force =    -0.00111442    0.00077145   -0.00029327
     atom    4 type  1   force =    -0.00008057   -0.00099446   -0.00029170
     atom    5 type  1   force =     0.00088417    0.00054076    0.00064953

     Total force =     0.002385     Total SCF correction =     0.000022

     number of scf cycles    =  49
     number of bfgs steps    =  47

     energy   old            =    -329.4910767798 Ry
     energy   new            =    -329.4910969554 Ry

     CASE: energy  _new < energy  _old

     new trust radius        =       0.0051810581 bohr
     new conv_thr            =            1.0E-10 Ry


ATOMIC_POSITIONS (bohr)
Au      -1.976894533   0.855439401  -0.611608137
Au      -0.791312240   3.067447971   3.925624312
Au       2.906992959   0.999959052   0.647633411
Au       4.142487964   3.375651745   5.476771504
Au       7.652978851   1.360699831   2.295188911



     Writing output data file pwscf.save
     Check: negative starting charge=   -0.006473
     NEW-OLD atomic charge density approx. for the potential
     Check: negative starting charge=   -0.006474

     negative rho (up, down):  2.705E-07 0.000E+00

     total cpu time spent up to now is      128.8 secs

     per-process dynamical memory:    50.7 Mb

     Self-consistent Calculation

     iteration #  1     ecut=    30.00 Ry     beta=0.70
     Davidson diagonalization with overlap
     ethr =  1.00E-06,  avg # of iterations =  3.0

     Threshold (ethr) on eigenvalues was too large:
     Diagonalizing with lowered threshold

     Davidson diagonalization with overlap
     ethr =  1.14E-08,  avg # of iterations =  2.0

     total cpu time spent up to now is      129.2 secs

     total energy              =    -329.49110190 Ry
     Harris-Foulkes estimate   =    -329.49110311 Ry
     estimated scf accuracy    <       0.00000667 Ry

     iteration #  2     ecut=    30.00 Ry     beta=0.70
     Davidson diagonalization with overlap
     ethr =  1.21E-08,  avg # of iterations =  2.0

     total cpu time spent up to now is      129.4 secs

     total energy              =    -329.49110138 Ry
     Harris-Foulkes estimate   =    -329.49110791 Ry
     estimated scf accuracy    <       0.00001641 Ry

     iteration #  3     ecut=    30.00 Ry     beta=0.70
     Davidson diagonalization with overlap
     ethr =  1.21E-08,  avg # of iterations =  2.0

     total cpu time spent up to now is      129.7 secs

     total energy              =    -329.49110447 Ry
     Harris-Foulkes estimate   =    -329.49110526 Ry
     estimated scf accuracy    <       0.00000176 Ry

     iteration #  4     ecut=    30.00 Ry     beta=0.70
     Davidson diagonalization with overlap
     ethr =  3.20E-09,  avg # of iterations =  2.0

     total cpu time spent up to now is      129.9 secs

     total energy              =    -329.49110484 Ry
     Harris-Foulkes estimate   =    -329.49110485 Ry
     estimated scf accuracy    <       0.00000012 Ry

     iteration #  5     ecut=    30.00 Ry     beta=0.70
     Davidson diagonalization with overlap
     ethr =  2.09E-10,  avg # of iterations =  2.0

     total cpu time spent up to now is      130.1 secs

     total energy              =    -329.49110482 Ry
     Harris-Foulkes estimate   =    -329.49110489 Ry
     estimated scf accuracy    <       0.00000003 Ry

     iteration #  6     ecut=    30.00 Ry     beta=0.70
     Davidson diagonalization with overlap
     ethr =  6.15E-11,  avg # of iterations =  2.0

     total cpu time spent up to now is      130.3 secs

     total energy              =    -329.49110482 Ry
     Harris-Foulkes estimate   =    -329.49110483 Ry
     estimated scf accuracy    <          3.7E-09 Ry

     iteration #  7     ecut=    30.00 Ry     beta=0.70
     Davidson diagonalization with overlap
     ethr =  6.66E-12,  avg # of iterations =  2.0

     total cpu time spent up to now is      130.5 secs

     total energy              =    -329.49110483 Ry
     Harris-Foulkes estimate   =    -329.49110482 Ry
     estimated scf accuracy    <          7.2E-10 Ry

     iteration #  8     ecut=    30.00 Ry     beta=0.70
     Davidson diagonalization with overlap
     ethr =  1.31E-12,  avg # of iterations =  3.0

     total cpu time spent up to now is      130.7 secs

     total energy              =    -329.49110486 Ry
     Harris-Foulkes estimate   =    -329.49110483 Ry
     estimated scf accuracy    <          3.3E-10 Ry

     iteration #  9     ecut=    30.00 Ry     beta=0.70
     Davidson diagonalization with overlap
     ethr =  6.01E-13,  avg # of iterations =  3.0

     total cpu time spent up to now is      131.0 secs

     End of self-consistent calculation

          k = 0.0000 0.0000 0.0000 ( 22119 PWs)   bands (ev):

    -8.5198  -7.7853  -7.6511  -7.2284  -6.8691  -6.8240  -6.6007  -6.4828
    -6.3041  -6.0779  -5.9600  -5.7726  -5.7346  -5.6872  -5.4520  -5.3668
    -5.3170  -5.2452  -5.2009  -5.1930  -5.1678  -5.1267  -4.9929  -4.9215
    -4.8578  -4.7186  -4.4792  -3.7884  -2.5021  -2.1992  -0.5664  -0.1894
     0.5114   0.9224

     the Fermi energy is    -3.7573 ev

!    total energy              =    -329.49110487 Ry
     Harris-Foulkes estimate   =    -329.49110486 Ry
     estimated scf accuracy    <          5.0E-11 Ry

     The total energy is the sum of the following terms:

     one-electron contribution =    -609.34084447 Ry
     hartree contribution      =     326.10079685 Ry
     xc contribution           =     -51.40292177 Ry
     ewald contribution        =       5.15585623 Ry
     smearing contrib. (-TS)   =      -0.00399171 Ry

     convergence has been achieved in   9 iterations

     Forces acting on atoms (Ry/au):

     atom    1 type  1   force =    -0.00037182    0.00032454   -0.00001655
     atom    2 type  1   force =    -0.00007322   -0.00061079   -0.00028529
     atom    3 type  1   force =    -0.00015231    0.00083491   -0.00004024
     atom    4 type  1   force =     0.00021264   -0.00108475   -0.00010377
     atom    5 type  1   force =     0.00038470    0.00053610    0.00044586

     Total force =     0.001815     Total SCF correction =     0.000030

     number of scf cycles    =  50
     number of bfgs steps    =  48

     energy   old            =    -329.4910969554 Ry
     energy   new            =    -329.4911048691 Ry

     CASE: energy  _new < energy  _old

     new trust radius        =       0.0037544079 bohr
     new conv_thr            =            1.0E-10 Ry


ATOMIC_POSITIONS (bohr)
Au      -1.976316590   0.856573975  -0.610045251
Au      -0.791869663   3.065540010   3.925721193
Au       2.905682848   1.002507771   0.646087923
Au       4.141092762   3.372908338   5.474621455
Au       7.655663643   1.361667906   2.297224679



     Writing output data file pwscf.save
     Check: negative starting charge=   -0.006474
     NEW-OLD atomic charge density approx. for the potential
     Check: negative starting charge=   -0.006476

     negative rho (up, down):  4.296E-08 0.000E+00

     Writing output data file pwscf.save
 
     init_run     :      0.16s CPU      0.20s WALL (       1 calls)
     electrons    :    113.88s CPU    121.70s WALL (      50 calls)
     update_pot   :      3.27s CPU      4.04s WALL (      50 calls)
     forces       :      2.07s CPU      2.10s WALL (      50 calls)

     Called by init_run:
     wfcinit      :      0.07s CPU      0.08s WALL (       1 calls)
     potinit      :      0.03s CPU      0.03s WALL (       1 calls)

     Called by electrons:
     c_bands      :     87.22s CPU     88.26s WALL (     512 calls)
     sum_band     :     12.10s CPU     12.37s WALL (     512 calls)
     v_of_rho     :      9.64s CPU      9.77s WALL (     546 calls)
     mix_rho      :      3.79s CPU      8.07s WALL (     512 calls)

     Called by c_bands:
     init_us_2    :      1.58s CPU      1.65s WALL (    1025 calls)
     cegterg      :     77.94s CPU     78.51s WALL (     512 calls)

     Called by sum_band:

     Called by *egterg:
     h_psi        :     60.42s CPU     60.85s WALL (    1880 calls)
     g_psi        :      0.62s CPU      0.62s WALL (    1367 calls)
     cdiaghg      :      4.51s CPU      4.53s WALL (    1813 calls)

     Called by h_psi:
     h_psi:pot    :     59.58s CPU     59.99s WALL (    1880 calls)
     h_psi:calbec :      3.34s CPU      3.34s WALL (    1880 calls)
     vloc_psi     :     52.57s CPU     52.97s WALL (    1880 calls)
     add_vuspsi   :      3.66s CPU      3.67s WALL (    1880 calls)

     General routines
     calbec       :      3.93s CPU      3.96s WALL (    2080 calls)
     fft          :      5.35s CPU      5.46s WALL (    6140 calls)
     fftw         :     55.04s CPU     55.88s WALL (  115856 calls)
     davcio       :      0.61s CPU      4.02s WALL (    5256 calls)
 
     Parallel routines
     fft_scatter  :     13.98s CPU     13.48s WALL (  121996 calls)
 
     PWSCF        :  2m 0.71s CPU     2m11.31s WALL

 
   This run was terminated on:  21:35:13   3Aug2017            

=------------------------------------------------------------------------------=
   JOB DONE.
=------------------------------------------------------------------------------=
