
     Program PWSCF v.6.0 (svn rev. 13079) starts on  3Aug2017 at 16:37:34 

     This program is part of the open-source Quantum ESPRESSO suite
     for quantum simulation of materials; please cite
         "P. Giannozzi et al., J. Phys.:Condens. Matter 21 395502 (2009);
          URL http://www.quantum-espresso.org", 
     in publications or presentations arising from this work. More details at
     http://www.quantum-espresso.org/quote

     Parallel version (MPI), running on    10 processors
     R & G space division:  proc/nbgrp/npool/nimage =      10
     Reading input from input/multi/minchecks-Gold5-263.in

     Current dimensions of program PWSCF are:
     Max number of different atomic species (ntypx) = 10
     Max number of k-points (npk) =  40000
     Max angular momentum in pseudopotentials (lmaxx) =  3
     Message from routine iosys:
     pot_extrapolation='second-order' not available, using 'atomic'
     Message from routine iosys:
     wfc_extrapolation='second-order' not available, using 'atomic'

     Subspace diagonalization in iterative solution of the eigenvalue problem:
     a serial algorithm will be used

 
     Parallelization info
     --------------------
     sticks:   dense  smooth     PW     G-vecs:    dense   smooth      PW
     Min         380     380     94                17748    17748    2208
     Max         381     381     95                17753    17753    2213
     Sum        3809    3809    949               177509   177509   22119
 


     bravais-lattice index     =            1
     lattice parameter (alat)  =      20.0000  a.u.
     unit-cell volume          =    8000.0000 (a.u.)^3
     number of atoms/cell      =            5
     number of atomic types    =            1
     number of electrons       =        55.00
     number of Kohn-Sham states=           34
     kinetic-energy cutoff     =      30.0000  Ry
     charge density cutoff     =     120.0000  Ry
     convergence threshold     =      1.0E-08
     mixing beta               =       0.7000
     number of iterations used =            8  plain     mixing
     Exchange-correlation      = BLYP ( 1  3  1  3 0 0)
     nstep                     =           50


     celldm(1)=  20.000000  celldm(2)=   0.000000  celldm(3)=   0.000000
     celldm(4)=   0.000000  celldm(5)=   0.000000  celldm(6)=   0.000000

     crystal axes: (cart. coord. in units of alat)
               a(1) = (   1.000000   0.000000   0.000000 )  
               a(2) = (   0.000000   1.000000   0.000000 )  
               a(3) = (   0.000000   0.000000   1.000000 )  

     reciprocal axes: (cart. coord. in units 2 pi/alat)
               b(1) = (  1.000000  0.000000  0.000000 )  
               b(2) = (  0.000000  1.000000  0.000000 )  
               b(3) = (  0.000000  0.000000  1.000000 )  


     PseudoPot. # 1 for Au read from file:
     ./Au.blyp-d-hgh.UPF
     MD5 check sum: c10d8bae01f806c36a1643a1c69a8479
     Pseudo is Norm-conserving, Zval = 11.0
     Generated in analytical, separable form
     Using radial grid of 1279 points,  6 beta functions with: 
                l(1) =   0
                l(2) =   0
                l(3) =   1
                l(4) =   1
                l(5) =   2
                l(6) =   2

     atomic species   valence    mass     pseudopotential
        Au            11.00    28.08600     Au( 1.00)

     No symmetry found



   Cartesian axes

     site n.     atom                  positions (alat units)
         1           Au  tau(   1) = (  -0.0992474   0.0381611  -0.0241442  )
         2           Au  tau(   2) = (  -0.0212842   0.1099869   0.2084399  )
         3           Au  tau(   3) = (   0.1488680   0.0899855   0.0245777  )
         4           Au  tau(   4) = (   0.2014905   0.1921698   0.2844998  )
         5           Au  tau(   5) = (   0.3823928   0.0877244   0.1056731  )

     number of k points=     1  Marzari-Vanderbilt smearing, width (Ry)=  0.0250
                       cart. coord. in units 2pi/alat
        k(    1) = (   0.0000000   0.0000000   0.0000000), wk =   2.0000000

     Dense  grid:   177509 G-vectors     FFT dimensions: (  72,  72,  72)

     Estimated max dynamical RAM per process >      15.04Mb

     Estimated total allocated dynamical RAM >     150.39Mb

     Initial potential from superposition of free atoms
     Check: negative starting charge=   -0.006418

     starting charge   54.99940, renormalised to   55.00000

     negative rho (up, down):  6.418E-03 0.000E+00
     Starting wfc are   45 randomized atomic wfcs

     total cpu time spent up to now is        0.3 secs

     per-process dynamical memory:    41.0 Mb

     Self-consistent Calculation

     iteration #  1     ecut=    30.00 Ry     beta=0.70
     Davidson diagonalization with overlap
     ethr =  1.00E-02,  avg # of iterations =  3.0

     Threshold (ethr) on eigenvalues was too large:
     Diagonalizing with lowered threshold

     Davidson diagonalization with overlap
     ethr =  4.55E-04,  avg # of iterations =  3.0

     negative rho (up, down):  8.627E-04 0.000E+00

     total cpu time spent up to now is        0.7 secs

     total energy              =    -329.35340027 Ry
     Harris-Foulkes estimate   =    -329.53784596 Ry
     estimated scf accuracy    <       0.30446082 Ry

     iteration #  2     ecut=    30.00 Ry     beta=0.70
     Davidson diagonalization with overlap
     ethr =  5.54E-04,  avg # of iterations =  5.0

     negative rho (up, down):  3.866E-04 0.000E+00

     total cpu time spent up to now is        1.1 secs

     total energy              =    -329.40407816 Ry
     Harris-Foulkes estimate   =    -329.56226917 Ry
     estimated scf accuracy    <       0.32354584 Ry

     iteration #  3     ecut=    30.00 Ry     beta=0.70
     Davidson diagonalization with overlap
     ethr =  5.54E-04,  avg # of iterations =  2.0

     negative rho (up, down):  1.478E-04 0.000E+00

     total cpu time spent up to now is        1.3 secs

     total energy              =    -329.46482801 Ry
     Harris-Foulkes estimate   =    -329.48993619 Ry
     estimated scf accuracy    <       0.05871335 Ry

     iteration #  4     ecut=    30.00 Ry     beta=0.70
     Davidson diagonalization with overlap
     ethr =  1.07E-04,  avg # of iterations =  2.0

     negative rho (up, down):  1.248E-05 0.000E+00

     total cpu time spent up to now is        1.5 secs

     total energy              =    -329.47655794 Ry
     Harris-Foulkes estimate   =    -329.47866776 Ry
     estimated scf accuracy    <       0.00567931 Ry

     iteration #  5     ecut=    30.00 Ry     beta=0.70
     Davidson diagonalization with overlap
     ethr =  1.03E-05,  avg # of iterations =  5.0

     negative rho (up, down):  1.046E-07 0.000E+00

     total cpu time spent up to now is        1.8 secs

     total energy              =    -329.47754745 Ry
     Harris-Foulkes estimate   =    -329.47862307 Ry
     estimated scf accuracy    <       0.00287107 Ry

     iteration #  6     ecut=    30.00 Ry     beta=0.70
     Davidson diagonalization with overlap
     ethr =  5.22E-06,  avg # of iterations =  2.0

     total cpu time spent up to now is        2.0 secs

     total energy              =    -329.47802755 Ry
     Harris-Foulkes estimate   =    -329.47823029 Ry
     estimated scf accuracy    <       0.00048536 Ry

     iteration #  7     ecut=    30.00 Ry     beta=0.70
     Davidson diagonalization with overlap
     ethr =  8.82E-07,  avg # of iterations =  2.0

     total cpu time spent up to now is        2.2 secs

     total energy              =    -329.47813073 Ry
     Harris-Foulkes estimate   =    -329.47816409 Ry
     estimated scf accuracy    <       0.00008854 Ry

     iteration #  8     ecut=    30.00 Ry     beta=0.70
     Davidson diagonalization with overlap
     ethr =  1.61E-07,  avg # of iterations =  2.0

     total cpu time spent up to now is        2.5 secs

     total energy              =    -329.47814517 Ry
     Harris-Foulkes estimate   =    -329.47815071 Ry
     estimated scf accuracy    <       0.00001236 Ry

     iteration #  9     ecut=    30.00 Ry     beta=0.70
     Davidson diagonalization with overlap
     ethr =  2.25E-08,  avg # of iterations =  2.0

     total cpu time spent up to now is        2.7 secs

     total energy              =    -329.47814762 Ry
     Harris-Foulkes estimate   =    -329.47814804 Ry
     estimated scf accuracy    <       0.00000093 Ry

     iteration # 10     ecut=    30.00 Ry     beta=0.70
     Davidson diagonalization with overlap
     ethr =  1.68E-09,  avg # of iterations =  3.0

     total cpu time spent up to now is        3.0 secs

     total energy              =    -329.47814772 Ry
     Harris-Foulkes estimate   =    -329.47814803 Ry
     estimated scf accuracy    <       0.00000042 Ry

     iteration # 11     ecut=    30.00 Ry     beta=0.70
     Davidson diagonalization with overlap
     ethr =  7.72E-10,  avg # of iterations =  2.0

     total cpu time spent up to now is        3.2 secs

     total energy              =    -329.47814779 Ry
     Harris-Foulkes estimate   =    -329.47814781 Ry
     estimated scf accuracy    <       0.00000005 Ry

     iteration # 12     ecut=    30.00 Ry     beta=0.70
     Davidson diagonalization with overlap
     ethr =  9.41E-11,  avg # of iterations =  2.0

     total cpu time spent up to now is        3.5 secs

     total energy              =    -329.47814780 Ry
     Harris-Foulkes estimate   =    -329.47814781 Ry
     estimated scf accuracy    <       0.00000002 Ry

     iteration # 13     ecut=    30.00 Ry     beta=0.70
     Davidson diagonalization with overlap
     ethr =  3.07E-11,  avg # of iterations =  2.0

     total cpu time spent up to now is        3.7 secs

     End of self-consistent calculation

          k = 0.0000 0.0000 0.0000 ( 22119 PWs)   bands (ev):

    -8.5642  -7.8765  -7.7543  -7.3919  -6.9888  -6.7375  -6.6409  -6.4177
    -6.2154  -6.0014  -5.8517  -5.8006  -5.6576  -5.5813  -5.4078  -5.3953
    -5.3482  -5.2587  -5.1980  -5.1746  -5.1178  -5.0697  -4.9431  -4.8649
    -4.8296  -4.5059  -4.4881  -3.8336  -2.4513  -2.1545  -0.5457  -0.1941
     0.5317   0.7717

     the Fermi energy is    -3.8307 ev

!    total energy              =    -329.47814778 Ry
     Harris-Foulkes estimate   =    -329.47814780 Ry
     estimated scf accuracy    <          9.4E-10 Ry

     The total energy is the sum of the following terms:

     one-electron contribution =    -612.57374557 Ry
     hartree contribution      =     327.76824511 Ry
     xc contribution           =     -51.43552182 Ry
     ewald contribution        =       6.76040679 Ry
     smearing contrib. (-TS)   =       0.00246771 Ry

     convergence has been achieved in  13 iterations

     Forces acting on atoms (Ry/au):

     atom    1 type  1   force =     0.00379905    0.00181340   -0.00483626
     atom    2 type  1   force =    -0.03310440   -0.00131368    0.01105718
     atom    3 type  1   force =    -0.00120603   -0.00850386   -0.01700982
     atom    4 type  1   force =     0.03028596   -0.00199740   -0.00506994
     atom    5 type  1   force =     0.00022542    0.01000155    0.01585885

     Total force =     0.054061     Total SCF correction =     0.000155

     BFGS Geometry Optimization

     number of scf cycles    =   1
     number of bfgs steps    =   0

     energy   new            =    -329.4781477778 Ry

     new trust radius        =       0.0349268968 bohr
     new conv_thr            =       0.0000000100 Ry


ATOMIC_POSITIONS (bohr)
Au      -1.981148953   0.765036404  -0.487721263
Au      -0.458788399   2.198424315   4.179855175
Au       2.976153973   1.791206136   0.474544180
Au       4.060094962   3.841398598   5.684926060
Au       7.648080417   1.764489548   2.129319848



     Writing output data file pwscf.save
     Check: negative starting charge=   -0.006418
     NEW-OLD atomic charge density approx. for the potential
     Check: negative starting charge=   -0.006433

     negative rho (up, down):  2.618E-04 0.000E+00

     total cpu time spent up to now is        4.0 secs

     per-process dynamical memory:    42.9 Mb

     Self-consistent Calculation

     iteration #  1     ecut=    30.00 Ry     beta=0.70
     Davidson diagonalization with overlap
     ethr =  1.00E-06,  avg # of iterations =  4.0

     negative rho (up, down):  6.287E-06 0.000E+00

     total cpu time spent up to now is        4.3 secs

     total energy              =    -329.48062172 Ry
     Harris-Foulkes estimate   =    -329.48063333 Ry
     estimated scf accuracy    <       0.00024486 Ry

     iteration #  2     ecut=    30.00 Ry     beta=0.70
     Davidson diagonalization with overlap
     ethr =  4.45E-07,  avg # of iterations =  3.0

     negative rho (up, down):  1.728E-06 0.000E+00

     total cpu time spent up to now is        4.6 secs

     total energy              =    -329.48057584 Ry
     Harris-Foulkes estimate   =    -329.48085296 Ry
     estimated scf accuracy    <       0.00073476 Ry

     iteration #  3     ecut=    30.00 Ry     beta=0.70
     Davidson diagonalization with overlap
     ethr =  4.45E-07,  avg # of iterations =  2.0

     negative rho (up, down):  1.533E-08 0.000E+00

     total cpu time spent up to now is        4.8 secs

     total energy              =    -329.48071714 Ry
     Harris-Foulkes estimate   =    -329.48073573 Ry
     estimated scf accuracy    <       0.00006565 Ry

     iteration #  4     ecut=    30.00 Ry     beta=0.70
     Davidson diagonalization with overlap
     ethr =  1.19E-07,  avg # of iterations =  2.0

     total cpu time spent up to now is        5.1 secs

     total energy              =    -329.48072810 Ry
     Harris-Foulkes estimate   =    -329.48073385 Ry
     estimated scf accuracy    <       0.00001631 Ry

     iteration #  5     ecut=    30.00 Ry     beta=0.70
     Davidson diagonalization with overlap
     ethr =  2.97E-08,  avg # of iterations =  2.0

     total cpu time spent up to now is        5.3 secs

     total energy              =    -329.48073188 Ry
     Harris-Foulkes estimate   =    -329.48073313 Ry
     estimated scf accuracy    <       0.00000422 Ry

     iteration #  6     ecut=    30.00 Ry     beta=0.70
     Davidson diagonalization with overlap
     ethr =  7.67E-09,  avg # of iterations =  2.0

     total cpu time spent up to now is        5.4 secs

     total energy              =    -329.48073275 Ry
     Harris-Foulkes estimate   =    -329.48073271 Ry
     estimated scf accuracy    <       0.00000012 Ry

     iteration #  7     ecut=    30.00 Ry     beta=0.70
     Davidson diagonalization with overlap
     ethr =  2.27E-10,  avg # of iterations =  3.0

     total cpu time spent up to now is        5.7 secs

     total energy              =    -329.48073290 Ry
     Harris-Foulkes estimate   =    -329.48073282 Ry
     estimated scf accuracy    <       0.00000003 Ry

     iteration #  8     ecut=    30.00 Ry     beta=0.70
     Davidson diagonalization with overlap
     ethr =  4.93E-11,  avg # of iterations =  2.0

     total cpu time spent up to now is        5.9 secs

     End of self-consistent calculation

          k = 0.0000 0.0000 0.0000 ( 22119 PWs)   bands (ev):

    -8.5397  -7.8140  -7.7428  -7.3433  -6.9786  -6.7483  -6.6067  -6.4192
    -6.2346  -6.0125  -5.8632  -5.8019  -5.6703  -5.5958  -5.4241  -5.4034
    -5.3513  -5.2568  -5.2003  -5.1882  -5.1331  -5.0880  -4.9577  -4.8887
    -4.8556  -4.5340  -4.5058  -3.8245  -2.4651  -2.1851  -0.5445  -0.1958
     0.5201   0.7589

     the Fermi energy is    -3.8102 ev

!    total energy              =    -329.48073295 Ry
     Harris-Foulkes estimate   =    -329.48073291 Ry
     estimated scf accuracy    <          6.5E-09 Ry

     The total energy is the sum of the following terms:

     one-electron contribution =    -610.88280884 Ry
     hartree contribution      =     326.90891160 Ry
     xc contribution           =     -51.42111947 Ry
     ewald contribution        =       5.91424715 Ry
     smearing contrib. (-TS)   =       0.00003661 Ry

     convergence has been achieved in   8 iterations

     Forces acting on atoms (Ry/au):

     atom    1 type  1   force =     0.00367668    0.00173180   -0.00439468
     atom    2 type  1   force =    -0.02310348    0.00091237    0.00970663
     atom    3 type  1   force =    -0.00223500   -0.00786820   -0.01201572
     atom    4 type  1   force =     0.02284711   -0.00441917   -0.00784413
     atom    5 type  1   force =    -0.00118531    0.00964320    0.01454790

     Total force =     0.042250     Total SCF correction =     0.000410

     number of scf cycles    =   2
     number of bfgs steps    =   1

     energy   old            =    -329.4781477778 Ry
     energy   new            =    -329.4807329482 Ry

     CASE: energy  _new < energy  _old

     new trust radius        =       0.0384195864 bohr
     new conv_thr            =       0.0000000023 Ry


ATOMIC_POSITIONS (bohr)
Au      -1.975653967   0.767627222  -0.494320799
Au      -0.494301219   2.199547535   4.194471694
Au       2.972931187   1.779406869   0.456096647
Au       4.094952610   3.835067568   5.673525928
Au       7.646463389   1.778905805   2.151150530



     Writing output data file pwscf.save
     Check: negative starting charge=   -0.006433
     NEW-OLD atomic charge density approx. for the potential
     Check: negative starting charge=   -0.006465

     negative rho (up, down):  3.718E-04 0.000E+00

     total cpu time spent up to now is        6.1 secs

     per-process dynamical memory:    50.7 Mb

     Self-consistent Calculation

     iteration #  1     ecut=    30.00 Ry     beta=0.70
     Davidson diagonalization with overlap
     ethr =  1.00E-06,  avg # of iterations =  5.0

     negative rho (up, down):  1.183E-05 0.000E+00

     total cpu time spent up to now is        6.5 secs

     total energy              =    -329.48294833 Ry
     Harris-Foulkes estimate   =    -329.48289695 Ry
     estimated scf accuracy    <       0.00030515 Ry

     iteration #  2     ecut=    30.00 Ry     beta=0.70
     Davidson diagonalization with overlap
     ethr =  5.55E-07,  avg # of iterations =  3.0

     negative rho (up, down):  3.559E-06 0.000E+00

     total cpu time spent up to now is        6.8 secs

     total energy              =    -329.48289377 Ry
     Harris-Foulkes estimate   =    -329.48322667 Ry
     estimated scf accuracy    <       0.00086494 Ry

     iteration #  3     ecut=    30.00 Ry     beta=0.70
     Davidson diagonalization with overlap
     ethr =  5.55E-07,  avg # of iterations =  2.0

     negative rho (up, down):  3.971E-08 0.000E+00

     total cpu time spent up to now is        7.0 secs

     total energy              =    -329.48306460 Ry
     Harris-Foulkes estimate   =    -329.48308745 Ry
     estimated scf accuracy    <       0.00008184 Ry

     iteration #  4     ecut=    30.00 Ry     beta=0.70
     Davidson diagonalization with overlap
     ethr =  1.49E-07,  avg # of iterations =  2.0

     total cpu time spent up to now is        7.3 secs

     total energy              =    -329.48307892 Ry
     Harris-Foulkes estimate   =    -329.48308464 Ry
     estimated scf accuracy    <       0.00001656 Ry

     iteration #  5     ecut=    30.00 Ry     beta=0.70
     Davidson diagonalization with overlap
     ethr =  3.01E-08,  avg # of iterations =  2.0

     total cpu time spent up to now is        7.5 secs

     total energy              =    -329.48308250 Ry
     Harris-Foulkes estimate   =    -329.48308438 Ry
     estimated scf accuracy    <       0.00000554 Ry

     iteration #  6     ecut=    30.00 Ry     beta=0.70
     Davidson diagonalization with overlap
     ethr =  1.01E-08,  avg # of iterations =  2.0

     total cpu time spent up to now is        7.7 secs

     total energy              =    -329.48308346 Ry
     Harris-Foulkes estimate   =    -329.48308356 Ry
     estimated scf accuracy    <       0.00000016 Ry

     iteration #  7     ecut=    30.00 Ry     beta=0.70
     Davidson diagonalization with overlap
     ethr =  2.88E-10,  avg # of iterations =  3.0

     total cpu time spent up to now is        7.9 secs

     total energy              =    -329.48308357 Ry
     Harris-Foulkes estimate   =    -329.48308354 Ry
     estimated scf accuracy    <       0.00000005 Ry

     iteration #  8     ecut=    30.00 Ry     beta=0.70
     Davidson diagonalization with overlap
     ethr =  8.41E-11,  avg # of iterations =  3.0

     total cpu time spent up to now is        8.2 secs

     total energy              =    -329.48308358 Ry
     Harris-Foulkes estimate   =    -329.48308359 Ry
     estimated scf accuracy    <          9.6E-09 Ry

     iteration #  9     ecut=    30.00 Ry     beta=0.70
     Davidson diagonalization with overlap
     ethr =  1.75E-11,  avg # of iterations =  2.0

     total cpu time spent up to now is        8.4 secs

     End of self-consistent calculation

          k = 0.0000 0.0000 0.0000 ( 22119 PWs)   bands (ev):

    -8.5130  -7.7510  -7.7303  -7.2869  -6.9733  -6.7604  -6.5751  -6.4273
    -6.2457  -6.0209  -5.8847  -5.7980  -5.6836  -5.6069  -5.4341  -5.4070
    -5.3484  -5.2525  -5.2059  -5.1912  -5.1460  -5.1034  -4.9687  -4.9108
    -4.8726  -4.5586  -4.5164  -3.8121  -2.4777  -2.2117  -0.5429  -0.1973
     0.5085   0.7489

     the Fermi energy is    -3.7895 ev

!    total energy              =    -329.48308362 Ry
     Harris-Foulkes estimate   =    -329.48308358 Ry
     estimated scf accuracy    <          7.6E-10 Ry

     The total energy is the sum of the following terms:

     one-electron contribution =    -609.37654450 Ry
     hartree contribution      =     326.14769881 Ry
     xc contribution           =     -51.40925920 Ry
     ewald contribution        =       5.15683299 Ry
     smearing contrib. (-TS)   =      -0.00181171 Ry

     convergence has been achieved in   9 iterations

     Forces acting on atoms (Ry/au):

     atom    1 type  1   force =     0.00322998    0.00163601   -0.00364469
     atom    2 type  1   force =    -0.01349900    0.00224870    0.00826155
     atom    3 type  1   force =    -0.00281415   -0.00721490   -0.00738500
     atom    4 type  1   force =     0.01569536   -0.00595001   -0.00998563
     atom    5 type  1   force =    -0.00261219    0.00928020    0.01275377

     Total force =     0.032148     Total SCF correction =     0.000133

     number of scf cycles    =   3
     number of bfgs steps    =   2

     energy   old            =    -329.4807329482 Ry
     energy   new            =    -329.4830836199 Ry

     CASE: energy  _new < energy  _old

     new trust radius        =       0.0576293796 bohr
     new conv_thr            =       0.0000000016 Ry


ATOMIC_POSITIONS (bohr)
Au      -1.966562454   0.772128566  -0.504876054
Au      -0.541606307   2.203808675   4.218287752
Au       2.966159672   1.759280124   0.430881927
Au       4.145342067   3.821080495   5.649310030
Au       7.641059022   1.804257140   2.187320345



     Writing output data file pwscf.save
     Check: negative starting charge=   -0.006465
     NEW-OLD atomic charge density approx. for the potential
     Check: negative starting charge=   -0.006512

     negative rho (up, down):  8.020E-04 0.000E+00

     total cpu time spent up to now is        8.6 secs

     per-process dynamical memory:    50.7 Mb

     Self-consistent Calculation

     iteration #  1     ecut=    30.00 Ry     beta=0.70
     Davidson diagonalization with overlap
     ethr =  1.00E-06,  avg # of iterations =  9.0

     negative rho (up, down):  4.479E-05 0.000E+00

     total cpu time spent up to now is        9.3 secs

     total energy              =    -329.48529296 Ry
     Harris-Foulkes estimate   =    -329.48492051 Ry
     estimated scf accuracy    <       0.00064313 Ry

     iteration #  2     ecut=    30.00 Ry     beta=0.70
     Davidson diagonalization with overlap
     ethr =  1.17E-06,  avg # of iterations =  5.0

     negative rho (up, down):  1.693E-05 0.000E+00

     total cpu time spent up to now is        9.6 secs

     total energy              =    -329.48517863 Ry
     Harris-Foulkes estimate   =    -329.48584800 Ry
     estimated scf accuracy    <       0.00170951 Ry

     iteration #  3     ecut=    30.00 Ry     beta=0.70
     Davidson diagonalization with overlap
     ethr =  1.17E-06,  avg # of iterations =  2.0

     negative rho (up, down):  3.843E-07 0.000E+00

     total cpu time spent up to now is        9.8 secs

     total energy              =    -329.48552301 Ry
     Harris-Foulkes estimate   =    -329.48557454 Ry
     estimated scf accuracy    <       0.00017798 Ry

     iteration #  4     ecut=    30.00 Ry     beta=0.70
     Davidson diagonalization with overlap
     ethr =  3.24E-07,  avg # of iterations =  2.0

     total cpu time spent up to now is       10.0 secs

     total energy              =    -329.48555534 Ry
     Harris-Foulkes estimate   =    -329.48556528 Ry
     estimated scf accuracy    <       0.00003041 Ry

     iteration #  5     ecut=    30.00 Ry     beta=0.70
     Davidson diagonalization with overlap
     ethr =  5.53E-08,  avg # of iterations =  2.0

     total cpu time spent up to now is       10.2 secs

     total energy              =    -329.48556172 Ry
     Harris-Foulkes estimate   =    -329.48556541 Ry
     estimated scf accuracy    <       0.00001074 Ry

     iteration #  6     ecut=    30.00 Ry     beta=0.70
     Davidson diagonalization with overlap
     ethr =  1.95E-08,  avg # of iterations =  2.0

     total cpu time spent up to now is       10.4 secs

     total energy              =    -329.48556450 Ry
     Harris-Foulkes estimate   =    -329.48556387 Ry
     estimated scf accuracy    <       0.00000038 Ry

     iteration #  7     ecut=    30.00 Ry     beta=0.70
     Davidson diagonalization with overlap
     ethr =  6.93E-10,  avg # of iterations =  3.0

     total cpu time spent up to now is       10.7 secs

     total energy              =    -329.48556454 Ry
     Harris-Foulkes estimate   =    -329.48556469 Ry
     estimated scf accuracy    <       0.00000015 Ry

     iteration #  8     ecut=    30.00 Ry     beta=0.70
     Davidson diagonalization with overlap
     ethr =  2.78E-10,  avg # of iterations =  2.0

     total cpu time spent up to now is       10.9 secs

     total energy              =    -329.48556460 Ry
     Harris-Foulkes estimate   =    -329.48556458 Ry
     estimated scf accuracy    <       0.00000002 Ry

     iteration #  9     ecut=    30.00 Ry     beta=0.70
     Davidson diagonalization with overlap
     ethr =  3.36E-11,  avg # of iterations =  2.0

     total cpu time spent up to now is       11.1 secs

     End of self-consistent calculation

          k = 0.0000 0.0000 0.0000 ( 22119 PWs)   bands (ev):

    -8.4796  -7.7309  -7.6597  -7.2142  -6.9781  -6.7738  -6.5549  -6.4464
    -6.2410  -6.0323  -5.9237  -5.7900  -5.7006  -5.6180  -5.4378  -5.4087
    -5.3396  -5.2457  -5.2114  -5.1898  -5.1599  -5.1188  -4.9795  -4.9350
    -4.8878  -4.5854  -4.5226  -3.7919  -2.4923  -2.2399  -0.5407  -0.1984
     0.4924   0.7397

     the Fermi energy is    -3.7618 ev

!    total energy              =    -329.48556459 Ry
     Harris-Foulkes estimate   =    -329.48556461 Ry
     estimated scf accuracy    <          1.5E-09 Ry

     The total energy is the sum of the following terms:

     one-electron contribution =    -607.80986468 Ry
     hartree contribution      =     325.35867348 Ry
     xc contribution           =     -51.39793376 Ry
     ewald contribution        =       4.36711837 Ry
     smearing contrib. (-TS)   =      -0.00355799 Ry

     convergence has been achieved in   9 iterations

     Forces acting on atoms (Ry/au):

     atom    1 type  1   force =     0.00282204    0.00122819   -0.00219919
     atom    2 type  1   force =    -0.00402557    0.00348721    0.00625432
     atom    3 type  1   force =    -0.00212798   -0.00640831   -0.00223297
     atom    4 type  1   force =     0.00646128   -0.00688123   -0.01104281
     atom    5 type  1   force =    -0.00312977    0.00857414    0.00922064

     Total force =     0.022622     Total SCF correction =     0.000201

     number of scf cycles    =   4
     number of bfgs steps    =   3

     energy   old            =    -329.4830836199 Ry
     energy   new            =    -329.4855645862 Ry

     CASE: energy  _new < energy  _old

     new trust radius        =       0.0864440695 bohr
     new conv_thr            =       0.0000000011 Ry


ATOMIC_POSITIONS (bohr)
Au      -1.951379798   0.779200142  -0.520310078
Au      -0.603948158   2.214138774   4.256003647
Au       2.955696955   1.725373875   0.397850309
Au       4.213786920   3.794159417   5.603888286
Au       7.630236081   1.847682793   2.243491835



     Writing output data file pwscf.save
     Check: negative starting charge=   -0.006512
     NEW-OLD atomic charge density approx. for the potential
     Check: negative starting charge=   -0.006509

     negative rho (up, down):  1.555E-03 0.000E+00

     total cpu time spent up to now is       11.4 secs

     per-process dynamical memory:    50.7 Mb

     Self-consistent Calculation

     iteration #  1     ecut=    30.00 Ry     beta=0.70
     Davidson diagonalization with overlap
     ethr =  1.00E-06,  avg # of iterations = 11.0

     negative rho (up, down):  1.281E-04 0.000E+00

     total cpu time spent up to now is       11.9 secs

     total energy              =    -329.48667680 Ry
     Harris-Foulkes estimate   =    -329.48566780 Ry
     estimated scf accuracy    <       0.00138722 Ry

     iteration #  2     ecut=    30.00 Ry     beta=0.70
     Davidson diagonalization with overlap
     ethr =  2.52E-06,  avg # of iterations =  6.0

     negative rho (up, down):  5.724E-05 0.000E+00

     total cpu time spent up to now is       12.2 secs

     total energy              =    -329.48645103 Ry
     Harris-Foulkes estimate   =    -329.48783681 Ry
     estimated scf accuracy    <       0.00352513 Ry

     iteration #  3     ecut=    30.00 Ry     beta=0.70
     Davidson diagonalization with overlap
     ethr =  2.52E-06,  avg # of iterations =  3.0

     negative rho (up, down):  2.748E-06 0.000E+00

     total cpu time spent up to now is       12.4 secs

     total energy              =    -329.48717066 Ry
     Harris-Foulkes estimate   =    -329.48728814 Ry
     estimated scf accuracy    <       0.00039803 Ry

     iteration #  4     ecut=    30.00 Ry     beta=0.70
     Davidson diagonalization with overlap
     ethr =  7.24E-07,  avg # of iterations =  2.0

     total cpu time spent up to now is       12.7 secs

     total energy              =    -329.48724163 Ry
     Harris-Foulkes estimate   =    -329.48726083 Ry
     estimated scf accuracy    <       0.00005636 Ry

     iteration #  5     ecut=    30.00 Ry     beta=0.70
     Davidson diagonalization with overlap
     ethr =  1.02E-07,  avg # of iterations =  2.0

     total cpu time spent up to now is       12.9 secs

     total energy              =    -329.48725307 Ry
     Harris-Foulkes estimate   =    -329.48726053 Ry
     estimated scf accuracy    <       0.00002007 Ry

     iteration #  6     ecut=    30.00 Ry     beta=0.70
     Davidson diagonalization with overlap
     ethr =  3.65E-08,  avg # of iterations =  2.0

     total cpu time spent up to now is       13.1 secs

     total energy              =    -329.48725694 Ry
     Harris-Foulkes estimate   =    -329.48725726 Ry
     estimated scf accuracy    <       0.00000086 Ry

     iteration #  7     ecut=    30.00 Ry     beta=0.70
     Davidson diagonalization with overlap
     ethr =  1.57E-09,  avg # of iterations =  3.0

     total cpu time spent up to now is       13.3 secs

     total energy              =    -329.48725741 Ry
     Harris-Foulkes estimate   =    -329.48725733 Ry
     estimated scf accuracy    <       0.00000045 Ry

     iteration #  8     ecut=    30.00 Ry     beta=0.70
     Davidson diagonalization with overlap
     ethr =  8.13E-10,  avg # of iterations =  2.0

     total cpu time spent up to now is       13.5 secs

     total energy              =    -329.48725753 Ry
     Harris-Foulkes estimate   =    -329.48725751 Ry
     estimated scf accuracy    <       0.00000003 Ry

     iteration #  9     ecut=    30.00 Ry     beta=0.70
     Davidson diagonalization with overlap
     ethr =  4.73E-11,  avg # of iterations =  2.0

     total cpu time spent up to now is       13.8 secs

     total energy              =    -329.48725756 Ry
     Harris-Foulkes estimate   =    -329.48725753 Ry
     estimated scf accuracy    <          4.1E-09 Ry

     iteration # 10     ecut=    30.00 Ry     beta=0.70
     Davidson diagonalization with overlap
     ethr =  7.44E-12,  avg # of iterations =  2.0

     total cpu time spent up to now is       14.0 secs

     End of self-consistent calculation

          k = 0.0000 0.0000 0.0000 ( 22119 PWs)   bands (ev):

    -8.4441  -7.7349  -7.5681  -7.1651  -6.9714  -6.7801  -6.6004  -6.4496
    -6.2128  -6.0591  -5.9699  -5.7806  -5.7187  -5.6299  -5.4326  -5.4045
    -5.3257  -5.2385  -5.2112  -5.1915  -5.1681  -5.1302  -4.9874  -4.9571
    -4.9022  -4.6117  -4.5217  -3.7621  -2.5078  -2.2647  -0.5384  -0.1976
     0.4704   0.7340

     the Fermi energy is    -3.7262 ev

!    total energy              =    -329.48725756 Ry
     Harris-Foulkes estimate   =    -329.48725756 Ry
     estimated scf accuracy    <          6.1E-10 Ry

     The total energy is the sum of the following terms:

     one-electron contribution =    -606.46878135 Ry
     hartree contribution      =     324.68389662 Ry
     xc contribution           =     -51.38999077 Ry
     ewald contribution        =       3.69261637 Ry
     smearing contrib. (-TS)   =      -0.00499843 Ry

     convergence has been achieved in  10 iterations

     Forces acting on atoms (Ry/au):

     atom    1 type  1   force =     0.00182008    0.00044045    0.00042755
     atom    2 type  1   force =     0.00556333    0.00446631    0.00143587
     atom    3 type  1   force =     0.00005238   -0.00508066    0.00361632
     atom    4 type  1   force =    -0.00644183   -0.00604171   -0.00749725
     atom    5 type  1   force =    -0.00099396    0.00621561    0.00201750

     Total force =     0.016536     Total SCF correction =     0.000119

     number of scf cycles    =   5
     number of bfgs steps    =   4

     energy   old            =    -329.4855645862 Ry
     energy   new            =    -329.4872575606 Ry

     CASE: energy  _new < energy  _old

     new trust radius        =       0.0157127064 bohr
     new conv_thr            =       0.0000000007 Ry


ATOMIC_POSITIONS (bohr)
Au      -1.947598122   0.780520586  -0.521810492
Au      -0.608109911   2.219604506   4.262269725
Au       2.954772700   1.715802172   0.396473891
Au       4.216943806   3.785163170   5.591398661
Au       7.628383527   1.859464566   2.252592216



     Writing output data file pwscf.save
     Check: negative starting charge=   -0.006509
     NEW-OLD atomic charge density approx. for the potential
     Check: negative starting charge=   -0.006503

     negative rho (up, down):  4.174E-05 0.000E+00

     total cpu time spent up to now is       14.3 secs

     per-process dynamical memory:    50.7 Mb

     Self-consistent Calculation

     iteration #  1     ecut=    30.00 Ry     beta=0.70
     Davidson diagonalization with overlap
     ethr =  1.00E-06,  avg # of iterations =  4.0

     Threshold (ethr) on eigenvalues was too large:
     Diagonalizing with lowered threshold

     Davidson diagonalization with overlap
     ethr =  8.76E-08,  avg # of iterations =  1.0

     negative rho (up, down):  1.425E-07 0.000E+00

     total cpu time spent up to now is       14.8 secs

     total energy              =    -329.48748550 Ry
     Harris-Foulkes estimate   =    -329.48749699 Ry
     estimated scf accuracy    <       0.00004841 Ry

     iteration #  2     ecut=    30.00 Ry     beta=0.70
     Davidson diagonalization with overlap
     ethr =  8.80E-08,  avg # of iterations =  3.0

     total cpu time spent up to now is       15.1 secs

     total energy              =    -329.48748408 Ry
     Harris-Foulkes estimate   =    -329.48751804 Ry
     estimated scf accuracy    <       0.00007704 Ry

     iteration #  3     ecut=    30.00 Ry     beta=0.70
     Davidson diagonalization with overlap
     ethr =  8.80E-08,  avg # of iterations =  2.0

     total cpu time spent up to now is       15.3 secs

     total energy              =    -329.48749984 Ry
     Harris-Foulkes estimate   =    -329.48750646 Ry
     estimated scf accuracy    <       0.00001919 Ry

     iteration #  4     ecut=    30.00 Ry     beta=0.70
     Davidson diagonalization with overlap
     ethr =  3.49E-08,  avg # of iterations =  2.0

     total cpu time spent up to now is       15.5 secs

     total energy              =    -329.48750368 Ry
     Harris-Foulkes estimate   =    -329.48750402 Ry
     estimated scf accuracy    <       0.00000165 Ry

     iteration #  5     ecut=    30.00 Ry     beta=0.70
     Davidson diagonalization with overlap
     ethr =  2.99E-09,  avg # of iterations =  2.0

     total cpu time spent up to now is       15.7 secs

     total energy              =    -329.48750389 Ry
     Harris-Foulkes estimate   =    -329.48750418 Ry
     estimated scf accuracy    <       0.00000038 Ry

     iteration #  6     ecut=    30.00 Ry     beta=0.70
     Davidson diagonalization with overlap
     ethr =  6.87E-10,  avg # of iterations =  2.0

     total cpu time spent up to now is       16.0 secs

     total energy              =    -329.48750400 Ry
     Harris-Foulkes estimate   =    -329.48750398 Ry
     estimated scf accuracy    <       0.00000002 Ry

     iteration #  7     ecut=    30.00 Ry     beta=0.70
     Davidson diagonalization with overlap
     ethr =  4.31E-11,  avg # of iterations =  3.0

     total cpu time spent up to now is       16.2 secs

     total energy              =    -329.48750397 Ry
     Harris-Foulkes estimate   =    -329.48750400 Ry
     estimated scf accuracy    <          4.1E-09 Ry

     iteration #  8     ecut=    30.00 Ry     beta=0.70
     Davidson diagonalization with overlap
     ethr =  7.52E-12,  avg # of iterations =  3.0

     total cpu time spent up to now is       16.5 secs

     total energy              =    -329.48750401 Ry
     Harris-Foulkes estimate   =    -329.48750398 Ry
     estimated scf accuracy    <          9.2E-10 Ry

     iteration #  9     ecut=    30.00 Ry     beta=0.70
     Davidson diagonalization with overlap
     ethr =  1.68E-12,  avg # of iterations =  3.0

     total cpu time spent up to now is       16.7 secs

     End of self-consistent calculation

          k = 0.0000 0.0000 0.0000 ( 22119 PWs)   bands (ev):

    -8.4464  -7.7433  -7.5715  -7.1757  -6.9718  -6.7842  -6.6143  -6.4549
    -6.2171  -6.0646  -5.9749  -5.7804  -5.7221  -5.6342  -5.4318  -5.4044
    -5.3249  -5.2381  -5.2117  -5.1924  -5.1680  -5.1305  -4.9872  -4.9573
    -4.9020  -4.6149  -4.5179  -3.7588  -2.5083  -2.2601  -0.5400  -0.1978
     0.4683   0.7374

     the Fermi energy is    -3.7228 ev

!    total energy              =    -329.48750400 Ry
     Harris-Foulkes estimate   =    -329.48750401 Ry
     estimated scf accuracy    <          2.5E-10 Ry

     The total energy is the sum of the following terms:

     one-electron contribution =    -606.86947928 Ry
     hartree contribution      =     324.88035275 Ry
     xc contribution           =     -51.39141158 Ry
     ewald contribution        =       3.89809025 Ry
     smearing contrib. (-TS)   =      -0.00505613 Ry

     convergence has been achieved in   9 iterations

     Forces acting on atoms (Ry/au):

     atom    1 type  1   force =     0.00145633    0.00034365    0.00068499
     atom    2 type  1   force =     0.00559704    0.00410200    0.00071646
     atom    3 type  1   force =     0.00043337   -0.00481064    0.00383198
     atom    4 type  1   force =    -0.00759848   -0.00516466   -0.00567948
     atom    5 type  1   force =     0.00011174    0.00552965    0.00044605

     Total force =     0.015390     Total SCF correction =     0.000056

     number of scf cycles    =   6
     number of bfgs steps    =   5

     energy   old            =    -329.4872575606 Ry
     energy   new            =    -329.4875040017 Ry

     CASE: energy  _new < energy  _old

     new trust radius        =       0.0172839771 bohr
     new conv_thr            =       0.0000000002 Ry


ATOMIC_POSITIONS (bohr)
Au      -1.943746686   0.781692523  -0.522093432
Au      -0.606650968   2.226844363   4.267042601
Au       2.954851614   1.704846290   0.398736602
Au       4.212239147   3.774732319   5.578444920
Au       7.627698892   1.872439504   2.258793310



     Writing output data file pwscf.save
     Check: negative starting charge=   -0.006503
     NEW-OLD atomic charge density approx. for the potential
     Check: negative starting charge=   -0.006500

     negative rho (up, down):  4.986E-05 0.000E+00

     total cpu time spent up to now is       16.9 secs

     per-process dynamical memory:    50.7 Mb

     Self-consistent Calculation

     iteration #  1     ecut=    30.00 Ry     beta=0.70
     Davidson diagonalization with overlap
     ethr =  1.00E-06,  avg # of iterations =  4.0

     Threshold (ethr) on eigenvalues was too large:
     Diagonalizing with lowered threshold

     Davidson diagonalization with overlap
     ethr =  9.80E-08,  avg # of iterations =  1.0

     negative rho (up, down):  2.098E-07 0.000E+00

     total cpu time spent up to now is       17.4 secs

     total energy              =    -329.48779556 Ry
     Harris-Foulkes estimate   =    -329.48781037 Ry
     estimated scf accuracy    <       0.00005385 Ry

     iteration #  2     ecut=    30.00 Ry     beta=0.70
     Davidson diagonalization with overlap
     ethr =  9.79E-08,  avg # of iterations =  3.0

     total cpu time spent up to now is       17.7 secs

     total energy              =    -329.48780039 Ry
     Harris-Foulkes estimate   =    -329.48782662 Ry
     estimated scf accuracy    <       0.00005514 Ry

     iteration #  3     ecut=    30.00 Ry     beta=0.70
     Davidson diagonalization with overlap
     ethr =  9.79E-08,  avg # of iterations =  2.0

     total cpu time spent up to now is       18.0 secs

     total energy              =    -329.48781125 Ry
     Harris-Foulkes estimate   =    -329.48781703 Ry
     estimated scf accuracy    <       0.00001510 Ry

     iteration #  4     ecut=    30.00 Ry     beta=0.70
     Davidson diagonalization with overlap
     ethr =  2.75E-08,  avg # of iterations =  2.0

     total cpu time spent up to now is       18.2 secs

     total energy              =    -329.48781471 Ry
     Harris-Foulkes estimate   =    -329.48781547 Ry
     estimated scf accuracy    <       0.00000278 Ry

     iteration #  5     ecut=    30.00 Ry     beta=0.70
     Davidson diagonalization with overlap
     ethr =  5.06E-09,  avg # of iterations =  2.0

     total cpu time spent up to now is       18.4 secs

     total energy              =    -329.48781516 Ry
     Harris-Foulkes estimate   =    -329.48781534 Ry
     estimated scf accuracy    <       0.00000043 Ry

     iteration #  6     ecut=    30.00 Ry     beta=0.70
     Davidson diagonalization with overlap
     ethr =  7.90E-10,  avg # of iterations =  2.0

     total cpu time spent up to now is       18.6 secs

     total energy              =    -329.48781534 Ry
     Harris-Foulkes estimate   =    -329.48781526 Ry
     estimated scf accuracy    <       0.00000003 Ry

     iteration #  7     ecut=    30.00 Ry     beta=0.70
     Davidson diagonalization with overlap
     ethr =  5.61E-11,  avg # of iterations =  2.0

     total cpu time spent up to now is       18.9 secs

     total energy              =    -329.48781529 Ry
     Harris-Foulkes estimate   =    -329.48781535 Ry
     estimated scf accuracy    <          9.2E-09 Ry

     iteration #  8     ecut=    30.00 Ry     beta=0.70
     Davidson diagonalization with overlap
     ethr =  1.68E-11,  avg # of iterations =  2.0

     total cpu time spent up to now is       19.1 secs

     total energy              =    -329.48781531 Ry
     Harris-Foulkes estimate   =    -329.48781529 Ry
     estimated scf accuracy    <          1.1E-09 Ry

     iteration #  9     ecut=    30.00 Ry     beta=0.70
     Davidson diagonalization with overlap
     ethr =  1.98E-12,  avg # of iterations =  3.0

     total cpu time spent up to now is       19.4 secs

     total energy              =    -329.48781529 Ry
     Harris-Foulkes estimate   =    -329.48781531 Ry
     estimated scf accuracy    <          3.1E-10 Ry

     iteration # 10     ecut=    30.00 Ry     beta=0.70
     Davidson diagonalization with overlap
     ethr =  5.63E-13,  avg # of iterations =  2.0

     total cpu time spent up to now is       19.6 secs

     End of self-consistent calculation

          k = 0.0000 0.0000 0.0000 ( 22119 PWs)   bands (ev):

    -8.4537  -7.7543  -7.5865  -7.1928  -6.9780  -6.7901  -6.6252  -6.4637
    -6.2285  -6.0676  -5.9785  -5.7809  -5.7256  -5.6396  -5.4314  -5.4053
    -5.3252  -5.2381  -5.2126  -5.1934  -5.1676  -5.1303  -4.9865  -4.9550
    -4.8995  -4.6175  -4.5120  -3.7581  -2.5075  -2.2503  -0.5429  -0.1984
     0.4680   0.7435

     the Fermi energy is    -3.7224 ev

!    total energy              =    -329.48781530 Ry
     Harris-Foulkes estimate   =    -329.48781529 Ry
     estimated scf accuracy    <          2.7E-11 Ry

     The total energy is the sum of the following terms:

     one-electron contribution =    -607.61783310 Ry
     hartree contribution      =     325.24900828 Ry
     xc contribution           =     -51.39420901 Ry
     ewald contribution        =       4.28020678 Ry
     smearing contrib. (-TS)   =      -0.00498825 Ry

     convergence has been achieved in  10 iterations

     Forces acting on atoms (Ry/au):

     atom    1 type  1   force =     0.00107228    0.00028987    0.00077057
     atom    2 type  1   force =     0.00445455    0.00348467    0.00015447
     atom    3 type  1   force =     0.00074572   -0.00453640    0.00353050
     atom    4 type  1   force =    -0.00753963   -0.00416070   -0.00365169
     atom    5 type  1   force =     0.00126707    0.00492256   -0.00080385

     Total force =     0.013469     Total SCF correction =     0.000026

     number of scf cycles    =   7
     number of bfgs steps    =   6

     energy   old            =    -329.4875040017 Ry
     energy   new            =    -329.4878153049 Ry

     CASE: energy  _new < energy  _old

     new trust radius        =       0.0259259656 bohr
     new conv_thr            =       0.0000000003 Ry


ATOMIC_POSITIONS (bohr)
Au      -1.938684602   0.783168634  -0.521416274
Au      -0.600891293   2.237886014   4.271898746
Au       2.956032744   1.688653174   0.404775646
Au       4.199217041   3.759772925   5.561747704
Au       7.628718109   1.891074253   2.263918177



     Writing output data file pwscf.save
     Check: negative starting charge=   -0.006500
     NEW-OLD atomic charge density approx. for the potential
     Check: negative starting charge=   -0.006496

     negative rho (up, down):  1.434E-04 0.000E+00

     total cpu time spent up to now is       19.8 secs

     per-process dynamical memory:    50.7 Mb

     Self-consistent Calculation

     iteration #  1     ecut=    30.00 Ry     beta=0.70
     Davidson diagonalization with overlap
     ethr =  1.00E-06,  avg # of iterations =  4.0

     negative rho (up, down):  1.711E-06 0.000E+00

     total cpu time spent up to now is       20.3 secs

     total energy              =    -329.48817413 Ry
     Harris-Foulkes estimate   =    -329.48819514 Ry
     estimated scf accuracy    <       0.00011951 Ry

     iteration #  2     ecut=    30.00 Ry     beta=0.70
     Davidson diagonalization with overlap
     ethr =  2.17E-07,  avg # of iterations =  2.0

     negative rho (up, down):  1.303E-07 0.000E+00

     total cpu time spent up to now is       20.6 secs

     total energy              =    -329.48818970 Ry
     Harris-Foulkes estimate   =    -329.48824255 Ry
     estimated scf accuracy    <       0.00010934 Ry

     iteration #  3     ecut=    30.00 Ry     beta=0.70
     Davidson diagonalization with overlap
     ethr =  1.99E-07,  avg # of iterations =  2.0

     total cpu time spent up to now is       20.8 secs

     total energy              =    -329.48821104 Ry
     Harris-Foulkes estimate   =    -329.48822060 Ry
     estimated scf accuracy    <       0.00002217 Ry

     iteration #  4     ecut=    30.00 Ry     beta=0.70
     Davidson diagonalization with overlap
     ethr =  4.03E-08,  avg # of iterations =  2.0

     total cpu time spent up to now is       21.0 secs

     total energy              =    -329.48821649 Ry
     Harris-Foulkes estimate   =    -329.48821862 Ry
     estimated scf accuracy    <       0.00000667 Ry

     iteration #  5     ecut=    30.00 Ry     beta=0.70
     Davidson diagonalization with overlap
     ethr =  1.21E-08,  avg # of iterations =  2.0

     total cpu time spent up to now is       21.2 secs

     total energy              =    -329.48821744 Ry
     Harris-Foulkes estimate   =    -329.48821775 Ry
     estimated scf accuracy    <       0.00000048 Ry

     iteration #  6     ecut=    30.00 Ry     beta=0.70
     Davidson diagonalization with overlap
     ethr =  8.76E-10,  avg # of iterations =  3.0

     total cpu time spent up to now is       21.4 secs

     total energy              =    -329.48821753 Ry
     Harris-Foulkes estimate   =    -329.48821760 Ry
     estimated scf accuracy    <       0.00000007 Ry

     iteration #  7     ecut=    30.00 Ry     beta=0.70
     Davidson diagonalization with overlap
     ethr =  1.28E-10,  avg # of iterations =  2.0

     total cpu time spent up to now is       21.7 secs

     total energy              =    -329.48821747 Ry
     Harris-Foulkes estimate   =    -329.48821756 Ry
     estimated scf accuracy    <       0.00000003 Ry

     iteration #  8     ecut=    30.00 Ry     beta=0.70
     Davidson diagonalization with overlap
     ethr =  5.35E-11,  avg # of iterations =  2.0

     total cpu time spent up to now is       21.9 secs

     total energy              =    -329.48821743 Ry
     Harris-Foulkes estimate   =    -329.48821747 Ry
     estimated scf accuracy    <          1.6E-09 Ry

     iteration #  9     ecut=    30.00 Ry     beta=0.70
     Davidson diagonalization with overlap
     ethr =  2.97E-12,  avg # of iterations =  2.0

     total cpu time spent up to now is       22.2 secs

     End of self-consistent calculation

          k = 0.0000 0.0000 0.0000 ( 22119 PWs)   bands (ev):

    -8.4666  -7.7698  -7.6150  -7.2187  -6.9910  -6.7984  -6.6352  -6.4772
    -6.2490  -6.0687  -5.9816  -5.7818  -5.7304  -5.6473  -5.4309  -5.4074
    -5.3266  -5.2381  -5.2141  -5.1949  -5.1669  -5.1297  -4.9857  -4.9501
    -4.8940  -4.6211  -4.5025  -3.7596  -2.5055  -2.2335  -0.5475  -0.1997
     0.4693   0.7541

     the Fermi energy is    -3.7247 ev

!    total energy              =    -329.48821743 Ry
     Harris-Foulkes estimate   =    -329.48821743 Ry
     estimated scf accuracy    <          2.1E-10 Ry

     The total energy is the sum of the following terms:

     one-electron contribution =    -608.82336482 Ry
     hartree contribution      =     325.84373282 Ry
     xc contribution           =     -51.39885299 Ry
     ewald contribution        =       4.89504804 Ry
     smearing contrib. (-TS)   =      -0.00478048 Ry

     convergence has been achieved in   9 iterations

     Forces acting on atoms (Ry/au):

     atom    1 type  1   force =     0.00053380    0.00026881    0.00072626
     atom    2 type  1   force =     0.00189895    0.00246368   -0.00054313
     atom    3 type  1   force =     0.00110765   -0.00408071    0.00280718
     atom    4 type  1   force =    -0.00616109   -0.00281370   -0.00091660
     atom    5 type  1   force =     0.00262069    0.00416191   -0.00207370

     Total force =     0.010575     Total SCF correction =     0.000065

     number of scf cycles    =   8
     number of bfgs steps    =   7

     energy   old            =    -329.4878153049 Ry
     energy   new            =    -329.4882174342 Ry

     CASE: energy  _new < energy  _old

     new trust radius        =       0.0388889484 bohr
     new conv_thr            =       0.0000000004 Ry


ATOMIC_POSITIONS (bohr)
Au      -1.931839245   0.785319721  -0.519548075
Au      -0.591747155   2.254562039   4.276871866
Au       2.959137196   1.663469310   0.415971575
Au       4.175369778   3.737755696   5.540325755
Au       7.633471426   1.919448234   2.267302879



     Writing output data file pwscf.save
     Check: negative starting charge=   -0.006496
     NEW-OLD atomic charge density approx. for the potential
     Check: negative starting charge=   -0.006490

     negative rho (up, down):  3.718E-04 0.000E+00

     total cpu time spent up to now is       22.4 secs

     per-process dynamical memory:    50.7 Mb

     Self-consistent Calculation

     iteration #  1     ecut=    30.00 Ry     beta=0.70
     Davidson diagonalization with overlap
     ethr =  1.00E-06,  avg # of iterations =  5.0

     negative rho (up, down):  1.100E-05 0.000E+00

     total cpu time spent up to now is       22.7 secs

     total energy              =    -329.48848809 Ry
     Harris-Foulkes estimate   =    -329.48847205 Ry
     estimated scf accuracy    <       0.00029126 Ry

     iteration #  2     ecut=    30.00 Ry     beta=0.70
     Davidson diagonalization with overlap
     ethr =  5.30E-07,  avg # of iterations =  4.0

     negative rho (up, down):  1.406E-06 0.000E+00

     total cpu time spent up to now is       23.0 secs

     total energy              =    -329.48853108 Ry
     Harris-Foulkes estimate   =    -329.48865643 Ry
     estimated scf accuracy    <       0.00026183 Ry

     iteration #  3     ecut=    30.00 Ry     beta=0.70
     Davidson diagonalization with overlap
     ethr =  4.76E-07,  avg # of iterations =  2.0

     negative rho (up, down):  3.907E-08 0.000E+00

     total cpu time spent up to now is       23.2 secs

     total energy              =    -329.48858161 Ry
     Harris-Foulkes estimate   =    -329.48860370 Ry
     estimated scf accuracy    <       0.00005070 Ry

     iteration #  4     ecut=    30.00 Ry     beta=0.70
     Davidson diagonalization with overlap
     ethr =  9.22E-08,  avg # of iterations =  2.0

     total cpu time spent up to now is       23.5 secs

     total energy              =    -329.48859370 Ry
     Harris-Foulkes estimate   =    -329.48859922 Ry
     estimated scf accuracy    <       0.00001620 Ry

     iteration #  5     ecut=    30.00 Ry     beta=0.70
     Davidson diagonalization with overlap
     ethr =  2.95E-08,  avg # of iterations =  2.0

     total cpu time spent up to now is       23.7 secs

     total energy              =    -329.48859618 Ry
     Harris-Foulkes estimate   =    -329.48859662 Ry
     estimated scf accuracy    <       0.00000083 Ry

     iteration #  6     ecut=    30.00 Ry     beta=0.70
     Davidson diagonalization with overlap
     ethr =  1.51E-09,  avg # of iterations =  2.0

     total cpu time spent up to now is       23.9 secs

     total energy              =    -329.48859639 Ry
     Harris-Foulkes estimate   =    -329.48859645 Ry
     estimated scf accuracy    <       0.00000011 Ry

     iteration #  7     ecut=    30.00 Ry     beta=0.70
     Davidson diagonalization with overlap
     ethr =  2.09E-10,  avg # of iterations =  2.0

     total cpu time spent up to now is       24.2 secs

     total energy              =    -329.48859620 Ry
     Harris-Foulkes estimate   =    -329.48859645 Ry
     estimated scf accuracy    <       0.00000008 Ry

     iteration #  8     ecut=    30.00 Ry     beta=0.70
     Davidson diagonalization with overlap
     ethr =  1.50E-10,  avg # of iterations =  2.0

     total cpu time spent up to now is       24.3 secs

     total energy              =    -329.48859616 Ry
     Harris-Foulkes estimate   =    -329.48859622 Ry
     estimated scf accuracy    <          3.4E-09 Ry

     iteration #  9     ecut=    30.00 Ry     beta=0.70
     Davidson diagonalization with overlap
     ethr =  6.12E-12,  avg # of iterations =  3.0

     total cpu time spent up to now is       24.6 secs

     End of self-consistent calculation

          k = 0.0000 0.0000 0.0000 ( 22119 PWs)   bands (ev):

    -8.4856  -7.7898  -7.6602  -7.2551  -7.0111  -6.8089  -6.6434  -6.4963
    -6.2803  -6.0671  -5.9838  -5.7831  -5.7366  -5.6581  -5.4299  -5.4110
    -5.3290  -5.2380  -5.2159  -5.1971  -5.1654  -5.1283  -4.9857  -4.9412
    -4.8836  -4.6270  -4.4875  -3.7639  -2.5028  -2.2077  -0.5543  -0.2018
     0.4728   0.7712

     the Fermi energy is    -3.7309 ev

!    total energy              =    -329.48859613 Ry
     Harris-Foulkes estimate   =    -329.48859617 Ry
     estimated scf accuracy    <          3.9E-10 Ry

     The total energy is the sum of the following terms:

     one-electron contribution =    -610.54317988 Ry
     hartree contribution      =     326.69309801 Ry
     xc contribution           =     -51.40579663 Ry
     ewald contribution        =       5.77163894 Ry
     smearing contrib. (-TS)   =      -0.00435657 Ry

     convergence has been achieved in   9 iterations

     Forces acting on atoms (Ry/au):

     atom    1 type  1   force =    -0.00024988    0.00029262    0.00049432
     atom    2 type  1   force =    -0.00274308    0.00087779   -0.00157310
     atom    3 type  1   force =     0.00155311   -0.00324923    0.00172455
     atom    4 type  1   force =    -0.00257026   -0.00095079    0.00268138
     atom    5 type  1   force =     0.00401011    0.00302961   -0.00332714

     Total force =     0.008839     Total SCF correction =     0.000082

     number of scf cycles    =   9
     number of bfgs steps    =   8

     energy   old            =    -329.4882174342 Ry
     energy   new            =    -329.4885961255 Ry

     CASE: energy  _new < energy  _old

     new trust radius        =       0.0261629272 bohr
     new conv_thr            =       0.0000000004 Ry


ATOMIC_POSITIONS (bohr)
Au      -1.927607656   0.787147238  -0.517919865
Au      -0.589631124   2.266530715   4.278384519
Au       2.962858472   1.643117240   0.425290330
Au       4.157895030   3.721934308   5.528976057
Au       7.640877279   1.941825498   2.266192960



     Writing output data file pwscf.save
     Check: negative starting charge=   -0.006490
     NEW-OLD atomic charge density approx. for the potential
     Check: negative starting charge=   -0.006485

     negative rho (up, down):  1.911E-04 0.000E+00

     total cpu time spent up to now is       24.8 secs

     per-process dynamical memory:    50.7 Mb

     Self-consistent Calculation

     iteration #  1     ecut=    30.00 Ry     beta=0.70
     Davidson diagonalization with overlap
     ethr =  1.00E-06,  avg # of iterations =  4.0

     negative rho (up, down):  3.095E-06 0.000E+00

     total cpu time spent up to now is       25.1 secs

     total energy              =    -329.48867803 Ry
     Harris-Foulkes estimate   =    -329.48872094 Ry
     estimated scf accuracy    <       0.00018085 Ry

     iteration #  2     ecut=    30.00 Ry     beta=0.70
     Davidson diagonalization with overlap
     ethr =  3.29E-07,  avg # of iterations =  2.0

     negative rho (up, down):  2.622E-07 0.000E+00

     total cpu time spent up to now is       25.4 secs

     total energy              =    -329.48870854 Ry
     Harris-Foulkes estimate   =    -329.48878099 Ry
     estimated scf accuracy    <       0.00014887 Ry

     iteration #  3     ecut=    30.00 Ry     beta=0.70
     Davidson diagonalization with overlap
     ethr =  2.71E-07,  avg # of iterations =  2.0

     total cpu time spent up to now is       25.7 secs

     total energy              =    -329.48873693 Ry
     Harris-Foulkes estimate   =    -329.48874812 Ry
     estimated scf accuracy    <       0.00002626 Ry

     iteration #  4     ecut=    30.00 Ry     beta=0.70
     Davidson diagonalization with overlap
     ethr =  4.77E-08,  avg # of iterations =  2.0

     total cpu time spent up to now is       25.9 secs

     total energy              =    -329.48874211 Ry
     Harris-Foulkes estimate   =    -329.48874724 Ry
     estimated scf accuracy    <       0.00001275 Ry

     iteration #  5     ecut=    30.00 Ry     beta=0.70
     Davidson diagonalization with overlap
     ethr =  2.32E-08,  avg # of iterations =  2.0

     total cpu time spent up to now is       26.1 secs

     total energy              =    -329.48874379 Ry
     Harris-Foulkes estimate   =    -329.48874433 Ry
     estimated scf accuracy    <       0.00000077 Ry

     iteration #  6     ecut=    30.00 Ry     beta=0.70
     Davidson diagonalization with overlap
     ethr =  1.40E-09,  avg # of iterations =  2.0

     total cpu time spent up to now is       26.3 secs

     total energy              =    -329.48874391 Ry
     Harris-Foulkes estimate   =    -329.48874404 Ry
     estimated scf accuracy    <       0.00000012 Ry

     iteration #  7     ecut=    30.00 Ry     beta=0.70
     Davidson diagonalization with overlap
     ethr =  2.11E-10,  avg # of iterations =  2.0

     total cpu time spent up to now is       26.5 secs

     total energy              =    -329.48874389 Ry
     Harris-Foulkes estimate   =    -329.48874394 Ry
     estimated scf accuracy    <       0.00000003 Ry

     iteration #  8     ecut=    30.00 Ry     beta=0.70
     Davidson diagonalization with overlap
     ethr =  4.98E-11,  avg # of iterations =  2.0

     total cpu time spent up to now is       26.8 secs

     total energy              =    -329.48874393 Ry
     Harris-Foulkes estimate   =    -329.48874389 Ry
     estimated scf accuracy    <          2.0E-09 Ry

     iteration #  9     ecut=    30.00 Ry     beta=0.70
     Davidson diagonalization with overlap
     ethr =  3.71E-12,  avg # of iterations =  2.0

     total cpu time spent up to now is       27.0 secs

     End of self-consistent calculation

          k = 0.0000 0.0000 0.0000 ( 22119 PWs)   bands (ev):

    -8.4957  -7.7990  -7.6874  -7.2748  -7.0197  -6.8131  -6.6452  -6.5065
    -6.2991  -6.0639  -5.9839  -5.7830  -5.7399  -5.6646  -5.4286  -5.4137
    -5.3305  -5.2373  -5.2169  -5.1983  -5.1643  -5.1274  -4.9870  -4.9350
    -4.8762  -4.6326  -4.4777  -3.7679  -2.5021  -2.1918  -0.5586  -0.2034
     0.4760   0.7839

     the Fermi energy is    -3.7363 ev

!    total energy              =    -329.48874389 Ry
     Harris-Foulkes estimate   =    -329.48874393 Ry
     estimated scf accuracy    <          1.8E-10 Ry

     The total energy is the sum of the following terms:

     one-electron contribution =    -611.46201808 Ry
     hartree contribution      =     327.14753613 Ry
     xc contribution           =     -51.40973348 Ry
     ewald contribution        =       6.23949963 Ry
     smearing contrib. (-TS)   =      -0.00402810 Ry

     convergence has been achieved in   9 iterations

     Forces acting on atoms (Ry/au):

     atom    1 type  1   force =    -0.00070523    0.00028575    0.00025030
     atom    2 type  1   force =    -0.00582373   -0.00013077   -0.00223643
     atom    3 type  1   force =     0.00182619   -0.00252039    0.00128246
     atom    4 type  1   force =     0.00038819    0.00014727    0.00440126
     atom    5 type  1   force =     0.00431458    0.00221814   -0.00369760

     Total force =     0.010376     Total SCF correction =     0.000065

     number of scf cycles    =  10
     number of bfgs steps    =   9

     energy   old            =    -329.4885961255 Ry
     energy   new            =    -329.4887438937 Ry

     CASE: energy  _new < energy  _old

     new trust radius        =       0.0237507792 bohr
     new conv_thr            =       0.0000000001 Ry


ATOMIC_POSITIONS (bohr)
Au      -1.924921261   0.789068317  -0.516693537
Au      -0.595819995   2.276001295   4.277395575
Au       2.967668959   1.623695614   0.433971999
Au       4.146154269   3.709040879   5.524236565
Au       7.651310028   1.962748895   2.262013398



     Writing output data file pwscf.save
     Check: negative starting charge=   -0.006485
     NEW-OLD atomic charge density approx. for the potential
     Check: negative starting charge=   -0.006480

     negative rho (up, down):  1.411E-04 0.000E+00

     total cpu time spent up to now is       27.2 secs

     per-process dynamical memory:    50.7 Mb

     Self-consistent Calculation

     iteration #  1     ecut=    30.00 Ry     beta=0.70
     Davidson diagonalization with overlap
     ethr =  1.00E-06,  avg # of iterations =  4.0

     negative rho (up, down):  1.705E-06 0.000E+00

     total cpu time spent up to now is       27.6 secs

     total energy              =    -329.48884245 Ry
     Harris-Foulkes estimate   =    -329.48889452 Ry
     estimated scf accuracy    <       0.00016104 Ry

     iteration #  2     ecut=    30.00 Ry     beta=0.70
     Davidson diagonalization with overlap
     ethr =  2.93E-07,  avg # of iterations =  3.0

     negative rho (up, down):  1.085E-07 0.000E+00

     total cpu time spent up to now is       27.9 secs

     total energy              =    -329.48887232 Ry
     Harris-Foulkes estimate   =    -329.48893447 Ry
     estimated scf accuracy    <       0.00012764 Ry

     iteration #  3     ecut=    30.00 Ry     beta=0.70
     Davidson diagonalization with overlap
     ethr =  2.32E-07,  avg # of iterations =  2.0

     total cpu time spent up to now is       28.1 secs

     total energy              =    -329.48889523 Ry
     Harris-Foulkes estimate   =    -329.48890497 Ry
     estimated scf accuracy    <       0.00001988 Ry

     iteration #  4     ecut=    30.00 Ry     beta=0.70
     Davidson diagonalization with overlap
     ethr =  3.61E-08,  avg # of iterations =  2.0

     total cpu time spent up to now is       28.3 secs

     total energy              =    -329.48889896 Ry
     Harris-Foulkes estimate   =    -329.48890398 Ry
     estimated scf accuracy    <       0.00001285 Ry

     iteration #  5     ecut=    30.00 Ry     beta=0.70
     Davidson diagonalization with overlap
     ethr =  2.34E-08,  avg # of iterations =  2.0

     total cpu time spent up to now is       28.5 secs

     total energy              =    -329.48890085 Ry
     Harris-Foulkes estimate   =    -329.48890102 Ry
     estimated scf accuracy    <       0.00000034 Ry

     iteration #  6     ecut=    30.00 Ry     beta=0.70
     Davidson diagonalization with overlap
     ethr =  6.17E-10,  avg # of iterations =  3.0

     total cpu time spent up to now is       28.8 secs

     total energy              =    -329.48890094 Ry
     Harris-Foulkes estimate   =    -329.48890100 Ry
     estimated scf accuracy    <       0.00000004 Ry

     iteration #  7     ecut=    30.00 Ry     beta=0.70
     Davidson diagonalization with overlap
     ethr =  6.74E-11,  avg # of iterations =  3.0

     total cpu time spent up to now is       29.0 secs

     total energy              =    -329.48890087 Ry
     Harris-Foulkes estimate   =    -329.48890095 Ry
     estimated scf accuracy    <       0.00000002 Ry

     iteration #  8     ecut=    30.00 Ry     beta=0.70
     Davidson diagonalization with overlap
     ethr =  2.85E-11,  avg # of iterations =  2.0

     total cpu time spent up to now is       29.2 secs

     total energy              =    -329.48890085 Ry
     Harris-Foulkes estimate   =    -329.48890087 Ry
     estimated scf accuracy    <          2.0E-09 Ry

     iteration #  9     ecut=    30.00 Ry     beta=0.70
     Davidson diagonalization with overlap
     ethr =  3.57E-12,  avg # of iterations =  3.0

     total cpu time spent up to now is       29.5 secs

     total energy              =    -329.48890086 Ry
     Harris-Foulkes estimate   =    -329.48890085 Ry
     estimated scf accuracy    <          4.4E-10 Ry

     iteration # 10     ecut=    30.00 Ry     beta=0.70
     Davidson diagonalization with overlap
     ethr =  7.96E-13,  avg # of iterations =  2.0

     total cpu time spent up to now is       29.7 secs

     End of self-consistent calculation

          k = 0.0000 0.0000 0.0000 ( 22119 PWs)   bands (ev):

    -8.4986  -7.8004  -7.6983  -7.2816  -7.0170  -6.8124  -6.6443  -6.5094
    -6.3083  -6.0601  -5.9834  -5.7810  -5.7413  -5.6687  -5.4267  -5.4160
    -5.3309  -5.2359  -5.2178  -5.1984  -5.1637  -5.1271  -4.9892  -4.9316
    -4.8720  -4.6389  -4.4724  -3.7711  -2.5036  -2.1842  -0.5610  -0.2044
     0.4785   0.7939

     the Fermi energy is    -3.7403 ev

!    total energy              =    -329.48890087 Ry
     Harris-Foulkes estimate   =    -329.48890086 Ry
     estimated scf accuracy    <          5.9E-11 Ry

     The total energy is the sum of the following terms:

     one-electron contribution =    -611.73458150 Ry
     hartree contribution      =     327.28272343 Ry
     xc contribution           =     -51.41101848 Ry
     ewald contribution        =       6.37781263 Ry
     smearing contrib. (-TS)   =      -0.00383696 Ry

     convergence has been achieved in  10 iterations

     Forces acting on atoms (Ry/au):

     atom    1 type  1   force =    -0.00086882    0.00021901   -0.00000508
     atom    2 type  1   force =    -0.00705320   -0.00057075   -0.00255871
     atom    3 type  1   force =     0.00195247   -0.00182544    0.00140334
     atom    4 type  1   force =     0.00203956    0.00056959    0.00473916
     atom    5 type  1   force =     0.00392998    0.00160758   -0.00357871

     Total force =     0.011150     Total SCF correction =     0.000027

     number of scf cycles    =  11
     number of bfgs steps    =  10

     energy   old            =    -329.4887438937 Ry
     energy   new            =    -329.4889008743 Ry

     CASE: energy  _new < energy  _old

     new trust radius        =       0.0261258571 bohr
     new conv_thr            =       0.0000000002 Ry


ATOMIC_POSITIONS (bohr)
Au      -1.922826081   0.791170370  -0.515733956
Au      -0.607407278   2.284975424   4.274811150
Au       2.973631894   1.603215473   0.443480213
Au       4.136906033   3.696500088   5.522495368
Au       7.664087432   1.984693645   2.255871225



     Writing output data file pwscf.save
     Check: negative starting charge=   -0.006480
     NEW-OLD atomic charge density approx. for the potential
     Check: negative starting charge=   -0.006475

     negative rho (up, down):  1.631E-04 0.000E+00

     total cpu time spent up to now is       30.0 secs

     per-process dynamical memory:    50.7 Mb

     Self-consistent Calculation

     iteration #  1     ecut=    30.00 Ry     beta=0.70
     Davidson diagonalization with overlap
     ethr =  1.00E-06,  avg # of iterations =  4.0

     negative rho (up, down):  2.190E-06 0.000E+00

     total cpu time spent up to now is       30.3 secs

     total energy              =    -329.48902916 Ry
     Harris-Foulkes estimate   =    -329.48908711 Ry
     estimated scf accuracy    <       0.00018638 Ry

     iteration #  2     ecut=    30.00 Ry     beta=0.70
     Davidson diagonalization with overlap
     ethr =  3.39E-07,  avg # of iterations =  2.0

     negative rho (up, down):  1.659E-07 0.000E+00

     total cpu time spent up to now is       30.5 secs

     total energy              =    -329.48906249 Ry
     Harris-Foulkes estimate   =    -329.48913741 Ry
     estimated scf accuracy    <       0.00015438 Ry

     iteration #  3     ecut=    30.00 Ry     beta=0.70
     Davidson diagonalization with overlap
     ethr =  2.81E-07,  avg # of iterations =  2.0

     total cpu time spent up to now is       30.8 secs

     total energy              =    -329.48909046 Ry
     Harris-Foulkes estimate   =    -329.48910322 Ry
     estimated scf accuracy    <       0.00002740 Ry

     iteration #  4     ecut=    30.00 Ry     beta=0.70
     Davidson diagonalization with overlap
     ethr =  4.98E-08,  avg # of iterations =  2.0

     total cpu time spent up to now is       31.1 secs

     total energy              =    -329.48909629 Ry
     Harris-Foulkes estimate   =    -329.48910092 Ry
     estimated scf accuracy    <       0.00001229 Ry

     iteration #  5     ecut=    30.00 Ry     beta=0.70
     Davidson diagonalization with overlap
     ethr =  2.24E-08,  avg # of iterations =  2.0

     total cpu time spent up to now is       31.3 secs

     total energy              =    -329.48909776 Ry
     Harris-Foulkes estimate   =    -329.48909834 Ry
     estimated scf accuracy    <       0.00000050 Ry

     iteration #  6     ecut=    30.00 Ry     beta=0.70
     Davidson diagonalization with overlap
     ethr =  9.11E-10,  avg # of iterations =  3.0

     total cpu time spent up to now is       31.5 secs

     total energy              =    -329.48909785 Ry
     Harris-Foulkes estimate   =    -329.48909794 Ry
     estimated scf accuracy    <       0.00000005 Ry

     iteration #  7     ecut=    30.00 Ry     beta=0.70
     Davidson diagonalization with overlap
     ethr =  9.91E-11,  avg # of iterations =  2.0

     total cpu time spent up to now is       31.8 secs

     total energy              =    -329.48909785 Ry
     Harris-Foulkes estimate   =    -329.48909787 Ry
     estimated scf accuracy    <       0.00000003 Ry

     iteration #  8     ecut=    30.00 Ry     beta=0.70
     Davidson diagonalization with overlap
     ethr =  5.82E-11,  avg # of iterations =  2.0

     total cpu time spent up to now is       32.0 secs

     total energy              =    -329.48909783 Ry
     Harris-Foulkes estimate   =    -329.48909786 Ry
     estimated scf accuracy    <          2.2E-09 Ry

     iteration #  9     ecut=    30.00 Ry     beta=0.70
     Davidson diagonalization with overlap
     ethr =  3.97E-12,  avg # of iterations =  2.0

     total cpu time spent up to now is       32.2 secs

     total energy              =    -329.48909784 Ry
     Harris-Foulkes estimate   =    -329.48909784 Ry
     estimated scf accuracy    <          6.7E-10 Ry

     iteration # 10     ecut=    30.00 Ry     beta=0.70
     Davidson diagonalization with overlap
     ethr =  1.22E-12,  avg # of iterations =  2.0

     total cpu time spent up to now is       32.5 secs

     End of self-consistent calculation

          k = 0.0000 0.0000 0.0000 ( 22119 PWs)   bands (ev):

    -8.4979  -7.7980  -7.7008  -7.2821  -7.0078  -6.8093  -6.6422  -6.5087
    -6.3130  -6.0561  -5.9827  -5.7781  -5.7413  -5.6718  -5.4253  -5.4177
    -5.3307  -5.2341  -5.2189  -5.1979  -5.1636  -5.1271  -4.9921  -4.9297
    -4.8693  -4.6464  -4.4694  -3.7737  -2.5064  -2.1806  -0.5625  -0.2049
     0.4808   0.8033

     the Fermi energy is    -3.7435 ev

!    total energy              =    -329.48909784 Ry
     Harris-Foulkes estimate   =    -329.48909784 Ry
     estimated scf accuracy    <          7.7E-11 Ry

     The total energy is the sum of the following terms:

     one-electron contribution =    -611.68144116 Ry
     hartree contribution      =     327.25695518 Ry
     xc contribution           =     -51.41089728 Ry
     ewald contribution        =       6.35001662 Ry
     smearing contrib. (-TS)   =      -0.00373120 Ry

     convergence has been achieved in  10 iterations

     Forces acting on atoms (Ry/au):

     atom    1 type  1   force =    -0.00081722    0.00009984   -0.00027922
     atom    2 type  1   force =    -0.00724414   -0.00068985   -0.00265151
     atom    3 type  1   force =     0.00195664   -0.00123905    0.00175414
     atom    4 type  1   force =     0.00288668    0.00067781    0.00438429
     atom    5 type  1   force =     0.00321805    0.00115125   -0.00320771

     Total force =     0.010916     Total SCF correction =     0.000040

     number of scf cycles    =  12
     number of bfgs steps    =  11

     energy   old            =    -329.4889008743 Ry
     energy   new            =    -329.4890978352 Ry

     CASE: energy  _new < energy  _old

     new trust radius        =       0.0391887856 bohr
     new conv_thr            =       0.0000000002 Ry


ATOMIC_POSITIONS (bohr)
Au      -1.920163471   0.794221595  -0.514875820
Au      -0.628797058   2.297505302   4.269694709
Au       2.983231111   1.573164272   0.458314230
Au       4.126237626   3.678717569   5.522099726
Au       7.683883791   2.016946261   2.245691155



     Writing output data file pwscf.save
     Check: negative starting charge=   -0.006475
     NEW-OLD atomic charge density approx. for the potential
     Check: negative starting charge=   -0.006468

     negative rho (up, down):  4.044E-04 0.000E+00

     total cpu time spent up to now is       32.7 secs

     per-process dynamical memory:    50.7 Mb

     Self-consistent Calculation

     iteration #  1     ecut=    30.00 Ry     beta=0.70
     Davidson diagonalization with overlap
     ethr =  1.00E-06,  avg # of iterations =  5.0

     negative rho (up, down):  1.274E-05 0.000E+00

     total cpu time spent up to now is       33.2 secs

     total energy              =    -329.48923600 Ry
     Harris-Foulkes estimate   =    -329.48927325 Ry
     estimated scf accuracy    <       0.00041548 Ry

     iteration #  2     ecut=    30.00 Ry     beta=0.70
     Davidson diagonalization with overlap
     ethr =  7.55E-07,  avg # of iterations =  4.0

     negative rho (up, down):  1.580E-06 0.000E+00

     total cpu time spent up to now is       33.5 secs

     total energy              =    -329.48931059 Ry
     Harris-Foulkes estimate   =    -329.48947997 Ry
     estimated scf accuracy    <       0.00035375 Ry

     iteration #  3     ecut=    30.00 Ry     beta=0.70
     Davidson diagonalization with overlap
     ethr =  6.43E-07,  avg # of iterations =  2.0

     negative rho (up, down):  7.988E-08 0.000E+00

     total cpu time spent up to now is       33.7 secs

     total energy              =    -329.48937592 Ry
     Harris-Foulkes estimate   =    -329.48940547 Ry
     estimated scf accuracy    <       0.00006672 Ry

     iteration #  4     ecut=    30.00 Ry     beta=0.70
     Davidson diagonalization with overlap
     ethr =  1.21E-07,  avg # of iterations =  2.0

     total cpu time spent up to now is       33.9 secs

     total energy              =    -329.48939096 Ry
     Harris-Foulkes estimate   =    -329.48939973 Ry
     estimated scf accuracy    <       0.00002476 Ry

     iteration #  5     ecut=    30.00 Ry     beta=0.70
     Davidson diagonalization with overlap
     ethr =  4.50E-08,  avg # of iterations =  2.0

     total cpu time spent up to now is       34.1 secs

     total energy              =    -329.48939466 Ry
     Harris-Foulkes estimate   =    -329.48939516 Ry
     estimated scf accuracy    <       0.00000112 Ry

     iteration #  6     ecut=    30.00 Ry     beta=0.70
     Davidson diagonalization with overlap
     ethr =  2.04E-09,  avg # of iterations =  2.0

     total cpu time spent up to now is       34.5 secs

     total energy              =    -329.48939486 Ry
     Harris-Foulkes estimate   =    -329.48939505 Ry
     estimated scf accuracy    <       0.00000013 Ry

     iteration #  7     ecut=    30.00 Ry     beta=0.70
     Davidson diagonalization with overlap
     ethr =  2.37E-10,  avg # of iterations =  2.0

     total cpu time spent up to now is       34.9 secs

     total energy              =    -329.48939479 Ry
     Harris-Foulkes estimate   =    -329.48939492 Ry
     estimated scf accuracy    <       0.00000008 Ry

     iteration #  8     ecut=    30.00 Ry     beta=0.70
     Davidson diagonalization with overlap
     ethr =  1.41E-10,  avg # of iterations =  2.0

     total cpu time spent up to now is       35.1 secs

     total energy              =    -329.48939463 Ry
     Harris-Foulkes estimate   =    -329.48939480 Ry
     estimated scf accuracy    <          5.0E-09 Ry

[...]

     Self-consistent Calculation

     iteration #  1     ecut=    30.00 Ry     beta=0.70
     Davidson diagonalization with overlap
     ethr =  1.00E-06,  avg # of iterations =  4.0

     negative rho (up, down):  1.113E-07 0.000E+00

     total cpu time spent up to now is       86.9 secs

     total energy              =    -329.49123347 Ry
     Harris-Foulkes estimate   =    -329.49125166 Ry
     estimated scf accuracy    <       0.00005653 Ry

     iteration #  2     ecut=    30.00 Ry     beta=0.70
     Davidson diagonalization with overlap
     ethr =  1.03E-07,  avg # of iterations =  2.0

     total cpu time spent up to now is       87.2 secs

     total energy              =    -329.49124106 Ry
     Harris-Foulkes estimate   =    -329.49126695 Ry
     estimated scf accuracy    <       0.00005331 Ry

     iteration #  3     ecut=    30.00 Ry     beta=0.70
     Davidson diagonalization with overlap
     ethr =  9.69E-08,  avg # of iterations =  2.0

     total cpu time spent up to now is       87.4 secs

     total energy              =    -329.49125210 Ry
     Harris-Foulkes estimate   =    -329.49125592 Ry
     estimated scf accuracy    <       0.00001079 Ry

     iteration #  4     ecut=    30.00 Ry     beta=0.70
     Davidson diagonalization with overlap
     ethr =  1.96E-08,  avg # of iterations =  2.0

     total cpu time spent up to now is       87.6 secs

     total energy              =    -329.49125493 Ry
     Harris-Foulkes estimate   =    -329.49125566 Ry
     estimated scf accuracy    <       0.00000314 Ry

     iteration #  5     ecut=    30.00 Ry     beta=0.70
     Davidson diagonalization with overlap
     ethr =  5.71E-09,  avg # of iterations =  2.0

     total cpu time spent up to now is       87.8 secs

     total energy              =    -329.49125554 Ry
     Harris-Foulkes estimate   =    -329.49125553 Ry
     estimated scf accuracy    <       0.00000022 Ry

     iteration #  6     ecut=    30.00 Ry     beta=0.70
     Davidson diagonalization with overlap
     ethr =  4.06E-10,  avg # of iterations =  2.0

     total cpu time spent up to now is       88.0 secs

     total energy              =    -329.49125564 Ry
     Harris-Foulkes estimate   =    -329.49125561 Ry
     estimated scf accuracy    <       0.00000002 Ry

     iteration #  7     ecut=    30.00 Ry     beta=0.70
     Davidson diagonalization with overlap
     ethr =  4.13E-11,  avg # of iterations =  2.0

     total cpu time spent up to now is       88.3 secs

     total energy              =    -329.49125565 Ry
     Harris-Foulkes estimate   =    -329.49125565 Ry
     estimated scf accuracy    <          7.5E-09 Ry

     iteration #  8     ecut=    30.00 Ry     beta=0.70
     Davidson diagonalization with overlap
     ethr =  1.35E-11,  avg # of iterations =  2.0

     total cpu time spent up to now is       88.5 secs

     total energy              =    -329.49125566 Ry
     Harris-Foulkes estimate   =    -329.49125565 Ry
     estimated scf accuracy    <          1.8E-09 Ry

     iteration #  9     ecut=    30.00 Ry     beta=0.70
     Davidson diagonalization with overlap
     ethr =  3.23E-12,  avg # of iterations =  2.0

     total cpu time spent up to now is       88.7 secs

     total energy              =    -329.49125572 Ry
     Harris-Foulkes estimate   =    -329.49125566 Ry
     estimated scf accuracy    <          2.8E-10 Ry

     iteration # 10     ecut=    30.00 Ry     beta=0.70
     Davidson diagonalization with overlap
     ethr =  5.07E-13,  avg # of iterations =  3.0

     total cpu time spent up to now is       88.9 secs

     End of self-consistent calculation

          k = 0.0000 0.0000 0.0000 ( 22119 PWs)   bands (ev):

    -8.5103  -7.7892  -7.6589  -7.2406  -6.8638  -6.8138  -6.6102  -6.4917
    -6.3086  -6.0774  -5.9581  -5.7696  -5.7299  -5.6858  -5.4689  -5.3681
    -5.3160  -5.2501  -5.2035  -5.1945  -5.1684  -5.1256  -5.0077  -4.9280
    -4.8510  -4.7259  -4.4862  -3.7800  -2.5126  -2.2041  -0.5734  -0.1940
     0.4879   0.9153

     the Fermi energy is    -3.7469 ev

!    total energy              =    -329.49125573 Ry
     Harris-Foulkes estimate   =    -329.49125572 Ry
     estimated scf accuracy    <          2.0E-11 Ry

     The total energy is the sum of the following terms:

     one-electron contribution =    -609.41201179 Ry
     hartree contribution      =     326.13079767 Ry
     xc contribution           =     -51.40100098 Ry
     ewald contribution        =       5.19543530 Ry
     smearing contrib. (-TS)   =      -0.00447593 Ry

     convergence has been achieved in  10 iterations

     Forces acting on atoms (Ry/au):

     atom    1 type  1   force =     0.00071746    0.00036418    0.00124358
     atom    2 type  1   force =     0.00021768    0.00021411   -0.00039644
     atom    3 type  1   force =    -0.00117025   -0.00043344   -0.00060137
     atom    4 type  1   force =     0.00022749   -0.00026124    0.00024246
     atom    5 type  1   force =     0.00000762    0.00011640   -0.00048824

     Total force =     0.002190     Total SCF correction =     0.000023

     number of scf cycles    =  31
     number of bfgs steps    =  30

     energy   old            =    -329.4912399907 Ry
     energy   new            =    -329.4912557346 Ry

     CASE: energy  _new < energy  _old

     new trust radius        =       0.0274066485 bohr
     new conv_thr            =            1.0E-10 Ry


ATOMIC_POSITIONS (bohr)
Au      -1.870408849   0.728592653  -0.556778085
Au      -0.773466867   2.509134952   4.183328400
Au       3.021230517   1.396567292   0.607809021
Au       4.119377566   3.494404576   5.581165132
Au       7.747659634   2.231855527   2.165399532



     Writing output data file pwscf.save
     Check: negative starting charge=   -0.006500
     NEW-OLD atomic charge density approx. for the potential
     Check: negative starting charge=   -0.006493

     negative rho (up, down):  1.208E-04 0.000E+00

     total cpu time spent up to now is       89.1 secs

     per-process dynamical memory:    50.7 Mb

     Self-consistent Calculation

     iteration #  1     ecut=    30.00 Ry     beta=0.70
     Davidson diagonalization with overlap
     ethr =  1.00E-06,  avg # of iterations =  4.0

     negative rho (up, down):  1.129E-06 0.000E+00

     total cpu time spent up to now is       89.6 secs

     total energy              =    -329.49122447 Ry
     Harris-Foulkes estimate   =    -329.49125599 Ry
     estimated scf accuracy    <       0.00011950 Ry

     iteration #  2     ecut=    30.00 Ry     beta=0.70
     Davidson diagonalization with overlap
     ethr =  2.17E-07,  avg # of iterations =  2.0

     negative rho (up, down):  6.009E-08 0.000E+00

     total cpu time spent up to now is       89.8 secs

     total energy              =    -329.49124431 Ry
     Harris-Foulkes estimate   =    -329.49129342 Ry
     estimated scf accuracy    <       0.00010165 Ry

     iteration #  3     ecut=    30.00 Ry     beta=0.70
     Davidson diagonalization with overlap
     ethr =  1.85E-07,  avg # of iterations =  2.0

     total cpu time spent up to now is       90.1 secs

     total energy              =    -329.49126469 Ry
     Harris-Foulkes estimate   =    -329.49127104 Ry
     estimated scf accuracy    <       0.00001600 Ry

     iteration #  4     ecut=    30.00 Ry     beta=0.70
     Davidson diagonalization with overlap
     ethr =  2.91E-08,  avg # of iterations =  2.0

     total cpu time spent up to now is       90.3 secs

     total energy              =    -329.49126907 Ry
     Harris-Foulkes estimate   =    -329.49127133 Ry
     estimated scf accuracy    <       0.00000829 Ry

     iteration #  5     ecut=    30.00 Ry     beta=0.70
     Davidson diagonalization with overlap
     ethr =  1.51E-08,  avg # of iterations =  1.0

     total cpu time spent up to now is       90.5 secs

     total energy              =    -329.49127036 Ry
     Harris-Foulkes estimate   =    -329.49127055 Ry
     estimated scf accuracy    <       0.00000044 Ry

     iteration #  6     ecut=    30.00 Ry     beta=0.70
     Davidson diagonalization with overlap
     ethr =  7.98E-10,  avg # of iterations =  3.0

     total cpu time spent up to now is       90.7 secs

     total energy              =    -329.49127047 Ry
     Harris-Foulkes estimate   =    -329.49127051 Ry
     estimated scf accuracy    <       0.00000005 Ry

     iteration #  7     ecut=    30.00 Ry     beta=0.70
     Davidson diagonalization with overlap
     ethr =  9.55E-11,  avg # of iterations =  2.0

     total cpu time spent up to now is       90.9 secs

     total energy              =    -329.49127045 Ry
     Harris-Foulkes estimate   =    -329.49127048 Ry
     estimated scf accuracy    <       0.00000001 Ry

     iteration #  8     ecut=    30.00 Ry     beta=0.70
     Davidson diagonalization with overlap
     ethr =  2.30E-11,  avg # of iterations =  2.0

     total cpu time spent up to now is       91.2 secs

     total energy              =    -329.49127045 Ry
     Harris-Foulkes estimate   =    -329.49127045 Ry
     estimated scf accuracy    <          3.9E-09 Ry

     iteration #  9     ecut=    30.00 Ry     beta=0.70
     Davidson diagonalization with overlap
     ethr =  7.05E-12,  avg # of iterations =  2.0

     total cpu time spent up to now is       91.4 secs

     total energy              =    -329.49127043 Ry
     Harris-Foulkes estimate   =    -329.49127046 Ry
     estimated scf accuracy    <          6.4E-10 Ry

     iteration # 10     ecut=    30.00 Ry     beta=0.70
     Davidson diagonalization with overlap
     ethr =  1.16E-12,  avg # of iterations =  2.0

     total cpu time spent up to now is       91.6 secs

     End of self-consistent calculation

          k = 0.0000 0.0000 0.0000 ( 22119 PWs)   bands (ev):

    -8.5125  -7.7925  -7.6629  -7.2456  -6.8704  -6.8157  -6.6086  -6.4952
    -6.3123  -6.0775  -5.9601  -5.7688  -5.7294  -5.6862  -5.4698  -5.3682
    -5.3170  -5.2492  -5.2034  -5.1966  -5.1681  -5.1257  -5.0086  -4.9268
    -4.8566  -4.7199  -4.4877  -3.7790  -2.5128  -2.2021  -0.5745  -0.1939
     0.4851   0.9166

     the Fermi energy is    -3.7456 ev

!    total energy              =    -329.49127042 Ry
     Harris-Foulkes estimate   =    -329.49127043 Ry
     estimated scf accuracy    <          3.2E-11 Ry

     The total energy is the sum of the following terms:

     one-electron contribution =    -609.54767311 Ry
     hartree contribution      =     326.19662671 Ry
     xc contribution           =     -51.40150622 Ry
     ewald contribution        =       5.26580395 Ry
     smearing contrib. (-TS)   =      -0.00452175 Ry

     convergence has been achieved in  10 iterations

     Forces acting on atoms (Ry/au):

     atom    1 type  1   force =     0.00078090    0.00030096    0.00092634
     atom    2 type  1   force =    -0.00003357    0.00043320    0.00019729
     atom    3 type  1   force =    -0.00100041   -0.00062239   -0.00080368
     atom    4 type  1   force =     0.00016680   -0.00026746    0.00004210
     atom    5 type  1   force =     0.00008629    0.00015569   -0.00036205

     Total force =     0.002021     Total SCF correction =     0.000027

     number of scf cycles    =  32
     number of bfgs steps    =  31

     energy   old            =    -329.4912557346 Ry
     energy   new            =    -329.4912704206 Ry

     CASE: energy  _new < energy  _old

     new trust radius        =       0.0244836094 bohr
     new conv_thr            =            1.0E-10 Ry


ATOMIC_POSITIONS (bohr)
Au      -1.874485979   0.720419521  -0.552834112
Au      -0.769131776   2.529615030   4.170631135
Au       3.017638579   1.394512944   0.607216354
Au       4.124994537   3.482169499   5.591604514
Au       7.745376639   2.233838007   2.164306108



     Writing output data file pwscf.save
     Check: negative starting charge=   -0.006493
     NEW-OLD atomic charge density approx. for the potential
     Check: negative starting charge=   -0.006489

     negative rho (up, down):  8.559E-05 0.000E+00

     total cpu time spent up to now is       91.8 secs

     per-process dynamical memory:    50.7 Mb

     Self-consistent Calculation

     iteration #  1     ecut=    30.00 Ry     beta=0.70
     Davidson diagonalization with overlap
     ethr =  1.00E-06,  avg # of iterations =  4.0

     negative rho (up, down):  5.765E-07 0.000E+00

     total cpu time spent up to now is       92.2 secs

     total energy              =    -329.49124384 Ry
     Harris-Foulkes estimate   =    -329.49127518 Ry
     estimated scf accuracy    <       0.00009622 Ry

     iteration #  2     ecut=    30.00 Ry     beta=0.70
     Davidson diagonalization with overlap
     ethr =  1.75E-07,  avg # of iterations =  2.0

     negative rho (up, down):  2.690E-08 0.000E+00

     total cpu time spent up to now is       92.4 secs

     total energy              =    -329.49126436 Ry
     Harris-Foulkes estimate   =    -329.49129772 Ry
     estimated scf accuracy    <       0.00006968 Ry

     iteration #  3     ecut=    30.00 Ry     beta=0.70
     Davidson diagonalization with overlap
     ethr =  1.27E-07,  avg # of iterations =  2.0

     total cpu time spent up to now is       92.6 secs

     total energy              =    -329.49127839 Ry
     Harris-Foulkes estimate   =    -329.49127998 Ry
     estimated scf accuracy    <       0.00000334 Ry

     iteration #  4     ecut=    30.00 Ry     beta=0.70
     Davidson diagonalization with overlap
     ethr =  6.08E-09,  avg # of iterations =  3.0

     total cpu time spent up to now is       92.9 secs

     total energy              =    -329.49127862 Ry
     Harris-Foulkes estimate   =    -329.49128125 Ry
     estimated scf accuracy    <       0.00000744 Ry

     iteration #  5     ecut=    30.00 Ry     beta=0.70
     Davidson diagonalization with overlap
     ethr =  6.08E-09,  avg # of iterations =  2.0

     total cpu time spent up to now is       93.1 secs

     total energy              =    -329.49127985 Ry
     Harris-Foulkes estimate   =    -329.49127990 Ry
     estimated scf accuracy    <       0.00000018 Ry

     iteration #  6     ecut=    30.00 Ry     beta=0.70
     Davidson diagonalization with overlap
     ethr =  3.36E-10,  avg # of iterations =  3.0

     total cpu time spent up to now is       93.4 secs

     total energy              =    -329.49127970 Ry
     Harris-Foulkes estimate   =    -329.49127990 Ry
     estimated scf accuracy    <       0.00000003 Ry

     iteration #  7     ecut=    30.00 Ry     beta=0.70
     Davidson diagonalization with overlap
     ethr =  6.04E-11,  avg # of iterations =  2.0

     total cpu time spent up to now is       93.6 secs

     total energy              =    -329.49127959 Ry
     Harris-Foulkes estimate   =    -329.49127971 Ry
     estimated scf accuracy    <          6.1E-09 Ry

     iteration #  8     ecut=    30.00 Ry     beta=0.70
     Davidson diagonalization with overlap
     ethr =  1.11E-11,  avg # of iterations =  2.0

     total cpu time spent up to now is       93.8 secs

     total energy              =    -329.49127961 Ry
     Harris-Foulkes estimate   =    -329.49127959 Ry
     estimated scf accuracy    <          1.0E-09 Ry

     iteration #  9     ecut=    30.00 Ry     beta=0.70
     Davidson diagonalization with overlap
     ethr =  1.83E-12,  avg # of iterations =  2.0

     total cpu time spent up to now is       94.1 secs

     total energy              =    -329.49127962 Ry
     Harris-Foulkes estimate   =    -329.49127961 Ry
     estimated scf accuracy    <          2.5E-10 Ry

     iteration # 10     ecut=    30.00 Ry     beta=0.70
     Davidson diagonalization with overlap
     ethr =  4.59E-13,  avg # of iterations =  2.0

     total cpu time spent up to now is       94.6 secs

     End of self-consistent calculation

          k = 0.0000 0.0000 0.0000 ( 22119 PWs)   bands (ev):

    -8.5131  -7.7941  -7.6632  -7.2482  -6.8733  -6.8165  -6.6085  -6.4966
    -6.3138  -6.0773  -5.9618  -5.7682  -5.7294  -5.6858  -5.4706  -5.3679
    -5.3175  -5.2486  -5.2028  -5.1979  -5.1685  -5.1258  -5.0093  -4.9263
    -4.8608  -4.7163  -4.4890  -3.7778  -2.5136  -2.2012  -0.5750  -0.1935
     0.4831   0.9183

     the Fermi energy is    -3.7442 ev

!    total energy              =    -329.49127962 Ry
     Harris-Foulkes estimate   =    -329.49127962 Ry
     estimated scf accuracy    <          6.5E-11 Ry

     The total energy is the sum of the following terms:

     one-electron contribution =    -609.58185083 Ry
     hartree contribution      =     326.21265019 Ry
     xc contribution           =     -51.40160037 Ry
     ewald contribution        =       5.28409684 Ry
     smearing contrib. (-TS)   =      -0.00457544 Ry

     convergence has been achieved in  10 iterations

     Forces acting on atoms (Ry/au):

     atom    1 type  1   force =     0.00072324    0.00022261    0.00055863
     atom    2 type  1   force =    -0.00028647    0.00054571    0.00075860
     atom    3 type  1   force =    -0.00038331   -0.00052208   -0.00079366
     atom    4 type  1   force =    -0.00005177   -0.00040279   -0.00021001
     atom    5 type  1   force =    -0.00000169    0.00015655   -0.00031356

     Total force =     0.001795     Total SCF correction =     0.000031

     bfgs converged in  33 scf cycles and  32 bfgs steps
     (criteria: energy <  1.0E-04, force <  1.0E-03)

     End of BFGS Geometry Optimization

     Final energy   =    -329.4912796185 Ry
Begin final coordinates

ATOMIC_POSITIONS (bohr)
Au      -1.874485979   0.720419521  -0.552834112
Au      -0.769131776   2.529615030   4.170631135
Au       3.017638579   1.394512944   0.607216354
Au       4.124994537   3.482169499   5.591604514
Au       7.745376639   2.233838007   2.164306108
End final coordinates



     Writing output data file pwscf.save
 
     init_run     :      0.16s CPU      0.19s WALL (       1 calls)
     electrons    :     82.75s CPU     88.10s WALL (      33 calls)
     update_pot   :      2.34s CPU      2.85s WALL (      32 calls)
     forces       :      1.58s CPU      1.61s WALL (      33 calls)

     Called by init_run:
     wfcinit      :      0.07s CPU      0.08s WALL (       1 calls)
     potinit      :      0.03s CPU      0.04s WALL (       1 calls)

     Called by electrons:
     c_bands      :     63.80s CPU     64.75s WALL (     337 calls)
     sum_band     :      8.76s CPU      8.96s WALL (     337 calls)
     v_of_rho     :      6.98s CPU      7.08s WALL (     358 calls)
     mix_rho      :      2.76s CPU      5.66s WALL (     337 calls)

     Called by c_bands:
     init_us_2    :      1.07s CPU      1.11s WALL (     675 calls)
     cegterg      :     57.27s CPU     57.92s WALL (     337 calls)

     Called by sum_band:

     Called by *egterg:
     h_psi        :     44.88s CPU     45.36s WALL (    1213 calls)
     g_psi        :      0.42s CPU      0.42s WALL (     875 calls)
     cdiaghg      :      3.02s CPU      3.06s WALL (    1168 calls)

     Called by h_psi:
     h_psi:pot    :     44.27s CPU     44.75s WALL (    1213 calls)
     h_psi:calbec :      2.45s CPU      2.50s WALL (    1213 calls)
     vloc_psi     :     39.26s CPU     39.67s WALL (    1213 calls)
     add_vuspsi   :      2.56s CPU      2.57s WALL (    1213 calls)

     General routines
     calbec       :      2.92s CPU      2.99s WALL (    1345 calls)
     fft          :      3.97s CPU      4.05s WALL (    4027 calls)
     fftw         :     41.30s CPU     42.01s WALL (   75466 calls)
     davcio       :      0.45s CPU      2.74s WALL (    3436 calls)
 
     Parallel routines
     fft_scatter  :     13.33s CPU     13.20s WALL (   79493 calls)
 
     PWSCF        :  1m27.81s CPU     1m34.90s WALL

 
   This run was terminated on:  16:39: 8   3Aug2017            

=------------------------------------------------------------------------------=
   JOB DONE.
=------------------------------------------------------------------------------=
