
     Program PWSCF v.6.0 (svn rev. 13079) starts on  3Aug2017 at 22:44:42 

     This program is part of the open-source Quantum ESPRESSO suite
     for quantum simulation of materials; please cite
         "P. Giannozzi et al., J. Phys.:Condens. Matter 21 395502 (2009);
          URL http://www.quantum-espresso.org", 
     in publications or presentations arising from this work. More details at
     http://www.quantum-espresso.org/quote

     Parallel version (MPI), running on    10 processors
     R & G space division:  proc/nbgrp/npool/nimage =      10
     Reading input from input/multi/minchecks-Gold5-529.in

     Current dimensions of program PWSCF are:
     Max number of different atomic species (ntypx) = 10
     Max number of k-points (npk) =  40000
     Max angular momentum in pseudopotentials (lmaxx) =  3
     Message from routine iosys:
     pot_extrapolation='second-order' not available, using 'atomic'
     Message from routine iosys:
     wfc_extrapolation='second-order' not available, using 'atomic'

     Subspace diagonalization in iterative solution of the eigenvalue problem:
     a serial algorithm will be used

 
     Parallelization info
     --------------------
     sticks:   dense  smooth     PW     G-vecs:    dense   smooth      PW
     Min         380     380     94                17748    17748    2208
     Max         381     381     95                17753    17753    2213
     Sum        3809    3809    949               177509   177509   22119
 


     bravais-lattice index     =            1
     lattice parameter (alat)  =      20.0000  a.u.
     unit-cell volume          =    8000.0000 (a.u.)^3
     number of atoms/cell      =            5
     number of atomic types    =            1
     number of electrons       =        55.00
     number of Kohn-Sham states=           34
     kinetic-energy cutoff     =      30.0000  Ry
     charge density cutoff     =     120.0000  Ry
     convergence threshold     =      1.0E-08
     mixing beta               =       0.7000
     number of iterations used =            8  plain     mixing
     Exchange-correlation      = BLYP ( 1  3  1  3 0 0)
     nstep                     =           50


     celldm(1)=  20.000000  celldm(2)=   0.000000  celldm(3)=   0.000000
     celldm(4)=   0.000000  celldm(5)=   0.000000  celldm(6)=   0.000000

     crystal axes: (cart. coord. in units of alat)
               a(1) = (   1.000000   0.000000   0.000000 )  
               a(2) = (   0.000000   1.000000   0.000000 )  
               a(3) = (   0.000000   0.000000   1.000000 )  

     reciprocal axes: (cart. coord. in units 2 pi/alat)
               b(1) = (  1.000000  0.000000  0.000000 )  
               b(2) = (  0.000000  1.000000  0.000000 )  
               b(3) = (  0.000000  0.000000  1.000000 )  


     PseudoPot. # 1 for Au read from file:
     ./Au.blyp-d-hgh.UPF
     MD5 check sum: c10d8bae01f806c36a1643a1c69a8479
     Pseudo is Norm-conserving, Zval = 11.0
     Generated in analytical, separable form
     Using radial grid of 1279 points,  6 beta functions with: 
                l(1) =   0
                l(2) =   0
                l(3) =   1
                l(4) =   1
                l(5) =   2
                l(6) =   2

     atomic species   valence    mass     pseudopotential
        Au            11.00    28.08600     Au( 1.00)

     No symmetry found



   Cartesian axes

     site n.     atom                  positions (alat units)
         1           Au  tau(   1) = (  -0.1120196   0.0907006   0.0029017  )
         2           Au  tau(   2) = (  -0.0179686   0.1148578   0.2318322  )
         3           Au  tau(   3) = (   0.1422505   0.0589882   0.0047513  )
         4           Au  tau(   4) = (   0.2259495   0.1301737   0.3144759  )
         5           Au  tau(   5) = (   0.3877934   0.0599507   0.1268475  )

     number of k points=     1  Marzari-Vanderbilt smearing, width (Ry)=  0.0250
                       cart. coord. in units 2pi/alat
        k(    1) = (   0.0000000   0.0000000   0.0000000), wk =   2.0000000

     Dense  grid:   177509 G-vectors     FFT dimensions: (  72,  72,  72)

     Estimated max dynamical RAM per process >      15.04Mb

     Estimated total allocated dynamical RAM >     150.39Mb

     Initial potential from superposition of free atoms
     Check: negative starting charge=   -0.006466

     starting charge   54.99940, renormalised to   55.00000

     negative rho (up, down):  6.466E-03 0.000E+00
     Starting wfc are   45 randomized atomic wfcs

     total cpu time spent up to now is        0.4 secs

     per-process dynamical memory:    41.0 Mb

     Self-consistent Calculation

     iteration #  1     ecut=    30.00 Ry     beta=0.70
     Davidson diagonalization with overlap
     ethr =  1.00E-02,  avg # of iterations =  3.0

     Threshold (ethr) on eigenvalues was too large:
     Diagonalizing with lowered threshold

     Davidson diagonalization with overlap
     ethr =  4.40E-04,  avg # of iterations =  3.0

     negative rho (up, down):  8.940E-04 0.000E+00

     total cpu time spent up to now is        0.7 secs

     total energy              =    -329.34058608 Ry
     Harris-Foulkes estimate   =    -329.52148876 Ry
     estimated scf accuracy    <       0.29484322 Ry

     iteration #  2     ecut=    30.00 Ry     beta=0.70
     Davidson diagonalization with overlap
     ethr =  5.36E-04,  avg # of iterations =  2.0

     negative rho (up, down):  4.638E-04 0.000E+00

     total cpu time spent up to now is        1.0 secs

     total energy              =    -329.36169730 Ry
     Harris-Foulkes estimate   =    -329.59106121 Ry
     estimated scf accuracy    <       0.52490867 Ry

     iteration #  3     ecut=    30.00 Ry     beta=0.70
     Davidson diagonalization with overlap
     ethr =  5.36E-04,  avg # of iterations =  2.0

     negative rho (up, down):  1.587E-04 0.000E+00

     total cpu time spent up to now is        1.2 secs

     total energy              =    -329.45385856 Ry
     Harris-Foulkes estimate   =    -329.48319967 Ry
     estimated scf accuracy    <       0.07169472 Ry

     iteration #  4     ecut=    30.00 Ry     beta=0.70
     Davidson diagonalization with overlap
     ethr =  1.30E-04,  avg # of iterations =  2.0

     negative rho (up, down):  1.692E-05 0.000E+00

     total cpu time spent up to now is        1.4 secs

     total energy              =    -329.46711032 Ry
     Harris-Foulkes estimate   =    -329.46909564 Ry
     estimated scf accuracy    <       0.00507649 Ry

     iteration #  5     ecut=    30.00 Ry     beta=0.70
     Davidson diagonalization with overlap
     ethr =  9.23E-06,  avg # of iterations =  6.0

     negative rho (up, down):  3.224E-07 0.000E+00

     total cpu time spent up to now is        1.7 secs

     total energy              =    -329.46803414 Ry
     Harris-Foulkes estimate   =    -329.46910173 Ry
     estimated scf accuracy    <       0.00286687 Ry

     iteration #  6     ecut=    30.00 Ry     beta=0.70
     Davidson diagonalization with overlap
     ethr =  5.21E-06,  avg # of iterations =  2.0

     total cpu time spent up to now is        1.9 secs

     total energy              =    -329.46854662 Ry
     Harris-Foulkes estimate   =    -329.46870511 Ry
     estimated scf accuracy    <       0.00039136 Ry

     iteration #  7     ecut=    30.00 Ry     beta=0.70
     Davidson diagonalization with overlap
     ethr =  7.12E-07,  avg # of iterations =  2.0

     total cpu time spent up to now is        2.1 secs

     total energy              =    -329.46863415 Ry
     Harris-Foulkes estimate   =    -329.46866254 Ry
     estimated scf accuracy    <       0.00007161 Ry

     iteration #  8     ecut=    30.00 Ry     beta=0.70
     Davidson diagonalization with overlap
     ethr =  1.30E-07,  avg # of iterations =  2.0

     total cpu time spent up to now is        2.3 secs

     total energy              =    -329.46864691 Ry
     Harris-Foulkes estimate   =    -329.46864938 Ry
     estimated scf accuracy    <       0.00000394 Ry

     iteration #  9     ecut=    30.00 Ry     beta=0.70
     Davidson diagonalization with overlap
     ethr =  7.16E-09,  avg # of iterations =  2.0

     total cpu time spent up to now is        2.6 secs

     total energy              =    -329.46864804 Ry
     Harris-Foulkes estimate   =    -329.46864854 Ry
     estimated scf accuracy    <       0.00000096 Ry

     iteration # 10     ecut=    30.00 Ry     beta=0.70
     Davidson diagonalization with overlap
     ethr =  1.74E-09,  avg # of iterations =  2.0

     total cpu time spent up to now is        2.8 secs

     total energy              =    -329.46864814 Ry
     Harris-Foulkes estimate   =    -329.46864828 Ry
     estimated scf accuracy    <       0.00000008 Ry

     iteration # 11     ecut=    30.00 Ry     beta=0.70
     Davidson diagonalization with overlap
     ethr =  1.45E-10,  avg # of iterations =  2.0

     total cpu time spent up to now is        3.0 secs

     total energy              =    -329.46864817 Ry
     Harris-Foulkes estimate   =    -329.46864816 Ry
     estimated scf accuracy    <       0.00000002 Ry

     iteration # 12     ecut=    30.00 Ry     beta=0.70
     Davidson diagonalization with overlap
     ethr =  3.74E-11,  avg # of iterations =  3.0

     total cpu time spent up to now is        3.2 secs

     End of self-consistent calculation

          k = 0.0000 0.0000 0.0000 ( 22119 PWs)   bands (ev):

    -7.9946  -7.4725  -7.3156  -7.0268  -6.7849  -6.5922  -6.5193  -6.2868
    -6.1126  -6.0328  -5.8521  -5.6758  -5.6033  -5.5413  -5.4157  -5.3925
    -5.2877  -5.1931  -5.1730  -5.1324  -5.1104  -5.0968  -5.0456  -4.9502
    -4.7935  -4.6021  -4.3982  -3.8567  -2.7717  -2.1510  -0.4941  -0.3183
     0.4703   0.8573

     the Fermi energy is    -3.8623 ev

!    total energy              =    -329.46864818 Ry
     Harris-Foulkes estimate   =    -329.46864817 Ry
     estimated scf accuracy    <          9.3E-09 Ry

     The total energy is the sum of the following terms:

     one-electron contribution =    -589.80398168 Ry
     hartree contribution      =     316.53291022 Ry
     xc contribution           =     -51.37374738 Ry
     ewald contribution        =      -4.82763842 Ry
     smearing contrib. (-TS)   =       0.00380908 Ry

     convergence has been achieved in  12 iterations

     Forces acting on atoms (Ry/au):

     atom    1 type  1   force =     0.00050812   -0.00222581   -0.02097827
     atom    2 type  1   force =     0.01982484   -0.00148434    0.00240145
     atom    3 type  1   force =     0.00803300    0.00544238    0.03185259
     atom    4 type  1   force =     0.00579194   -0.00381622   -0.00737218
     atom    5 type  1   force =    -0.03415789    0.00208399   -0.00590359

     Total force =     0.057127     Total SCF correction =     0.000320

     BFGS Geometry Optimization

     number of scf cycles    =   1
     number of bfgs steps    =   0

     energy   new            =    -329.4686481783 Ry

     new trust radius        =       0.0347268909 bohr
     new conv_thr            =       0.0000000100 Ry


ATOMIC_POSITIONS (bohr)
Au      -2.239884884   1.811785190   0.037055727
Au      -0.339547163   2.295671662   4.639045449
Au       2.853043000   1.185206376   0.126877592
Au       4.524781939   2.599657784   6.282145823
Au       7.721711108   1.201098987   2.531045410



     Writing output data file pwscf.save
     Check: negative starting charge=   -0.006466
     NEW-OLD atomic charge density approx. for the potential
     Check: negative starting charge=   -0.006471

     negative rho (up, down):  2.621E-04 0.000E+00

     total cpu time spent up to now is        3.4 secs

     per-process dynamical memory:    42.9 Mb

     Self-consistent Calculation

     iteration #  1     ecut=    30.00 Ry     beta=0.70
     Davidson diagonalization with overlap
     ethr =  1.00E-06,  avg # of iterations =  4.0

     negative rho (up, down):  5.971E-06 0.000E+00

     total cpu time spent up to now is        3.8 secs

     total energy              =    -329.47160322 Ry
     Harris-Foulkes estimate   =    -329.47160824 Ry
     estimated scf accuracy    <       0.00025486 Ry

     iteration #  2     ecut=    30.00 Ry     beta=0.70
     Davidson diagonalization with overlap
     ethr =  4.63E-07,  avg # of iterations =  3.0

     negative rho (up, down):  1.769E-06 0.000E+00

     total cpu time spent up to now is        4.1 secs

     total energy              =    -329.47155293 Ry
     Harris-Foulkes estimate   =    -329.47187403 Ry
     estimated scf accuracy    <       0.00088288 Ry

     iteration #  3     ecut=    30.00 Ry     beta=0.70
     Davidson diagonalization with overlap
     ethr =  4.63E-07,  avg # of iterations =  2.0

     negative rho (up, down):  2.004E-08 0.000E+00

     total cpu time spent up to now is        4.3 secs

     total energy              =    -329.47170895 Ry
     Harris-Foulkes estimate   =    -329.47172451 Ry
     estimated scf accuracy    <       0.00005126 Ry

     iteration #  4     ecut=    30.00 Ry     beta=0.70
     Davidson diagonalization with overlap
     ethr =  9.32E-08,  avg # of iterations =  2.0

     total cpu time spent up to now is        4.5 secs

     total energy              =    -329.47171655 Ry
     Harris-Foulkes estimate   =    -329.47172905 Ry
     estimated scf accuracy    <       0.00003893 Ry

     iteration #  5     ecut=    30.00 Ry     beta=0.70
     Davidson diagonalization with overlap
     ethr =  7.08E-08,  avg # of iterations =  2.0

     total cpu time spent up to now is        4.7 secs

     total energy              =    -329.47172303 Ry
     Harris-Foulkes estimate   =    -329.47172427 Ry
     estimated scf accuracy    <       0.00000315 Ry

     iteration #  6     ecut=    30.00 Ry     beta=0.70
     Davidson diagonalization with overlap
     ethr =  5.73E-09,  avg # of iterations =  2.0

     total cpu time spent up to now is        4.9 secs

     total energy              =    -329.47172360 Ry
     Harris-Foulkes estimate   =    -329.47172380 Ry
     estimated scf accuracy    <       0.00000014 Ry

     iteration #  7     ecut=    30.00 Ry     beta=0.70
     Davidson diagonalization with overlap
     ethr =  2.59E-10,  avg # of iterations =  2.0

     total cpu time spent up to now is        5.1 secs

     total energy              =    -329.47172355 Ry
     Harris-Foulkes estimate   =    -329.47172366 Ry
     estimated scf accuracy    <       0.00000004 Ry

     iteration #  8     ecut=    30.00 Ry     beta=0.70
     Davidson diagonalization with overlap
     ethr =  7.55E-11,  avg # of iterations =  2.0

     total cpu time spent up to now is        5.3 secs

     End of self-consistent calculation

          k = 0.0000 0.0000 0.0000 ( 22119 PWs)   bands (ev):

    -8.0000  -7.4763  -7.3557  -7.0593  -6.8215  -6.6016  -6.5141  -6.3113
    -6.1273  -6.0478  -5.8627  -5.6792  -5.6114  -5.5507  -5.4198  -5.3963
    -5.2846  -5.1984  -5.1772  -5.1336  -5.1134  -5.1005  -5.0401  -4.9461
    -4.7971  -4.5929  -4.4027  -3.8522  -2.7507  -2.1463  -0.4995  -0.3181
     0.4649   0.8641

     the Fermi energy is    -3.8571 ev

!    total energy              =    -329.47172356 Ry
     Harris-Foulkes estimate   =    -329.47172356 Ry
     estimated scf accuracy    <          3.2E-09 Ry

     The total energy is the sum of the following terms:

     one-electron contribution =    -591.61516381 Ry
     hartree contribution      =     317.42535268 Ry
     xc contribution           =     -51.37702013 Ry
     ewald contribution        =      -3.90857986 Ry
     smearing contrib. (-TS)   =       0.00368756 Ry

     convergence has been achieved in   8 iterations

     Forces acting on atoms (Ry/au):

     atom    1 type  1   force =     0.00253758   -0.00196001   -0.01696797
     atom    2 type  1   force =     0.01625893   -0.00165576   -0.00140338
     atom    3 type  1   force =     0.00597675    0.00555432    0.03102123
     atom    4 type  1   force =     0.00497800   -0.00293488   -0.00524015
     atom    5 type  1   force =    -0.02975126    0.00099632   -0.00740973

     Total force =     0.050971     Total SCF correction =     0.000233

     number of scf cycles    =   2
     number of bfgs steps    =   1

     energy   old            =    -329.4686481783 Ry
     energy   new            =    -329.4717235612 Ry

     CASE: energy  _new < energy  _old


     WARNING: bfgs curvature condition failed, Theta= 0.903
     new trust radius        =       0.0381995800 bohr
     new conv_thr            =       0.0000000031 Ry


ATOMIC_POSITIONS (bohr)
Au      -2.237345863   1.809406926   0.016077989
Au      -0.319508999   2.293752668   4.638251604
Au       2.860578592   1.191749106   0.163750555
Au       4.530853811   2.595986647   6.275464047
Au       7.685526459   1.202524653   2.522625804



     Writing output data file pwscf.save
     Check: negative starting charge=   -0.006471
     NEW-OLD atomic charge density approx. for the potential
     Check: negative starting charge=   -0.006480

     negative rho (up, down):  3.107E-04 0.000E+00

     total cpu time spent up to now is        5.5 secs

     per-process dynamical memory:    50.7 Mb

     Self-consistent Calculation

     iteration #  1     ecut=    30.00 Ry     beta=0.70
     Davidson diagonalization with overlap
     ethr =  1.00E-06,  avg # of iterations =  4.0

     negative rho (up, down):  8.230E-06 0.000E+00

     total cpu time spent up to now is        5.9 secs

     total energy              =    -329.47455350 Ry
     Harris-Foulkes estimate   =    -329.47452170 Ry
     estimated scf accuracy    <       0.00027033 Ry

     iteration #  2     ecut=    30.00 Ry     beta=0.70
     Davidson diagonalization with overlap
     ethr =  4.92E-07,  avg # of iterations =  3.0

     negative rho (up, down):  2.400E-06 0.000E+00

     total cpu time spent up to now is        6.1 secs

     total energy              =    -329.47451046 Ry
     Harris-Foulkes estimate   =    -329.47481388 Ry
     estimated scf accuracy    <       0.00080555 Ry

     iteration #  3     ecut=    30.00 Ry     beta=0.70
     Davidson diagonalization with overlap
     ethr =  4.92E-07,  avg # of iterations =  2.0

     negative rho (up, down):  3.220E-08 0.000E+00

     total cpu time spent up to now is        6.3 secs

     total energy              =    -329.47465941 Ry
     Harris-Foulkes estimate   =    -329.47467884 Ry
     estimated scf accuracy    <       0.00006437 Ry

     iteration #  4     ecut=    30.00 Ry     beta=0.70
     Davidson diagonalization with overlap
     ethr =  1.17E-07,  avg # of iterations =  2.0

     total cpu time spent up to now is        6.6 secs

     total energy              =    -329.47466885 Ry
     Harris-Foulkes estimate   =    -329.47468281 Ry
     estimated scf accuracy    <       0.00004359 Ry

     iteration #  5     ecut=    30.00 Ry     beta=0.70
     Davidson diagonalization with overlap
     ethr =  7.93E-08,  avg # of iterations =  2.0

     total cpu time spent up to now is        6.7 secs

     total energy              =    -329.47467612 Ry
     Harris-Foulkes estimate   =    -329.47467782 Ry
     estimated scf accuracy    <       0.00000430 Ry

     iteration #  6     ecut=    30.00 Ry     beta=0.70
     Davidson diagonalization with overlap
     ethr =  7.82E-09,  avg # of iterations =  2.0

     total cpu time spent up to now is        7.0 secs

     total energy              =    -329.47467693 Ry
     Harris-Foulkes estimate   =    -329.47467708 Ry
     estimated scf accuracy    <       0.00000016 Ry

     iteration #  7     ecut=    30.00 Ry     beta=0.70
     Davidson diagonalization with overlap
     ethr =  3.00E-10,  avg # of iterations =  2.0

     total cpu time spent up to now is        7.2 secs

     total energy              =    -329.47467693 Ry
     Harris-Foulkes estimate   =    -329.47467700 Ry
     estimated scf accuracy    <       0.00000005 Ry

     iteration #  8     ecut=    30.00 Ry     beta=0.70
     Davidson diagonalization with overlap
     ethr =  8.88E-11,  avg # of iterations =  2.0

     total cpu time spent up to now is        7.4 secs

     total energy              =    -329.47467692 Ry
     Harris-Foulkes estimate   =    -329.47467694 Ry
     estimated scf accuracy    <          3.5E-09 Ry

     iteration #  9     ecut=    30.00 Ry     beta=0.70
     Davidson diagonalization with overlap
     ethr =  6.30E-12,  avg # of iterations =  3.0

     total cpu time spent up to now is        7.6 secs

     End of self-consistent calculation

          k = 0.0000 0.0000 0.0000 ( 22119 PWs)   bands (ev):

    -8.0184  -7.4895  -7.4003  -7.0944  -6.8641  -6.6118  -6.5172  -6.3410
    -6.1464  -6.0609  -5.8747  -5.6807  -5.6179  -5.5635  -5.4244  -5.4002
    -5.2819  -5.2042  -5.1818  -5.1369  -5.1169  -5.1036  -5.0325  -4.9426
    -4.8019  -4.5816  -4.4091  -3.8461  -2.7274  -2.1403  -0.5061  -0.3172
     0.4604   0.8711

     the Fermi energy is    -3.8496 ev

!    total energy              =    -329.47467687 Ry
     Harris-Foulkes estimate   =    -329.47467692 Ry
     estimated scf accuracy    <          1.1E-09 Ry

     The total energy is the sum of the following terms:

     one-electron contribution =    -593.74921732 Ry
     hartree contribution      =     318.47543494 Ry
     xc contribution           =     -51.38127277 Ry
     ewald contribution        =      -2.82307031 Ry
     smearing contrib. (-TS)   =       0.00344859 Ry

     convergence has been achieved in   9 iterations

     Forces acting on atoms (Ry/au):

     atom    1 type  1   force =     0.00406793   -0.00177704   -0.01358822
     atom    2 type  1   force =     0.01285474   -0.00163527   -0.00428146
     atom    3 type  1   force =     0.00408517    0.00549137    0.02986277
     atom    4 type  1   force =     0.00413322   -0.00202605   -0.00309964
     atom    5 type  1   force =    -0.02514105   -0.00005302   -0.00889344

     Total force =     0.045510     Total SCF correction =     0.000154

     number of scf cycles    =   3
     number of bfgs steps    =   2

     energy   old            =    -329.4717235612 Ry
     energy   new            =    -329.4746768664 Ry

     CASE: energy  _new < energy  _old

     new trust radius        =       0.0572993699 bohr
     new conv_thr            =       0.0000000030 Ry


ATOMIC_POSITIONS (bohr)
Au      -2.231296012   1.805960222  -0.011850452
Au      -0.293107410   2.290811772   4.633061125
Au       2.869660314   1.201818643   0.219422313
Au       4.539109257   2.591551964   6.268069088
Au       7.635737851   1.203277400   2.507467926



     Writing output data file pwscf.save
     Check: negative starting charge=   -0.006480
     NEW-OLD atomic charge density approx. for the potential
     Check: negative starting charge=   -0.006488

     negative rho (up, down):  6.337E-04 0.000E+00

     total cpu time spent up to now is        7.8 secs

     per-process dynamical memory:    50.7 Mb

     Self-consistent Calculation

     iteration #  1     ecut=    30.00 Ry     beta=0.70
     Davidson diagonalization with overlap
     ethr =  1.00E-06,  avg # of iterations =  6.0

     negative rho (up, down):  3.020E-05 0.000E+00

     total cpu time spent up to now is        8.2 secs

     total energy              =    -329.47808793 Ry
     Harris-Foulkes estimate   =    -329.47783039 Ry
     estimated scf accuracy    <       0.00050539 Ry

     iteration #  2     ecut=    30.00 Ry     beta=0.70
     Davidson diagonalization with overlap
     ethr =  9.19E-07,  avg # of iterations =  4.0

     negative rho (up, down):  1.021E-05 0.000E+00

     total cpu time spent up to now is        8.5 secs

     total energy              =    -329.47803461 Ry
     Harris-Foulkes estimate   =    -329.47851885 Ry
     estimated scf accuracy    <       0.00121809 Ry

     iteration #  3     ecut=    30.00 Ry     beta=0.70
     Davidson diagonalization with overlap
     ethr =  9.19E-07,  avg # of iterations =  2.0

     negative rho (up, down):  2.194E-07 0.000E+00

     total cpu time spent up to now is        8.7 secs

     total energy              =    -329.47827507 Ry
     Harris-Foulkes estimate   =    -329.47831346 Ry
     estimated scf accuracy    <       0.00012812 Ry

     iteration #  4     ecut=    30.00 Ry     beta=0.70
     Davidson diagonalization with overlap
     ethr =  2.33E-07,  avg # of iterations =  2.0

     total cpu time spent up to now is        8.9 secs

     total energy              =    -329.47829312 Ry
     Harris-Foulkes estimate   =    -329.47831864 Ry
     estimated scf accuracy    <       0.00007888 Ry

     iteration #  5     ecut=    30.00 Ry     beta=0.70
     Davidson diagonalization with overlap
     ethr =  1.43E-07,  avg # of iterations =  2.0

     total cpu time spent up to now is        9.1 secs

     total energy              =    -329.47830666 Ry
     Harris-Foulkes estimate   =    -329.47831081 Ry
     estimated scf accuracy    <       0.00001139 Ry

     iteration #  6     ecut=    30.00 Ry     beta=0.70
     Davidson diagonalization with overlap
     ethr =  2.07E-08,  avg # of iterations =  2.0

     total cpu time spent up to now is        9.3 secs

     total energy              =    -329.47830856 Ry
     Harris-Foulkes estimate   =    -329.47830886 Ry
     estimated scf accuracy    <       0.00000029 Ry

     iteration #  7     ecut=    30.00 Ry     beta=0.70
     Davidson diagonalization with overlap
     ethr =  5.32E-10,  avg # of iterations =  2.0

     total cpu time spent up to now is        9.5 secs

     total energy              =    -329.47830864 Ry
     Harris-Foulkes estimate   =    -329.47830870 Ry
     estimated scf accuracy    <       0.00000009 Ry

     iteration #  8     ecut=    30.00 Ry     beta=0.70
     Davidson diagonalization with overlap
     ethr =  1.65E-10,  avg # of iterations =  2.0

     total cpu time spent up to now is        9.7 secs

     total energy              =    -329.47830857 Ry
     Harris-Foulkes estimate   =    -329.47830866 Ry
     estimated scf accuracy    <          7.3E-09 Ry

     iteration #  9     ecut=    30.00 Ry     beta=0.70
     Davidson diagonalization with overlap
     ethr =  1.33E-11,  avg # of iterations =  2.0

     total cpu time spent up to now is       10.0 secs

     End of self-consistent calculation

          k = 0.0000 0.0000 0.0000 ( 22119 PWs)   bands (ev):

    -8.0620  -7.5187  -7.4644  -7.1433  -6.9288  -6.6264  -6.5362  -6.3832
    -6.1795  -6.0770  -5.8927  -5.6804  -5.6248  -5.5845  -5.4318  -5.4063
    -5.2794  -5.2128  -5.1890  -5.1463  -5.1194  -5.1086  -5.0205  -4.9398
    -4.8107  -4.5647  -4.4205  -3.8358  -2.6946  -2.1308  -0.5164  -0.3150
     0.4557   0.8808

     the Fermi energy is    -3.8363 ev

!    total energy              =    -329.47830855 Ry
     Harris-Foulkes estimate   =    -329.47830857 Ry
     estimated scf accuracy    <          1.8E-09 Ry

     The total energy is the sum of the following terms:

     one-electron contribution =    -596.96449718 Ry
     hartree contribution      =     320.05563141 Ry
     xc contribution           =     -51.38821626 Ry
     ewald contribution        =      -1.18412123 Ry
     smearing contrib. (-TS)   =       0.00289471 Ry

     convergence has been achieved in   9 iterations

     Forces acting on atoms (Ry/au):

     atom    1 type  1   force =     0.00567087   -0.00162170   -0.00963098
     atom    2 type  1   force =     0.00872038   -0.00143980   -0.00655065
     atom    3 type  1   force =     0.00157878    0.00514061    0.02656537
     atom    4 type  1   force =     0.00310889   -0.00084514   -0.00004497
     atom    5 type  1   force =    -0.01907891   -0.00123397   -0.01033878

     Total force =     0.038289     Total SCF correction =     0.000198

     number of scf cycles    =   4
     number of bfgs steps    =   3

     energy   old            =    -329.4746768664 Ry
     energy   new            =    -329.4783085482 Ry

     CASE: energy  _new < energy  _old

     new trust radius        =       0.0859490549 bohr
     new conv_thr            =       0.0000000027 Ry


ATOMIC_POSITIONS (bohr)
Au      -2.219147872   1.800666915  -0.050480349
Au      -0.257241960   2.286431823   4.621376179
Au       2.880286378   1.217371708   0.303281891
Au       4.550739321   2.586298951   6.261038945
Au       7.565468133   1.202650603   2.480953333



     Writing output data file pwscf.save
     Check: negative starting charge=   -0.006488
     NEW-OLD atomic charge density approx. for the potential
     Check: negative starting charge=   -0.006500

     negative rho (up, down):  1.235E-03 0.000E+00

     total cpu time spent up to now is       10.2 secs

     per-process dynamical memory:    50.7 Mb

     Self-consistent Calculation

     iteration #  1     ecut=    30.00 Ry     beta=0.70
     Davidson diagonalization with overlap
     ethr =  1.00E-06,  avg # of iterations =  9.0

     negative rho (up, down):  9.111E-05 0.000E+00

     total cpu time spent up to now is       10.6 secs

     total energy              =    -329.48179993 Ry
     Harris-Foulkes estimate   =    -329.48100908 Ry
     estimated scf accuracy    <       0.00098973 Ry

     iteration #  2     ecut=    30.00 Ry     beta=0.70
     Davidson diagonalization with overlap
     ethr =  1.80E-06,  avg # of iterations =  5.0

     negative rho (up, down):  3.389E-05 0.000E+00

     total cpu time spent up to now is       10.9 secs

     total energy              =    -329.48175308 Ry
     Harris-Foulkes estimate   =    -329.48252079 Ry
     estimated scf accuracy    <       0.00181708 Ry

     iteration #  3     ecut=    30.00 Ry     beta=0.70
     Davidson diagonalization with overlap
     ethr =  1.80E-06,  avg # of iterations =  3.0

     negative rho (up, down):  9.563E-07 0.000E+00

     total cpu time spent up to now is       11.1 secs

     total energy              =    -329.48215059 Ry
     Harris-Foulkes estimate   =    -329.48221594 Ry
     estimated scf accuracy    <       0.00023254 Ry

     iteration #  4     ecut=    30.00 Ry     beta=0.70
     Davidson diagonalization with overlap
     ethr =  4.23E-07,  avg # of iterations =  2.0

     total cpu time spent up to now is       11.3 secs

     total energy              =    -329.48218234 Ry
     Harris-Foulkes estimate   =    -329.48222235 Ry
     estimated scf accuracy    <       0.00011311 Ry

     iteration #  5     ecut=    30.00 Ry     beta=0.70
     Davidson diagonalization with overlap
     ethr =  2.06E-07,  avg # of iterations =  2.0

     total cpu time spent up to now is       11.5 secs

     total energy              =    -329.48220266 Ry
     Harris-Foulkes estimate   =    -329.48221394 Ry
     estimated scf accuracy    <       0.00003583 Ry

     iteration #  6     ecut=    30.00 Ry     beta=0.70
     Davidson diagonalization with overlap
     ethr =  6.51E-08,  avg # of iterations =  1.0

     total cpu time spent up to now is       11.7 secs

     total energy              =    -329.48220779 Ry
     Harris-Foulkes estimate   =    -329.48220823 Ry
     estimated scf accuracy    <       0.00000054 Ry

     iteration #  7     ecut=    30.00 Ry     beta=0.70
     Davidson diagonalization with overlap
     ethr =  9.78E-10,  avg # of iterations =  3.0

     total cpu time spent up to now is       11.9 secs

     total energy              =    -329.48220800 Ry
     Harris-Foulkes estimate   =    -329.48220822 Ry
     estimated scf accuracy    <       0.00000021 Ry

     iteration #  8     ecut=    30.00 Ry     beta=0.70
     Davidson diagonalization with overlap
     ethr =  3.84E-10,  avg # of iterations =  2.0

     total cpu time spent up to now is       12.2 secs

     total energy              =    -329.48220801 Ry
     Harris-Foulkes estimate   =    -329.48220805 Ry
     estimated scf accuracy    <       0.00000002 Ry

     iteration #  9     ecut=    30.00 Ry     beta=0.70
     Davidson diagonalization with overlap
     ethr =  3.61E-11,  avg # of iterations =  2.0

     total cpu time spent up to now is       12.4 secs

     total energy              =    -329.48220798 Ry
     Harris-Foulkes estimate   =    -329.48220801 Ry
     estimated scf accuracy    <          3.2E-09 Ry

     iteration # 10     ecut=    30.00 Ry     beta=0.70
     Davidson diagonalization with overlap
     ethr =  5.80E-12,  avg # of iterations =  2.0

     total cpu time spent up to now is       12.6 secs

     End of self-consistent calculation

          k = 0.0000 0.0000 0.0000 ( 22119 PWs)   bands (ev):

    -8.1507  -7.5721  -7.5583  -7.2111  -7.0285  -6.6468  -6.5899  -6.4388
    -6.2333  -6.1000  -5.9197  -5.6756  -5.6335  -5.6156  -5.4447  -5.4149
    -5.2778  -5.2245  -5.1992  -5.1627  -5.1187  -5.1163  -5.0012  -4.9386
    -4.8249  -4.5408  -4.4378  -3.8195  -2.6484  -2.1141  -0.5322  -0.3112
     0.4509   0.8947

     the Fermi energy is    -3.8144 ev

!    total energy              =    -329.48220793 Ry
     Harris-Foulkes estimate   =    -329.48220798 Ry
     estimated scf accuracy    <          4.5E-10 Ry

     The total energy is the sum of the following terms:

     one-electron contribution =    -601.81819908 Ry
     hartree contribution      =     322.43906995 Ry
     xc contribution           =     -51.39995971 Ry
     ewald contribution        =       1.29504074 Ry
     smearing contrib. (-TS)   =       0.00184017 Ry

     convergence has been achieved in  10 iterations

     Forces acting on atoms (Ry/au):

     atom    1 type  1   force =     0.00680716   -0.00160625   -0.00500479
     atom    2 type  1   force =     0.00279400   -0.00106428   -0.00730324
     atom    3 type  1   force =    -0.00326667    0.00470764    0.01826404
     atom    4 type  1   force =     0.00145757    0.00066146    0.00468275
     atom    5 type  1   force =    -0.00779206   -0.00269858   -0.01063876

     Total force =     0.026614     Total SCF correction =     0.000090

     number of scf cycles    =   5
     number of bfgs steps    =   4

     energy   old            =    -329.4783085482 Ry
     energy   new            =    -329.4822079268 Ry

     CASE: energy  _new < energy  _old

     new trust radius        =       0.1289235824 bohr
     new conv_thr            =       0.0000000018 Ry


ATOMIC_POSITIONS (bohr)
Au      -2.195015648   1.791520968  -0.106181494
Au      -0.209384545   2.279718958   4.598807025
Au       2.887056875   1.243365860   0.429376120
Au       4.566954194   2.580893833   6.260393770
Au       7.470493124   1.197920380   2.433774580



     Writing output data file pwscf.save
     Check: negative starting charge=   -0.006500
     NEW-OLD atomic charge density approx. for the potential
     Check: negative starting charge=   -0.006524

     negative rho (up, down):  2.224E-03 0.000E+00

     total cpu time spent up to now is       12.8 secs

     per-process dynamical memory:    50.7 Mb

     Self-consistent Calculation

     iteration #  1     ecut=    30.00 Ry     beta=0.70
     Davidson diagonalization with overlap
     ethr =  1.00E-06,  avg # of iterations = 12.0

     negative rho (up, down):  2.209E-04 0.000E+00

     total cpu time spent up to now is       13.3 secs

     total energy              =    -329.48354065 Ry
     Harris-Foulkes estimate   =    -329.48274134 Ry
     estimated scf accuracy    <       0.00198021 Ry

     iteration #  2     ecut=    30.00 Ry     beta=0.70
     Davidson diagonalization with overlap
     ethr =  3.60E-06,  avg # of iterations =  6.0

     negative rho (up, down):  8.659E-05 0.000E+00

     total cpu time spent up to now is       13.6 secs

     total energy              =    -329.48356615 Ry
     Harris-Foulkes estimate   =    -329.48478818 Ry
     estimated scf accuracy    <       0.00276274 Ry

     iteration #  3     ecut=    30.00 Ry     beta=0.70
     Davidson diagonalization with overlap
     ethr =  3.60E-06,  avg # of iterations =  3.0

     negative rho (up, down):  3.797E-06 0.000E+00

     total cpu time spent up to now is       13.9 secs

     total energy              =    -329.48422889 Ry
     Harris-Foulkes estimate   =    -329.48435750 Ry
     estimated scf accuracy    <       0.00045430 Ry

     iteration #  4     ecut=    30.00 Ry     beta=0.70
     Davidson diagonalization with overlap
     ethr =  8.26E-07,  avg # of iterations =  2.0

     total cpu time spent up to now is       14.1 secs

     total energy              =    -329.48430959 Ry
     Harris-Foulkes estimate   =    -329.48434404 Ry
     estimated scf accuracy    <       0.00009641 Ry

     iteration #  5     ecut=    30.00 Ry     beta=0.70
     Davidson diagonalization with overlap
     ethr =  1.75E-07,  avg # of iterations =  2.0

     total cpu time spent up to now is       14.3 secs

     total energy              =    -329.48432358 Ry
     Harris-Foulkes estimate   =    -329.48434899 Ry
     estimated scf accuracy    <       0.00008364 Ry

     iteration #  6     ecut=    30.00 Ry     beta=0.70
     Davidson diagonalization with overlap
     ethr =  1.52E-07,  avg # of iterations =  1.0

     total cpu time spent up to now is       14.4 secs

     total energy              =    -329.48433533 Ry
     Harris-Foulkes estimate   =    -329.48433643 Ry
     estimated scf accuracy    <       0.00000174 Ry

     iteration #  7     ecut=    30.00 Ry     beta=0.70
     Davidson diagonalization with overlap
     ethr =  3.15E-09,  avg # of iterations =  3.0

     total cpu time spent up to now is       14.7 secs

     total energy              =    -329.48433599 Ry
     Harris-Foulkes estimate   =    -329.48433618 Ry
     estimated scf accuracy    <       0.00000056 Ry

     iteration #  8     ecut=    30.00 Ry     beta=0.70
     Davidson diagonalization with overlap
     ethr =  1.01E-09,  avg # of iterations =  2.0

     total cpu time spent up to now is       14.9 secs

     total energy              =    -329.48433612 Ry
     Harris-Foulkes estimate   =    -329.48433610 Ry
     estimated scf accuracy    <       0.00000005 Ry

     iteration #  9     ecut=    30.00 Ry     beta=0.70
     Davidson diagonalization with overlap
     ethr =  9.91E-11,  avg # of iterations =  3.0

     total cpu time spent up to now is       15.1 secs

     total energy              =    -329.48433612 Ry
     Harris-Foulkes estimate   =    -329.48433614 Ry
     estimated scf accuracy    <       0.00000001 Ry

     iteration # 10     ecut=    30.00 Ry     beta=0.70
     Davidson diagonalization with overlap
     ethr =  2.36E-11,  avg # of iterations =  3.0

     total cpu time spent up to now is       15.4 secs

     total energy              =    -329.48433611 Ry
     Harris-Foulkes estimate   =    -329.48433613 Ry
     estimated scf accuracy    <          1.8E-09 Ry

     iteration # 11     ecut=    30.00 Ry     beta=0.70
     Davidson diagonalization with overlap
     ethr =  3.33E-12,  avg # of iterations =  2.0

     total cpu time spent up to now is       15.6 secs

     End of self-consistent calculation

          k = 0.0000 0.0000 0.0000 ( 22119 PWs)   bands (ev):

    -8.3201  -7.6991  -7.6509  -7.2929  -7.1739  -6.7132  -6.6690  -6.5039
    -6.3109  -6.1312  -5.9559  -5.6781  -5.6624  -5.6311  -5.4629  -5.4206
    -5.2851  -5.2346  -5.2103  -5.1796  -5.1245  -5.1128  -4.9703  -4.9370
    -4.8437  -4.5205  -4.4478  -3.7948  -2.5847  -2.0834  -0.5552  -0.3040
     0.4478   0.9154

     the Fermi energy is    -3.7823 ev

!    total energy              =    -329.48433611 Ry
     Harris-Foulkes estimate   =    -329.48433611 Ry
     estimated scf accuracy    <          2.8E-10 Ry

     The total energy is the sum of the following terms:

     one-electron contribution =    -608.92135354 Ry
     hartree contribution      =     325.92938273 Ry
     xc contribution           =     -51.42074909 Ry
     ewald contribution        =       4.92804098 Ry
     smearing contrib. (-TS)   =       0.00034281 Ry

     convergence has been achieved in  11 iterations

     Forces acting on atoms (Ry/au):

     atom    1 type  1   force =     0.00589481   -0.00169887   -0.00207927
     atom    2 type  1   force =    -0.00642974    0.00019812   -0.00564857
     atom    3 type  1   force =    -0.01419862    0.00411356    0.00548440
     atom    4 type  1   force =    -0.00071133    0.00219234    0.00993719
     atom    5 type  1   force =     0.01544488   -0.00480515   -0.00769375

     Total force =     0.028084     Total SCF correction =     0.000070

     number of scf cycles    =   6
     number of bfgs steps    =   5

     energy   old            =    -329.4822079268 Ry
     energy   new            =    -329.4843361136 Ry

     CASE: energy  _new < energy  _old

     new trust radius        =       0.0151679351 bohr
     new conv_thr            =       0.0000000015 Ry


ATOMIC_POSITIONS (bohr)
Au      -2.189899115   1.789676216  -0.110809528
Au      -0.212907457   2.279800176   4.594613319
Au       2.874847101   1.247677880   0.437275118
Au       4.566966919   2.582412747   6.268619767
Au       7.481096551   1.193852981   2.426471324



     Writing output data file pwscf.save
     Check: negative starting charge=   -0.006524
     NEW-OLD atomic charge density approx. for the potential
     Check: negative starting charge=   -0.006519

     negative rho (up, down):  2.516E-05 0.000E+00

     total cpu time spent up to now is       15.8 secs

     per-process dynamical memory:    50.7 Mb

     Self-consistent Calculation

     iteration #  1     ecut=    30.00 Ry     beta=0.70
     Davidson diagonalization with overlap
     ethr =  1.00E-06,  avg # of iterations =  4.0

     negative rho (up, down):  5.317E-08 0.000E+00

     total cpu time spent up to now is       16.2 secs

     total energy              =    -329.48487694 Ry
     Harris-Foulkes estimate   =    -329.48490651 Ry
     estimated scf accuracy    <       0.00007339 Ry

     iteration #  2     ecut=    30.00 Ry     beta=0.70
     Davidson diagonalization with overlap
     ethr =  1.33E-07,  avg # of iterations =  3.0

     negative rho (up, down):  1.177E-08 0.000E+00

     total cpu time spent up to now is       16.4 secs

     total energy              =    -329.48484338 Ry
     Harris-Foulkes estimate   =    -329.48498584 Ry
     estimated scf accuracy    <       0.00046338 Ry

     iteration #  3     ecut=    30.00 Ry     beta=0.70
     Davidson diagonalization with overlap
     ethr =  1.33E-07,  avg # of iterations =  3.0

     total cpu time spent up to now is       16.6 secs

     total energy              =    -329.48491363 Ry
     Harris-Foulkes estimate   =    -329.48491741 Ry
     estimated scf accuracy    <       0.00001364 Ry

     iteration #  4     ecut=    30.00 Ry     beta=0.70
     Davidson diagonalization with overlap
     ethr =  2.48E-08,  avg # of iterations =  2.0

     total cpu time spent up to now is       16.8 secs

     total energy              =    -329.48491586 Ry
     Harris-Foulkes estimate   =    -329.48491717 Ry
     estimated scf accuracy    <       0.00000331 Ry

     iteration #  5     ecut=    30.00 Ry     beta=0.70
     Davidson diagonalization with overlap
     ethr =  6.01E-09,  avg # of iterations =  2.0

     total cpu time spent up to now is       17.0 secs

     total energy              =    -329.48491617 Ry
     Harris-Foulkes estimate   =    -329.48491683 Ry
     estimated scf accuracy    <       0.00000065 Ry

     iteration #  6     ecut=    30.00 Ry     beta=0.70
     Davidson diagonalization with overlap
     ethr =  1.19E-09,  avg # of iterations =  2.0

     total cpu time spent up to now is       17.2 secs

     total energy              =    -329.48491605 Ry
     Harris-Foulkes estimate   =    -329.48491632 Ry
     estimated scf accuracy    <       0.00000004 Ry

     iteration #  7     ecut=    30.00 Ry     beta=0.70
     Davidson diagonalization with overlap
     ethr =  6.79E-11,  avg # of iterations =  2.0

     total cpu time spent up to now is       17.5 secs

     total energy              =    -329.48491610 Ry
     Harris-Foulkes estimate   =    -329.48491606 Ry
     estimated scf accuracy    <          7.1E-09 Ry

     iteration #  8     ecut=    30.00 Ry     beta=0.70
     Davidson diagonalization with overlap
     ethr =  1.28E-11,  avg # of iterations =  2.0

     total cpu time spent up to now is       17.7 secs

     End of self-consistent calculation

          k = 0.0000 0.0000 0.0000 ( 22119 PWs)   bands (ev):

    -8.3290  -7.6902  -7.6413  -7.2752  -7.1774  -6.7142  -6.6579  -6.4907
    -6.3101  -6.1231  -5.9579  -5.6845  -5.6666  -5.6383  -5.4605  -5.4207
    -5.2839  -5.2374  -5.2116  -5.1841  -5.1267  -5.1136  -4.9723  -4.9431
    -4.8507  -4.5250  -4.4520  -3.7937  -2.5826  -2.0920  -0.5545  -0.3018
     0.4483   0.9139

     the Fermi energy is    -3.7795 ev

!    total energy              =    -329.48491612 Ry
     Harris-Foulkes estimate   =    -329.48491610 Ry
     estimated scf accuracy    <          1.3E-09 Ry

     The total energy is the sum of the following terms:

     one-electron contribution =    -608.61719255 Ry
     hartree contribution      =     325.77617061 Ry
     xc contribution           =     -51.41826809 Ry
     ewald contribution        =       4.77439466 Ry
     smearing contrib. (-TS)   =      -0.00002075 Ry

     convergence has been achieved in   8 iterations

     Forces acting on atoms (Ry/au):

     atom    1 type  1   force =     0.00410126   -0.00161499   -0.00279230
     atom    2 type  1   force =    -0.00546823    0.00048926   -0.00426578
     atom    3 type  1   force =    -0.01001356    0.00381185    0.00592523
     atom    4 type  1   force =    -0.00022502    0.00136811    0.00765453
     atom    5 type  1   force =     0.01160555   -0.00405423   -0.00652167

     Total force =     0.021901     Total SCF correction =     0.000116

     number of scf cycles    =   7
     number of bfgs steps    =   6

     energy   old            =    -329.4843361136 Ry
     energy   new            =    -329.4849161157 Ry

     CASE: energy  _new < energy  _old

     new trust radius        =       0.0166847286 bohr
     new conv_thr            =       0.0000000006 Ry


ATOMIC_POSITIONS (bohr)
Au      -2.185192952   1.787575249  -0.118105809
Au      -0.213632499   2.279801174   4.590461765
Au       2.866415548   1.252745808   0.450751215
Au       4.568023163   2.583052284   6.274860318
Au       7.484490740   1.190245486   2.418202511



     Writing output data file pwscf.save
     Check: negative starting charge=   -0.006519
     NEW-OLD atomic charge density approx. for the potential
     Check: negative starting charge=   -0.006514

     negative rho (up, down):  2.222E-05 0.000E+00

     total cpu time spent up to now is       17.9 secs

     per-process dynamical memory:    50.7 Mb

     Self-consistent Calculation

     iteration #  1     ecut=    30.00 Ry     beta=0.70
     Davidson diagonalization with overlap
     ethr =  1.00E-06,  avg # of iterations =  4.0

     negative rho (up, down):  3.395E-08 0.000E+00

     total cpu time spent up to now is       18.2 secs

     total energy              =    -329.48526563 Ry
     Harris-Foulkes estimate   =    -329.48528243 Ry
     estimated scf accuracy    <       0.00005502 Ry

     iteration #  2     ecut=    30.00 Ry     beta=0.70
     Davidson diagonalization with overlap
     ethr =  1.00E-07,  avg # of iterations =  3.0

     total cpu time spent up to now is       18.4 secs

     total energy              =    -329.48524361 Ry
     Harris-Foulkes estimate   =    -329.48533393 Ry
     estimated scf accuracy    <       0.00027957 Ry

     iteration #  3     ecut=    30.00 Ry     beta=0.70
     Davidson diagonalization with overlap
     ethr =  1.00E-07,  avg # of iterations =  3.0

     total cpu time spent up to now is       18.7 secs

     total energy              =    -329.48528943 Ry
     Harris-Foulkes estimate   =    -329.48529401 Ry
     estimated scf accuracy    <       0.00001616 Ry

     iteration #  4     ecut=    30.00 Ry     beta=0.70
     Davidson diagonalization with overlap
     ethr =  2.94E-08,  avg # of iterations =  2.0

     total cpu time spent up to now is       18.9 secs

     total energy              =    -329.48529133 Ry
     Harris-Foulkes estimate   =    -329.48529223 Ry
     estimated scf accuracy    <       0.00000089 Ry

     iteration #  5     ecut=    30.00 Ry     beta=0.70
     Davidson diagonalization with overlap
     ethr =  1.61E-09,  avg # of iterations =  3.0

     total cpu time spent up to now is       19.1 secs

     total energy              =    -329.48529166 Ry
     Harris-Foulkes estimate   =    -329.48529174 Ry
     estimated scf accuracy    <       0.00000048 Ry

     iteration #  6     ecut=    30.00 Ry     beta=0.70
     Davidson diagonalization with overlap
     ethr =  8.72E-10,  avg # of iterations =  2.0

     total cpu time spent up to now is       19.3 secs

     total energy              =    -329.48529170 Ry
     Harris-Foulkes estimate   =    -329.48529176 Ry
     estimated scf accuracy    <       0.00000003 Ry

     iteration #  7     ecut=    30.00 Ry     beta=0.70
     Davidson diagonalization with overlap
     ethr =  6.03E-11,  avg # of iterations =  2.0

     total cpu time spent up to now is       19.5 secs

     total energy              =    -329.48529174 Ry
     Harris-Foulkes estimate   =    -329.48529170 Ry
     estimated scf accuracy    <          4.4E-09 Ry

     iteration #  8     ecut=    30.00 Ry     beta=0.70
     Davidson diagonalization with overlap
     ethr =  8.08E-12,  avg # of iterations =  2.0

     total cpu time spent up to now is       19.7 secs

     total energy              =    -329.48529172 Ry
     Harris-Foulkes estimate   =    -329.48529174 Ry
     estimated scf accuracy    <          1.2E-09 Ry

     iteration #  9     ecut=    30.00 Ry     beta=0.70
     Davidson diagonalization with overlap
     ethr =  2.20E-12,  avg # of iterations =  2.0

     total cpu time spent up to now is       19.9 secs

     End of self-consistent calculation

          k = 0.0000 0.0000 0.0000 ( 22119 PWs)   bands (ev):

    -8.3457  -7.6926  -7.6378  -7.2640  -7.1873  -6.7234  -6.6492  -6.4852
    -6.3123  -6.1175  -5.9611  -5.6924  -5.6688  -5.6433  -5.4590  -5.4204
    -5.2843  -5.2391  -5.2129  -5.1880  -5.1283  -5.1137  -4.9726  -4.9469
    -4.8567  -4.5292  -4.4542  -3.7917  -2.5782  -2.0967  -0.5551  -0.2997
     0.4483   0.9139

     the Fermi energy is    -3.7760 ev

!    total energy              =    -329.48529173 Ry
     Harris-Foulkes estimate   =    -329.48529172 Ry
     estimated scf accuracy    <          1.5E-10 Ry

     The total energy is the sum of the following terms:

     one-electron contribution =    -608.72544372 Ry
     hartree contribution      =     325.82646454 Ry
     xc contribution           =     -51.41754274 Ry
     ewald contribution        =       4.83158174 Ry
     smearing contrib. (-TS)   =      -0.00035155 Ry

     convergence has been achieved in   9 iterations

     Forces acting on atoms (Ry/au):

     atom    1 type  1   force =     0.00283544   -0.00154414   -0.00317952
     atom    2 type  1   force =    -0.00528974    0.00080202   -0.00308784
     atom    3 type  1   force =    -0.00771034    0.00356342    0.00549428
     atom    4 type  1   force =    -0.00003141    0.00082895    0.00620568
     atom    5 type  1   force =     0.01019605   -0.00365024   -0.00543260

     Total force =     0.018629     Total SCF correction =     0.000042

     number of scf cycles    =   8
     number of bfgs steps    =   7

     energy   old            =    -329.4849161157 Ry
     energy   new            =    -329.4852917291 Ry

     CASE: energy  _new < energy  _old

     new trust radius        =       0.0250270929 bohr
     new conv_thr            =       0.0000000004 Ry


ATOMIC_POSITIONS (bohr)
Au      -2.179168097   1.784203265  -0.130193075
Au      -0.215559099   2.280372341   4.585065715
Au       2.855271307   1.260770197   0.471674180
Au       4.569862533   2.583467729   6.283566683
Au       7.489697355   1.184606469   2.406056497



     Writing output data file pwscf.save
     Check: negative starting charge=   -0.006514
     NEW-OLD atomic charge density approx. for the potential
     Check: negative starting charge=   -0.006506

     negative rho (up, down):  7.981E-05 0.000E+00

     total cpu time spent up to now is       20.2 secs

     per-process dynamical memory:    50.7 Mb

     Self-consistent Calculation

     iteration #  1     ecut=    30.00 Ry     beta=0.70
     Davidson diagonalization with overlap
     ethr =  1.00E-06,  avg # of iterations =  4.0

     negative rho (up, down):  5.463E-07 0.000E+00

     total cpu time spent up to now is       20.5 secs

     total energy              =    -329.48568963 Ry
     Harris-Foulkes estimate   =    -329.48572139 Ry
     estimated scf accuracy    <       0.00011901 Ry

     iteration #  2     ecut=    30.00 Ry     beta=0.70
     Davidson diagonalization with overlap
     ethr =  2.16E-07,  avg # of iterations =  3.0

     negative rho (up, down):  1.184E-07 0.000E+00

     total cpu time spent up to now is       20.7 secs

     total energy              =    -329.48564442 Ry
     Harris-Foulkes estimate   =    -329.48583108 Ry
     estimated scf accuracy    <       0.00056696 Ry

     iteration #  3     ecut=    30.00 Ry     beta=0.70
     Davidson diagonalization with overlap
     ethr =  2.16E-07,  avg # of iterations =  3.0

     total cpu time spent up to now is       21.0 secs

     total energy              =    -329.48573973 Ry
     Harris-Foulkes estimate   =    -329.48575029 Ry
     estimated scf accuracy    <       0.00003891 Ry

     iteration #  4     ecut=    30.00 Ry     beta=0.70
     Davidson diagonalization with overlap
     ethr =  7.07E-08,  avg # of iterations =  2.0

     total cpu time spent up to now is       21.2 secs

     total energy              =    -329.48574535 Ry
     Harris-Foulkes estimate   =    -329.48574618 Ry
     estimated scf accuracy    <       0.00000159 Ry

     iteration #  5     ecut=    30.00 Ry     beta=0.70
     Davidson diagonalization with overlap
     ethr =  2.89E-09,  avg # of iterations =  3.0

     total cpu time spent up to now is       21.4 secs

     total energy              =    -329.48574580 Ry
     Harris-Foulkes estimate   =    -329.48574609 Ry
     estimated scf accuracy    <       0.00000078 Ry

     iteration #  6     ecut=    30.00 Ry     beta=0.70
     Davidson diagonalization with overlap
     ethr =  1.41E-09,  avg # of iterations =  2.0

     total cpu time spent up to now is       21.6 secs

     total energy              =    -329.48574587 Ry
     Harris-Foulkes estimate   =    -329.48574598 Ry
     estimated scf accuracy    <       0.00000008 Ry

     iteration #  7     ecut=    30.00 Ry     beta=0.70
     Davidson diagonalization with overlap
     ethr =  1.52E-10,  avg # of iterations =  2.0

     total cpu time spent up to now is       21.8 secs

     total energy              =    -329.48574591 Ry
     Harris-Foulkes estimate   =    -329.48574589 Ry
     estimated scf accuracy    <          9.1E-09 Ry

     iteration #  8     ecut=    30.00 Ry     beta=0.70
     Davidson diagonalization with overlap
     ethr =  1.66E-11,  avg # of iterations =  2.0

     total cpu time spent up to now is       22.1 secs

     total energy              =    -329.48574588 Ry
     Harris-Foulkes estimate   =    -329.48574592 Ry
     estimated scf accuracy    <          2.9E-09 Ry

     iteration #  9     ecut=    30.00 Ry     beta=0.70
     Davidson diagonalization with overlap
     ethr =  5.19E-12,  avg # of iterations =  2.0

     total cpu time spent up to now is       22.3 secs

     total energy              =    -329.48574590 Ry
     Harris-Foulkes estimate   =    -329.48574588 Ry
     estimated scf accuracy    <          4.3E-10 Ry

     iteration # 10     ecut=    30.00 Ry     beta=0.70
     Davidson diagonalization with overlap
     ethr =  7.78E-13,  avg # of iterations =  2.0

     total cpu time spent up to now is       22.5 secs

     End of self-consistent calculation

          k = 0.0000 0.0000 0.0000 ( 22119 PWs)   bands (ev):

    -8.3696  -7.6973  -7.6327  -7.2461  -7.2011  -6.7375  -6.6349  -6.4794
    -6.3137  -6.1080  -5.9653  -5.7031  -5.6721  -5.6492  -5.4563  -5.4191
    -5.2861  -5.2402  -5.2148  -5.1938  -5.1307  -5.1138  -4.9735  -4.9514
    -4.8657  -4.5367  -4.4571  -3.7890  -2.5722  -2.1040  -0.5561  -0.2965
     0.4479   0.9140

     the Fermi energy is    -3.7712 ev

!    total energy              =    -329.48574590 Ry
     Harris-Foulkes estimate   =    -329.48574590 Ry
     estimated scf accuracy    <          7.9E-11 Ry

     The total energy is the sum of the following terms:

     one-electron contribution =    -608.82662095 Ry
     hartree contribution      =     325.87199889 Ry
     xc contribution           =     -51.41639272 Ry
     ewald contribution        =       4.88608687 Ry
     smearing contrib. (-TS)   =      -0.00081799 Ry

     convergence has been achieved in  10 iterations

     Forces acting on atoms (Ry/au):

     atom    1 type  1   force =     0.00128994   -0.00145522   -0.00355384
     atom    2 type  1   force =    -0.00513833    0.00122759   -0.00143433
     atom    3 type  1   force =    -0.00462547    0.00325676    0.00471513
     atom    4 type  1   force =     0.00012515    0.00006303    0.00419152
     atom    5 type  1   force =     0.00834871   -0.00309216   -0.00391848

     Total force =     0.014588     Total SCF correction =     0.000034

     number of scf cycles    =   9
     number of bfgs steps    =   8

     energy   old            =    -329.4852917291 Ry
     energy   new            =    -329.4857458955 Ry

     CASE: energy  _new < energy  _old

     new trust radius        =       0.0375406393 bohr
     new conv_thr            =       0.0000000005 Ry


ATOMIC_POSITIONS (bohr)
Au      -2.171520938   1.778675641  -0.149988358
Au      -0.220717312   2.282309919   4.578429284
Au       2.840394002   1.273724907   0.503613824
Au       4.572776448   2.583189805   6.295921810
Au       7.499171800   1.175519728   2.388193439



     Writing output data file pwscf.save
     Check: negative starting charge=   -0.006506
     NEW-OLD atomic charge density approx. for the potential
     Check: negative starting charge=   -0.006495

     negative rho (up, down):  2.296E-04 0.000E+00

     total cpu time spent up to now is       22.7 secs

     per-process dynamical memory:    50.7 Mb

     Self-consistent Calculation

     iteration #  1     ecut=    30.00 Ry     beta=0.70
     Davidson diagonalization with overlap
     ethr =  1.00E-06,  avg # of iterations =  4.0

     negative rho (up, down):  4.632E-06 0.000E+00

     total cpu time spent up to now is       23.1 secs

     total energy              =    -329.48611527 Ry
     Harris-Foulkes estimate   =    -329.48616462 Ry
     estimated scf accuracy    <       0.00026609 Ry

     iteration #  2     ecut=    30.00 Ry     beta=0.70
     Davidson diagonalization with overlap
     ethr =  4.84E-07,  avg # of iterations =  3.0

     negative rho (up, down):  1.484E-06 0.000E+00

     total cpu time spent up to now is       23.3 secs

     total energy              =    -329.48602145 Ry
     Harris-Foulkes estimate   =    -329.48642158 Ry
     estimated scf accuracy    <       0.00119032 Ry

     iteration #  3     ecut=    30.00 Ry     beta=0.70
     Davidson diagonalization with overlap
     ethr =  4.84E-07,  avg # of iterations =  3.0

     negative rho (up, down):  1.750E-08 0.000E+00

     total cpu time spent up to now is       23.5 secs

     total energy              =    -329.48622542 Ry
     Harris-Foulkes estimate   =    -329.48625104 Ry
     estimated scf accuracy    <       0.00009374 Ry

     iteration #  4     ecut=    30.00 Ry     beta=0.70
     Davidson diagonalization with overlap
     ethr =  1.70E-07,  avg # of iterations =  2.0

     total cpu time spent up to now is       23.7 secs

     total energy              =    -329.48624023 Ry
     Harris-Foulkes estimate   =    -329.48624071 Ry
     estimated scf accuracy    <       0.00000335 Ry

     iteration #  5     ecut=    30.00 Ry     beta=0.70
     Davidson diagonalization with overlap
     ethr =  6.10E-09,  avg # of iterations =  3.0

     total cpu time spent up to now is       24.0 secs

     total energy              =    -329.48624093 Ry
     Harris-Foulkes estimate   =    -329.48624181 Ry
     estimated scf accuracy    <       0.00000166 Ry

     iteration #  6     ecut=    30.00 Ry     beta=0.70
     Davidson diagonalization with overlap
     ethr =  3.01E-09,  avg # of iterations =  2.0

     total cpu time spent up to now is       24.2 secs

     total energy              =    -329.48624134 Ry
     Harris-Foulkes estimate   =    -329.48624132 Ry
     estimated scf accuracy    <       0.00000018 Ry

     iteration #  7     ecut=    30.00 Ry     beta=0.70
     Davidson diagonalization with overlap
     ethr =  3.24E-10,  avg # of iterations =  2.0

     total cpu time spent up to now is       24.4 secs

     total energy              =    -329.48624143 Ry
     Harris-Foulkes estimate   =    -329.48624138 Ry
     estimated scf accuracy    <       0.00000002 Ry

     iteration #  8     ecut=    30.00 Ry     beta=0.70
     Davidson diagonalization with overlap
     ethr =  3.54E-11,  avg # of iterations =  2.0

     total cpu time spent up to now is       24.6 secs

     total energy              =    -329.48624140 Ry
     Harris-Foulkes estimate   =    -329.48624143 Ry
     estimated scf accuracy    <          5.7E-09 Ry

     iteration #  9     ecut=    30.00 Ry     beta=0.70
     Davidson diagonalization with overlap
     ethr =  1.04E-11,  avg # of iterations =  2.0

     total cpu time spent up to now is       24.8 secs

     total energy              =    -329.48624143 Ry
     Harris-Foulkes estimate   =    -329.48624140 Ry
     estimated scf accuracy    <          9.5E-10 Ry

     iteration # 10     ecut=    30.00 Ry     beta=0.70
     Davidson diagonalization with overlap
     ethr =  1.74E-12,  avg # of iterations =  2.0

     total cpu time spent up to now is       25.0 secs

     End of self-consistent calculation

          k = 0.0000 0.0000 0.0000 ( 22119 PWs)   bands (ev):

    -8.4025  -7.7037  -7.6255  -7.2232  -7.2103  -6.7580  -6.6104  -6.4745
    -6.3113  -6.0909  -5.9715  -5.7171  -5.6777  -5.6552  -5.4514  -5.4155
    -5.2908  -5.2395  -5.2171  -5.2017  -5.1342  -5.1140  -4.9764  -4.9563
    -4.8789  -4.5491  -4.4615  -3.7859  -2.5647  -2.1160  -0.5572  -0.2917
     0.4464   0.9140

     the Fermi energy is    -3.7653 ev

!    total energy              =    -329.48624140 Ry
     Harris-Foulkes estimate   =    -329.48624143 Ry
     estimated scf accuracy    <          1.6E-10 Ry

     The total energy is the sum of the following terms:

     one-electron contribution =    -608.79574526 Ry
     hartree contribution      =     325.85045619 Ry
     xc contribution           =     -51.41425461 Ry
     ewald contribution        =       4.87475610 Ry
     smearing contrib. (-TS)   =      -0.00145383 Ry

     convergence has been achieved in  10 iterations

     Forces acting on atoms (Ry/au):

     atom    1 type  1   force =    -0.00057400   -0.00134489   -0.00376149
     atom    2 type  1   force =    -0.00498954    0.00179498    0.00100849
     atom    3 type  1   force =    -0.00018454    0.00284973    0.00323541
     atom    4 type  1   force =     0.00016876   -0.00105972    0.00134501
     atom    5 type  1   force =     0.00557932   -0.00224010   -0.00182741

     Total force =     0.010319     Total SCF correction =     0.000055

     number of scf cycles    =  10
     number of bfgs steps    =   9

     energy   old            =    -329.4857458955 Ry
     energy   new            =    -329.4862414046 Ry

     CASE: energy  _new < energy  _old

     new trust radius        =       0.0563109590 bohr
     new conv_thr            =       0.0000000005 Ry


ATOMIC_POSITIONS (bohr)
Au      -2.162466977   1.769028006  -0.183142333
Au      -0.235176067   2.287929547   4.572072105
Au       2.821544437   1.295799511   0.551866594
Au       4.577000481   2.580638370   6.313669930
Au       7.519202127   1.160024566   2.361703704



     Writing output data file pwscf.save
     Check: negative starting charge=   -0.006495
     NEW-OLD atomic charge density approx. for the potential
     Check: negative starting charge=   -0.006480

     negative rho (up, down):  5.798E-04 0.000E+00

     total cpu time spent up to now is       25.2 secs

     per-process dynamical memory:    50.7 Mb

     Self-consistent Calculation

     iteration #  1     ecut=    30.00 Ry     beta=0.70
     Davidson diagonalization with overlap
     ethr =  1.00E-06,  avg # of iterations =  6.0

     negative rho (up, down):  2.615E-05 0.000E+00

     total cpu time spent up to now is       25.6 secs

     total energy              =    -329.48631054 Ry
     Harris-Foulkes estimate   =    -329.48625871 Ry
     estimated scf accuracy    <       0.00061669 Ry

     iteration #  2     ecut=    30.00 Ry     beta=0.70
     Davidson diagonalization with overlap
     ethr =  1.12E-06,  avg # of iterations =  4.0

     negative rho (up, down):  1.056E-05 0.000E+00

     total cpu time spent up to now is       25.9 secs

     total energy              =    -329.48612029 Ry
     Harris-Foulkes estimate   =    -329.48698025 Ry
     estimated scf accuracy    <       0.00247619 Ry

     iteration #  3     ecut=    30.00 Ry     beta=0.70
     Davidson diagonalization with overlap
     ethr =  1.12E-06,  avg # of iterations =  3.0

     negative rho (up, down):  4.500E-07 0.000E+00

     total cpu time spent up to now is       26.2 secs

     total energy              =    -329.48655672 Ry
     Harris-Foulkes estimate   =    -329.48662443 Ry
     estimated scf accuracy    <       0.00024088 Ry

     iteration #  4     ecut=    30.00 Ry     beta=0.70
     Davidson diagonalization with overlap
     ethr =  4.38E-07,  avg # of iterations =  2.0

     total cpu time spent up to now is       26.4 secs

     total energy              =    -329.48659597 Ry
     Harris-Foulkes estimate   =    -329.48659572 Ry
     estimated scf accuracy    <       0.00000801 Ry

     iteration #  5     ecut=    30.00 Ry     beta=0.70
     Davidson diagonalization with overlap
     ethr =  1.46E-08,  avg # of iterations =  3.0

     total cpu time spent up to now is       26.6 secs

     total energy              =    -329.48659835 Ry
     Harris-Foulkes estimate   =    -329.48660011 Ry
     estimated scf accuracy    <       0.00000460 Ry

     iteration #  6     ecut=    30.00 Ry     beta=0.70
     Davidson diagonalization with overlap
     ethr =  8.36E-09,  avg # of iterations =  2.0

     total cpu time spent up to now is       26.8 secs

     total energy              =    -329.48659917 Ry
     Harris-Foulkes estimate   =    -329.48659938 Ry
     estimated scf accuracy    <       0.00000044 Ry

     iteration #  7     ecut=    30.00 Ry     beta=0.70
     Davidson diagonalization with overlap
     ethr =  8.04E-10,  avg # of iterations =  2.0

     total cpu time spent up to now is       27.0 secs

     total energy              =    -329.48659926 Ry
     Harris-Foulkes estimate   =    -329.48659927 Ry
     estimated scf accuracy    <       0.00000005 Ry

     iteration #  8     ecut=    30.00 Ry     beta=0.70
     Davidson diagonalization with overlap
     ethr =  9.51E-11,  avg # of iterations =  3.0

     total cpu time spent up to now is       27.2 secs

     total energy              =    -329.48659924 Ry
     Harris-Foulkes estimate   =    -329.48659928 Ry
     estimated scf accuracy    <       0.00000001 Ry

     iteration #  9     ecut=    30.00 Ry     beta=0.70
     Davidson diagonalization with overlap
     ethr =  2.70E-11,  avg # of iterations =  3.0

     total cpu time spent up to now is       27.5 secs

     total energy              =    -329.48659923 Ry
     Harris-Foulkes estimate   =    -329.48659925 Ry
     estimated scf accuracy    <          3.6E-09 Ry

     iteration # 10     ecut=    30.00 Ry     beta=0.70
     Davidson diagonalization with overlap
     ethr =  6.48E-12,  avg # of iterations =  2.0

     total cpu time spent up to now is       27.7 secs

     End of self-consistent calculation

          k = 0.0000 0.0000 0.0000 ( 22119 PWs)   bands (ev):

    -8.4417  -7.7071  -7.6143  -7.2353  -7.1565  -6.7840  -6.5669  -6.4715
    -6.2979  -6.0593  -5.9803  -5.7333  -5.6865  -5.6591  -5.4426  -5.4062
    -5.3014  -5.2353  -5.2194  -5.2109  -5.1401  -5.1147  -4.9826  -4.9614
    -4.8989  -4.5683  -4.4717  -3.7839  -2.5571  -2.1380  -0.5577  -0.2843
     0.4433   0.9133

     the Fermi energy is    -3.7595 ev

!    total energy              =    -329.48659925 Ry
     Harris-Foulkes estimate   =    -329.48659924 Ry
     estimated scf accuracy    <          4.5E-10 Ry

     The total energy is the sum of the following terms:

     one-electron contribution =    -608.20408736 Ry
     hartree contribution      =     325.54957888 Ry
     xc contribution           =     -51.40940114 Ry
     ewald contribution        =       4.57960254 Ry
     smearing contrib. (-TS)   =      -0.00229217 Ry

     convergence has been achieved in  10 iterations

     Forces acting on atoms (Ry/au):

     atom    1 type  1   force =    -0.00251826   -0.00111341   -0.00313801
     atom    2 type  1   force =    -0.00465940    0.00258600    0.00443758
     atom    3 type  1   force =     0.00658013    0.00181260    0.00054835
     atom    4 type  1   force =    -0.00017072   -0.00262652   -0.00285956
     atom    5 type  1   force =     0.00076825   -0.00065867    0.00101165

     Total force =     0.011382     Total SCF correction =     0.000093

     number of scf cycles    =  11
     number of bfgs steps    =  10

     energy   old            =    -329.4862414046 Ry
     energy   new            =    -329.4865992496 Ry

     CASE: energy  _new < energy  _old

     new trust radius        =       0.0103140494 bohr
     new conv_thr            =       0.0000000004 Ry


ATOMIC_POSITIONS (bohr)
Au      -2.163580506   1.766670412  -0.189067782
Au      -0.244254247   2.291515712   4.575404627
Au       2.823768321   1.300347687   0.555883795
Au       4.576760641   2.578118656   6.314550889
Au       7.527409791   1.156767533   2.359398471



     Writing output data file pwscf.save
     Check: negative starting charge=   -0.006480
     NEW-OLD atomic charge density approx. for the potential
     Check: negative starting charge=   -0.006481

     negative rho (up, down):  6.439E-06 0.000E+00

     total cpu time spent up to now is       27.9 secs

     per-process dynamical memory:    50.7 Mb

     Self-consistent Calculation

     iteration #  1     ecut=    30.00 Ry     beta=0.70
     Davidson diagonalization with overlap
     ethr =  1.00E-06,  avg # of iterations =  4.0

     Threshold (ethr) on eigenvalues was too large:
     Diagonalizing with lowered threshold

     Davidson diagonalization with overlap
     ethr =  2.65E-08,  avg # of iterations =  2.0

     total cpu time spent up to now is       28.3 secs

     total energy              =    -329.48670689 Ry
     Harris-Foulkes estimate   =    -329.48670605 Ry
     estimated scf accuracy    <       0.00001563 Ry

     iteration #  2     ecut=    30.00 Ry     beta=0.70
     Davidson diagonalization with overlap
     ethr =  2.84E-08,  avg # of iterations =  2.0

     total cpu time spent up to now is       28.6 secs

     total energy              =    -329.48670846 Ry
     Harris-Foulkes estimate   =    -329.48671472 Ry
     estimated scf accuracy    <       0.00001446 Ry

     iteration #  3     ecut=    30.00 Ry     beta=0.70
     Davidson diagonalization with overlap
     ethr =  2.63E-08,  avg # of iterations =  2.0

     total cpu time spent up to now is       28.8 secs

     total energy              =    -329.48671105 Ry
     Harris-Foulkes estimate   =    -329.48671413 Ry
     estimated scf accuracy    <       0.00000985 Ry

     iteration #  4     ecut=    30.00 Ry     beta=0.70
     Davidson diagonalization with overlap
     ethr =  1.79E-08,  avg # of iterations =  2.0

     total cpu time spent up to now is       29.0 secs

     total energy              =    -329.48671308 Ry
     Harris-Foulkes estimate   =    -329.48671301 Ry
     estimated scf accuracy    <       0.00000088 Ry

     iteration #  5     ecut=    30.00 Ry     beta=0.70
     Davidson diagonalization with overlap
     ethr =  1.60E-09,  avg # of iterations =  2.0

     total cpu time spent up to now is       29.2 secs

     total energy              =    -329.48671331 Ry
     Harris-Foulkes estimate   =    -329.48671335 Ry
     estimated scf accuracy    <       0.00000025 Ry

     iteration #  6     ecut=    30.00 Ry     beta=0.70
     Davidson diagonalization with overlap
     ethr =  4.52E-10,  avg # of iterations =  2.0

     total cpu time spent up to now is       29.4 secs

     total energy              =    -329.48671327 Ry
     Harris-Foulkes estimate   =    -329.48671336 Ry
     estimated scf accuracy    <       0.00000001 Ry

     iteration #  7     ecut=    30.00 Ry     beta=0.70
     Davidson diagonalization with overlap
     ethr =  2.22E-11,  avg # of iterations =  3.0

     total cpu time spent up to now is       29.6 secs

     total energy              =    -329.48671329 Ry
     Harris-Foulkes estimate   =    -329.48671328 Ry
     estimated scf accuracy    <          1.8E-09 Ry

     iteration #  8     ecut=    30.00 Ry     beta=0.70
     Davidson diagonalization with overlap
     ethr =  3.26E-12,  avg # of iterations =  2.0

     total cpu time spent up to now is       29.8 secs

     End of self-consistent calculation

          k = 0.0000 0.0000 0.0000 ( 22119 PWs)   bands (ev):

    -8.4335  -7.6987  -7.6053  -7.2250  -7.1449  -6.7788  -6.5605  -6.4656
    -6.2925  -6.0528  -5.9796  -5.7317  -5.6855  -5.6576  -5.4397  -5.4029
    -5.3029  -5.2359  -5.2206  -5.2114  -5.1429  -5.1161  -4.9833  -4.9638
    -4.9024  -4.5696  -4.4788  -3.7865  -2.5595  -2.1456  -0.5566  -0.2840
     0.4423   0.9120

     the Fermi energy is    -3.7616 ev

!    total energy              =    -329.48671329 Ry
     Harris-Foulkes estimate   =    -329.48671330 Ry
     estimated scf accuracy    <          3.3E-10 Ry

     The total energy is the sum of the following terms:

     one-electron contribution =    -607.56694649 Ry
     hartree contribution      =     325.23363232 Ry
     xc contribution           =     -51.40635273 Ry
     ewald contribution        =       4.25534915 Ry
     smearing contrib. (-TS)   =      -0.00239554 Ry

     convergence has been achieved in   8 iterations

     Forces acting on atoms (Ry/au):

     atom    1 type  1   force =    -0.00166658   -0.00111182   -0.00252989
     atom    2 type  1   force =    -0.00368808    0.00241161    0.00379327
     atom    3 type  1   force =     0.00624780    0.00192856    0.00114295
     atom    4 type  1   force =    -0.00044891   -0.00289175   -0.00379019
     atom    5 type  1   force =    -0.00044424   -0.00033660    0.00138386

     Total force =     0.010651     Total SCF correction =     0.000080

     number of scf cycles    =  12
     number of bfgs steps    =  11

     energy   old            =    -329.4865992496 Ry
     energy   new            =    -329.4867132851 Ry

     CASE: energy  _new < energy  _old

     new trust radius        =       0.0113454543 bohr
     new conv_thr            =       0.0000000001 Ry


ATOMIC_POSITIONS (bohr)
Au      -2.164161183   1.763608012  -0.196615165
Au      -0.253897983   2.295962043   4.579398099
Au       2.828068328   1.306406178   0.562989594
Au       4.576325063   2.574146854   6.313548387
Au       7.533769775   1.153296914   2.356849085



     Writing output data file pwscf.save
     Check: negative starting charge=   -0.006481
     NEW-OLD atomic charge density approx. for the potential
     Check: negative starting charge=   -0.006481

     negative rho (up, down):  1.283E-05 0.000E+00

     total cpu time spent up to now is       30.0 secs

     per-process dynamical memory:    50.7 Mb

     Self-consistent Calculation

     iteration #  1     ecut=    30.00 Ry     beta=0.70
     Davidson diagonalization with overlap
     ethr =  1.00E-06,  avg # of iterations =  4.0

     Threshold (ethr) on eigenvalues was too large:
     Diagonalizing with lowered threshold

     Davidson diagonalization with overlap
     ethr =  3.93E-08,  avg # of iterations =  1.0

     total cpu time spent up to now is       30.5 secs

     total energy              =    -329.48683668 Ry
     Harris-Foulkes estimate   =    -329.48683686 Ry
     estimated scf accuracy    <       0.00002202 Ry

     iteration #  2     ecut=    30.00 Ry     beta=0.70
     Davidson diagonalization with overlap
     ethr =  4.00E-08,  avg # of iterations =  2.0

     total cpu time spent up to now is       30.7 secs

     total energy              =    -329.48684118 Ry
     Harris-Foulkes estimate   =    -329.48684626 Ry
     estimated scf accuracy    <       0.00001162 Ry

     iteration #  3     ecut=    30.00 Ry     beta=0.70
     Davidson diagonalization with overlap
     ethr =  2.11E-08,  avg # of iterations =  2.0

     total cpu time spent up to now is       30.9 secs

     total energy              =    -329.48684343 Ry
     Harris-Foulkes estimate   =    -329.48684473 Ry
     estimated scf accuracy    <       0.00000335 Ry

     iteration #  4     ecut=    30.00 Ry     beta=0.70
     Davidson diagonalization with overlap
     ethr =  6.08E-09,  avg # of iterations =  2.0

     total cpu time spent up to now is       31.1 secs

     total energy              =    -329.48684431 Ry
     Harris-Foulkes estimate   =    -329.48684498 Ry
     estimated scf accuracy    <       0.00000306 Ry

     iteration #  5     ecut=    30.00 Ry     beta=0.70
     Davidson diagonalization with overlap
     ethr =  5.56E-09,  avg # of iterations =  2.0

     total cpu time spent up to now is       31.3 secs

     total energy              =    -329.48684481 Ry
     Harris-Foulkes estimate   =    -329.48684485 Ry
     estimated scf accuracy    <       0.00000027 Ry

     iteration #  6     ecut=    30.00 Ry     beta=0.70
     Davidson diagonalization with overlap
     ethr =  4.86E-10,  avg # of iterations =  2.0

     total cpu time spent up to now is       31.5 secs

     total energy              =    -329.48684507 Ry
     Harris-Foulkes estimate   =    -329.48684488 Ry
     estimated scf accuracy    <       0.00000002 Ry

     iteration #  7     ecut=    30.00 Ry     beta=0.70
     Davidson diagonalization with overlap
     ethr =  3.73E-11,  avg # of iterations =  2.0

     total cpu time spent up to now is       31.8 secs

     total energy              =    -329.48684497 Ry
     Harris-Foulkes estimate   =    -329.48684507 Ry
     estimated scf accuracy    <          2.1E-09 Ry

     iteration #  8     ecut=    30.00 Ry     beta=0.70
     Davidson diagonalization with overlap
     ethr =  3.76E-12,  avg # of iterations =  2.0

     total cpu time spent up to now is       32.0 secs

     total energy              =    -329.48684496 Ry
     Harris-Foulkes estimate   =    -329.48684497 Ry
     estimated scf accuracy    <          2.1E-10 Ry

     iteration #  9     ecut=    30.00 Ry     beta=0.70
     Davidson diagonalization with overlap
     ethr =  3.84E-13,  avg # of iterations =  2.0

     total cpu time spent up to now is       32.2 secs

     End of self-consistent calculation

          k = 0.0000 0.0000 0.0000 ( 22119 PWs)   bands (ev):

    -8.4272  -7.6935  -7.5991  -7.2154  -7.1364  -6.7749  -6.5559  -6.4626
[...]

     CASE: energy  _new < energy  _old

     new trust radius        =       0.0121343698 bohr
     new conv_thr            =            1.0E-10 Ry


ATOMIC_POSITIONS (bohr)
Au      -1.949682431   1.744662100  -0.283829451
Au      -0.623018035   2.540044534   4.670851096
Au       2.956064500   1.392372921   0.832962330
Au       4.378285262   2.274104489   6.054230477
Au       7.758454705   1.142235956   2.341955547



     Writing output data file pwscf.save
     Check: negative starting charge=   -0.006568
     NEW-OLD atomic charge density approx. for the potential
     Check: negative starting charge=   -0.006576

     negative rho (up, down):  7.522E-06 0.000E+00

     total cpu time spent up to now is       82.0 secs

     per-process dynamical memory:    50.7 Mb

     Self-consistent Calculation

     iteration #  1     ecut=    30.00 Ry     beta=0.70
     Davidson diagonalization with overlap
     ethr =  1.00E-06,  avg # of iterations =  4.0

     Threshold (ethr) on eigenvalues was too large:
     Diagonalizing with lowered threshold

     Davidson diagonalization with overlap
     ethr =  3.47E-08,  avg # of iterations =  1.0

     total cpu time spent up to now is       82.5 secs

     total energy              =    -329.49097902 Ry
     Harris-Foulkes estimate   =    -329.49098187 Ry
     estimated scf accuracy    <       0.00001974 Ry

     iteration #  2     ecut=    30.00 Ry     beta=0.70
     Davidson diagonalization with overlap
     ethr =  3.59E-08,  avg # of iterations =  2.0

     total cpu time spent up to now is       82.7 secs

     total energy              =    -329.49097862 Ry
     Harris-Foulkes estimate   =    -329.49099171 Ry
     estimated scf accuracy    <       0.00002857 Ry

     iteration #  3     ecut=    30.00 Ry     beta=0.70
     Davidson diagonalization with overlap
     ethr =  3.59E-08,  avg # of iterations =  2.0

     total cpu time spent up to now is       83.0 secs

     total energy              =    -329.49098441 Ry
     Harris-Foulkes estimate   =    -329.49098721 Ry
     estimated scf accuracy    <       0.00000663 Ry

     iteration #  4     ecut=    30.00 Ry     beta=0.70
     Davidson diagonalization with overlap
     ethr =  1.21E-08,  avg # of iterations =  2.0

     total cpu time spent up to now is       83.2 secs

     total energy              =    -329.49098600 Ry
     Harris-Foulkes estimate   =    -329.49098586 Ry
     estimated scf accuracy    <       0.00000055 Ry

     iteration #  5     ecut=    30.00 Ry     beta=0.70
     Davidson diagonalization with overlap
     ethr =  1.01E-09,  avg # of iterations =  2.0

     total cpu time spent up to now is       83.4 secs

     total energy              =    -329.49098626 Ry
     Harris-Foulkes estimate   =    -329.49098617 Ry
     estimated scf accuracy    <       0.00000011 Ry

     iteration #  6     ecut=    30.00 Ry     beta=0.70
     Davidson diagonalization with overlap
     ethr =  2.02E-10,  avg # of iterations =  2.0

     total cpu time spent up to now is       83.6 secs

     total energy              =    -329.49098634 Ry
     Harris-Foulkes estimate   =    -329.49098629 Ry
     estimated scf accuracy    <          8.9E-09 Ry

     iteration #  7     ecut=    30.00 Ry     beta=0.70
     Davidson diagonalization with overlap
     ethr =  1.63E-11,  avg # of iterations =  2.0

     total cpu time spent up to now is       83.9 secs

     total energy              =    -329.49098635 Ry
     Harris-Foulkes estimate   =    -329.49098634 Ry
     estimated scf accuracy    <          2.5E-09 Ry

     iteration #  8     ecut=    30.00 Ry     beta=0.70
     Davidson diagonalization with overlap
     ethr =  4.47E-12,  avg # of iterations =  2.0

     total cpu time spent up to now is       84.1 secs

     total energy              =    -329.49098634 Ry
     Harris-Foulkes estimate   =    -329.49098635 Ry
     estimated scf accuracy    <          2.4E-10 Ry

     iteration #  9     ecut=    30.00 Ry     beta=0.70
     Davidson diagonalization with overlap
     ethr =  4.39E-13,  avg # of iterations =  3.0

     total cpu time spent up to now is       84.3 secs

     total energy              =    -329.49098633 Ry
     Harris-Foulkes estimate   =    -329.49098634 Ry
     estimated scf accuracy    <          1.7E-10 Ry

     iteration # 10     ecut=    30.00 Ry     beta=0.70
     Davidson diagonalization with overlap
     ethr =  3.16E-13,  avg # of iterations =  2.0

     total cpu time spent up to now is       84.5 secs

     End of self-consistent calculation

          k = 0.0000 0.0000 0.0000 ( 22119 PWs)   bands (ev):

    -8.5263  -7.7905  -7.6504  -7.2268  -6.8484  -6.8292  -6.6067  -6.4847
    -6.3018  -6.0862  -5.9575  -5.7743  -5.7388  -5.6886  -5.4627  -5.3615
    -5.3156  -5.2518  -5.2026  -5.1884  -5.1713  -5.1292  -4.9937  -4.9286
    -4.8477  -4.7314  -4.4885  -3.7896  -2.5130  -2.2010  -0.5813  -0.2316
     0.5328   0.9237

     the Fermi energy is    -3.7574 ev

!    total energy              =    -329.49098633 Ry
     Harris-Foulkes estimate   =    -329.49098633 Ry
     estimated scf accuracy    <          1.1E-11 Ry

     The total energy is the sum of the following terms:

     one-electron contribution =    -610.29726780 Ry
     hartree contribution      =     326.57579409 Ry
     xc contribution           =     -51.40327247 Ry
     ewald contribution        =       5.63801082 Ry
     smearing contrib. (-TS)   =      -0.00425097 Ry

     convergence has been achieved in  10 iterations

     Forces acting on atoms (Ry/au):

     atom    1 type  1   force =    -0.00081236    0.00128310    0.00035569
     atom    2 type  1   force =     0.00049818   -0.00005402   -0.00068891
     atom    3 type  1   force =     0.00037627    0.00052496   -0.00006226
     atom    4 type  1   force =    -0.00041625   -0.00082952    0.00035530
     atom    5 type  1   force =     0.00035416   -0.00092452    0.00004018

     Total force =     0.002356     Total SCF correction =     0.000015

     number of scf cycles    =  33
     number of bfgs steps    =  32

     energy   old            =    -329.4909650446 Ry
     energy   new            =    -329.4909863272 Ry

     CASE: energy  _new < energy  _old

     new trust radius        =       0.0038981191 bohr
     new conv_thr            =            1.0E-10 Ry


ATOMIC_POSITIONS (bohr)
Au      -1.950937878   1.746212013  -0.283431500
Au      -0.620817000   2.538743564   4.667908605
Au       2.956619079   1.394247994   0.835234978
Au       4.377559879   2.274248622   6.056300293
Au       7.757679920   1.139967807   2.340157624



     Writing output data file pwscf.save
     Check: negative starting charge=   -0.006576
     NEW-OLD atomic charge density approx. for the potential
     Check: negative starting charge=   -0.006578

     negative rho (up, down):  3.219E-08 0.000E+00

     total cpu time spent up to now is       84.7 secs

     per-process dynamical memory:    50.7 Mb

     Self-consistent Calculation

     iteration #  1     ecut=    30.00 Ry     beta=0.70
     Davidson diagonalization with overlap
     ethr =  1.00E-06,  avg # of iterations =  3.0

     Threshold (ethr) on eigenvalues was too large:
     Diagonalizing with lowered threshold

     Davidson diagonalization with overlap
     ethr =  4.42E-09,  avg # of iterations =  2.0

     total cpu time spent up to now is       85.2 secs

     total energy              =    -329.49099270 Ry
     Harris-Foulkes estimate   =    -329.49099229 Ry
     estimated scf accuracy    <       0.00000263 Ry

     iteration #  2     ecut=    30.00 Ry     beta=0.70
     Davidson diagonalization with overlap
     ethr =  4.78E-09,  avg # of iterations =  2.0

     total cpu time spent up to now is       85.4 secs

     total energy              =    -329.49099272 Ry
     Harris-Foulkes estimate   =    -329.49099422 Ry
     estimated scf accuracy    <       0.00000308 Ry

     iteration #  3     ecut=    30.00 Ry     beta=0.70
     Davidson diagonalization with overlap
     ethr =  4.78E-09,  avg # of iterations =  2.0

     total cpu time spent up to now is       85.6 secs

     total energy              =    -329.49099358 Ry
     Harris-Foulkes estimate   =    -329.49099366 Ry
     estimated scf accuracy    <       0.00000074 Ry

     iteration #  4     ecut=    30.00 Ry     beta=0.70
     Davidson diagonalization with overlap
     ethr =  1.35E-09,  avg # of iterations =  2.0

     total cpu time spent up to now is       85.8 secs

     total energy              =    -329.49099382 Ry
     Harris-Foulkes estimate   =    -329.49099378 Ry
     estimated scf accuracy    <       0.00000015 Ry

     iteration #  5     ecut=    30.00 Ry     beta=0.70
     Davidson diagonalization with overlap
     ethr =  2.78E-10,  avg # of iterations =  2.0

     total cpu time spent up to now is       86.0 secs

     total energy              =    -329.49099388 Ry
     Harris-Foulkes estimate   =    -329.49099386 Ry
     estimated scf accuracy    <       0.00000002 Ry

     iteration #  6     ecut=    30.00 Ry     beta=0.70
     Davidson diagonalization with overlap
     ethr =  2.97E-11,  avg # of iterations =  2.0

     total cpu time spent up to now is       86.2 secs

     total energy              =    -329.49099389 Ry
     Harris-Foulkes estimate   =    -329.49099388 Ry
     estimated scf accuracy    <          1.4E-09 Ry

     iteration #  7     ecut=    30.00 Ry     beta=0.70
     Davidson diagonalization with overlap
     ethr =  2.47E-12,  avg # of iterations =  3.0

     total cpu time spent up to now is       86.5 secs

     total energy              =    -329.49099393 Ry
     Harris-Foulkes estimate   =    -329.49099389 Ry
     estimated scf accuracy    <          4.7E-10 Ry

     iteration #  8     ecut=    30.00 Ry     beta=0.70
     Davidson diagonalization with overlap
     ethr =  8.49E-13,  avg # of iterations =  2.0

     total cpu time spent up to now is       86.7 secs

     End of self-consistent calculation

          k = 0.0000 0.0000 0.0000 ( 22119 PWs)   bands (ev):

    -8.5286  -7.7924  -7.6540  -7.2286  -6.8495  -6.8304  -6.6058  -6.4868
    -6.3031  -6.0872  -5.9569  -5.7743  -5.7388  -5.6892  -5.4637  -5.3615
    -5.3157  -5.2522  -5.2028  -5.1885  -5.1712  -5.1287  -4.9937  -4.9285
    -4.8471  -4.7304  -4.4887  -3.7894  -2.5123  -2.2003  -0.5817  -0.2312
     0.5333   0.9241

     the Fermi energy is    -3.7572 ev

!    total energy              =    -329.49099393 Ry
     Harris-Foulkes estimate   =    -329.49099393 Ry
     estimated scf accuracy    <          5.3E-11 Ry

     The total energy is the sum of the following terms:

     one-electron contribution =    -610.41354824 Ry
     hartree contribution      =     326.63313308 Ry
     xc contribution           =     -51.40366465 Ry
     ewald contribution        =       5.69734242 Ry
     smearing contrib. (-TS)   =      -0.00425654 Ry

     convergence has been achieved in   8 iterations

     Forces acting on atoms (Ry/au):

     atom    1 type  1   force =    -0.00066722    0.00118642    0.00023045
     atom    2 type  1   force =     0.00026294    0.00006627   -0.00035449
     atom    3 type  1   force =     0.00008636    0.00042007   -0.00046644
     atom    4 type  1   force =    -0.00013739   -0.00086215    0.00031895
     atom    5 type  1   force =     0.00045531   -0.00081063    0.00027154

     Total force =     0.002076     Total SCF correction =     0.000019

     number of scf cycles    =  34
     number of bfgs steps    =  33

     energy   old            =    -329.4909863272 Ry
     energy   new            =    -329.4909939342 Ry

     CASE: energy  _new < energy  _old

     new trust radius        =       0.0042879310 bohr
     new conv_thr            =            1.0E-10 Ry


ATOMIC_POSITIONS (bohr)
Au      -1.952927851   1.749937955  -0.282694129
Au      -0.618585728   2.538093640   4.665143291
Au       2.957226196   1.395485899   0.836192974
Au       4.376516381   2.272556014   6.058132756
Au       7.757875002   1.137346491   2.339395107



     Writing output data file pwscf.save
     Check: negative starting charge=   -0.006578
     NEW-OLD atomic charge density approx. for the potential
     Check: negative starting charge=   -0.006581

     negative rho (up, down):  9.344E-08 0.000E+00

     total cpu time spent up to now is       86.9 secs

     per-process dynamical memory:    50.7 Mb

     Self-consistent Calculation

     iteration #  1     ecut=    30.00 Ry     beta=0.70
     Davidson diagonalization with overlap
     ethr =  1.00E-06,  avg # of iterations =  3.0

     Threshold (ethr) on eigenvalues was too large:
     Diagonalizing with lowered threshold

     Davidson diagonalization with overlap
     ethr =  6.08E-09,  avg # of iterations =  2.0

     total cpu time spent up to now is       87.3 secs

     total energy              =    -329.49100192 Ry
     Harris-Foulkes estimate   =    -329.49100222 Ry
     estimated scf accuracy    <       0.00000361 Ry

     iteration #  2     ecut=    30.00 Ry     beta=0.70
     Davidson diagonalization with overlap
     ethr =  6.56E-09,  avg # of iterations =  3.0

     total cpu time spent up to now is       87.5 secs

     total energy              =    -329.49100241 Ry
     Harris-Foulkes estimate   =    -329.49100425 Ry
     estimated scf accuracy    <       0.00000465 Ry

     iteration #  3     ecut=    30.00 Ry     beta=0.70
     Davidson diagonalization with overlap
     ethr =  6.56E-09,  avg # of iterations =  2.0

     total cpu time spent up to now is       87.7 secs

     total energy              =    -329.49100349 Ry
     Harris-Foulkes estimate   =    -329.49100360 Ry
     estimated scf accuracy    <       0.00000060 Ry

     iteration #  4     ecut=    30.00 Ry     beta=0.70
     Davidson diagonalization with overlap
     ethr =  1.09E-09,  avg # of iterations =  2.0

     total cpu time spent up to now is       88.0 secs

     total energy              =    -329.49100351 Ry
     Harris-Foulkes estimate   =    -329.49100374 Ry
     estimated scf accuracy    <       0.00000037 Ry

     iteration #  5     ecut=    30.00 Ry     beta=0.70
     Davidson diagonalization with overlap
     ethr =  6.65E-10,  avg # of iterations =  2.0

     total cpu time spent up to now is       88.2 secs

     total energy              =    -329.49100361 Ry
     Harris-Foulkes estimate   =    -329.49100358 Ry
     estimated scf accuracy    <       0.00000001 Ry

     iteration #  6     ecut=    30.00 Ry     beta=0.70
     Davidson diagonalization with overlap
     ethr =  1.90E-11,  avg # of iterations =  3.0

     total cpu time spent up to now is       88.4 secs

     total energy              =    -329.49100356 Ry
     Harris-Foulkes estimate   =    -329.49100362 Ry
     estimated scf accuracy    <          3.1E-09 Ry

     iteration #  7     ecut=    30.00 Ry     beta=0.70
     Davidson diagonalization with overlap
     ethr =  5.64E-12,  avg # of iterations =  2.0

     total cpu time spent up to now is       88.6 secs

     total energy              =    -329.49100359 Ry
     Harris-Foulkes estimate   =    -329.49100356 Ry
     estimated scf accuracy    <          5.3E-10 Ry

     iteration #  8     ecut=    30.00 Ry     beta=0.70
     Davidson diagonalization with overlap
     ethr =  9.68E-13,  avg # of iterations =  2.0

     total cpu time spent up to now is       88.9 secs

     total energy              =    -329.49100358 Ry
     Harris-Foulkes estimate   =    -329.49100359 Ry
     estimated scf accuracy    <          1.5E-10 Ry

     iteration #  9     ecut=    30.00 Ry     beta=0.70
     Davidson diagonalization with overlap
     ethr =  2.64E-13,  avg # of iterations =  2.0

     total cpu time spent up to now is       89.0 secs

     End of self-consistent calculation

          k = 0.0000 0.0000 0.0000 ( 22119 PWs)   bands (ev):

    -8.5289  -7.7931  -7.6568  -7.2304  -6.8505  -6.8302  -6.6051  -6.4883
    -6.3046  -6.0871  -5.9565  -5.7740  -5.7382  -5.6895  -5.4646  -5.3617
    -5.3159  -5.2524  -5.2028  -5.1885  -5.1711  -5.1283  -4.9944  -4.9281
    -4.8467  -4.7299  -4.4887  -3.7893  -2.5128  -2.1991  -0.5819  -0.2309
     0.5334   0.9240

     the Fermi energy is    -3.7571 ev

!    total energy              =    -329.49100356 Ry
     Harris-Foulkes estimate   =    -329.49100358 Ry
     estimated scf accuracy    <          7.6E-12 Ry

     The total energy is the sum of the following terms:

     one-electron contribution =    -610.47313799 Ry
     hartree contribution      =     326.66247219 Ry
     xc contribution           =     -51.40383697 Ry
     ewald contribution        =       5.72775513 Ry
     smearing contrib. (-TS)   =      -0.00425591 Ry

     convergence has been achieved in   9 iterations

     Forces acting on atoms (Ry/au):

     atom    1 type  1   force =    -0.00041028    0.00099809    0.00010739
     atom    2 type  1   force =     0.00005956    0.00016968   -0.00006988
     atom    3 type  1   force =    -0.00012597    0.00037457   -0.00071731
     atom    4 type  1   force =     0.00012012   -0.00085752    0.00024348
     atom    5 type  1   force =     0.00035657   -0.00068483    0.00043632

     Total force =     0.001865     Total SCF correction =     0.000009

     bfgs converged in  35 scf cycles and  34 bfgs steps
     (criteria: energy <  1.0E-04, force <  1.0E-03)

     End of BFGS Geometry Optimization

     Final energy   =    -329.4910035603 Ry
Begin final coordinates

ATOMIC_POSITIONS (bohr)
Au      -1.952927851   1.749937955  -0.282694129
Au      -0.618585728   2.538093640   4.665143291
Au       2.957226196   1.395485899   0.836192974
Au       4.376516381   2.272556014   6.058132756
Au       7.757875002   1.137346491   2.339395107
End final coordinates



     Writing output data file pwscf.save
 
     init_run     :      0.20s CPU      0.23s WALL (       1 calls)
     electrons    :     77.85s CPU     82.79s WALL (      35 calls)
     update_pot   :      2.22s CPU      2.68s WALL (      34 calls)
     forces       :      1.44s CPU      1.46s WALL (      35 calls)

     Called by init_run:
     wfcinit      :      0.07s CPU      0.08s WALL (       1 calls)
     potinit      :      0.03s CPU      0.03s WALL (       1 calls)

     Called by electrons:
     c_bands      :     59.84s CPU     60.49s WALL (     353 calls)
     sum_band     :      8.28s CPU      8.46s WALL (     353 calls)
     v_of_rho     :      6.64s CPU      6.73s WALL (     378 calls)
     mix_rho      :      2.61s CPU      5.59s WALL (     353 calls)

     Called by c_bands:
     init_us_2    :      1.05s CPU      1.10s WALL (     707 calls)
     cegterg      :     53.39s CPU     53.81s WALL (     353 calls)

     Called by sum_band:

     Called by *egterg:
     h_psi        :     41.57s CPU     41.87s WALL (    1277 calls)
     g_psi        :      0.42s CPU      0.42s WALL (     923 calls)
     cdiaghg      :      2.95s CPU      2.96s WALL (    1232 calls)

     Called by h_psi:
     h_psi:pot    :     40.97s CPU     41.26s WALL (    1277 calls)
     h_psi:calbec :      2.27s CPU      2.27s WALL (    1277 calls)
     vloc_psi     :     36.15s CPU     36.44s WALL (    1277 calls)
     add_vuspsi   :      2.55s CPU      2.55s WALL (    1277 calls)

     General routines
     calbec       :      2.67s CPU      2.70s WALL (    1417 calls)
     fft          :      3.68s CPU      3.76s WALL (    4247 calls)
     fftw         :     37.90s CPU     38.47s WALL (   79824 calls)
     davcio       :      0.43s CPU      2.82s WALL (    3614 calls)
 
     Parallel routines
     fft_scatter  :      9.53s CPU      9.24s WALL (   84071 calls)
 
     PWSCF        :  1m22.66s CPU     1m29.38s WALL

 
   This run was terminated on:  22:46:11   3Aug2017            

=------------------------------------------------------------------------------=
   JOB DONE.
=------------------------------------------------------------------------------=
