
     Program PWSCF v.6.0 (svn rev. 13079) starts on  3Aug2017 at 19:11:14 

     This program is part of the open-source Quantum ESPRESSO suite
     for quantum simulation of materials; please cite
         "P. Giannozzi et al., J. Phys.:Condens. Matter 21 395502 (2009);
          URL http://www.quantum-espresso.org", 
     in publications or presentations arising from this work. More details at
     http://www.quantum-espresso.org/quote

     Parallel version (MPI), running on    10 processors
     R & G space division:  proc/nbgrp/npool/nimage =      10
     Reading input from input/multi/minchecks-Gold5-383.in

     Current dimensions of program PWSCF are:
     Max number of different atomic species (ntypx) = 10
     Max number of k-points (npk) =  40000
     Max angular momentum in pseudopotentials (lmaxx) =  3
     Message from routine iosys:
     pot_extrapolation='second-order' not available, using 'atomic'
     Message from routine iosys:
     wfc_extrapolation='second-order' not available, using 'atomic'

     Subspace diagonalization in iterative solution of the eigenvalue problem:
     a serial algorithm will be used

 
     Parallelization info
     --------------------
     sticks:   dense  smooth     PW     G-vecs:    dense   smooth      PW
     Min         380     380     94                17748    17748    2208
     Max         381     381     95                17753    17753    2213
     Sum        3809    3809    949               177509   177509   22119
 


     bravais-lattice index     =            1
     lattice parameter (alat)  =      20.0000  a.u.
     unit-cell volume          =    8000.0000 (a.u.)^3
     number of atoms/cell      =            5
     number of atomic types    =            1
     number of electrons       =        55.00
     number of Kohn-Sham states=           34
     kinetic-energy cutoff     =      30.0000  Ry
     charge density cutoff     =     120.0000  Ry
     convergence threshold     =      1.0E-08
     mixing beta               =       0.7000
     number of iterations used =            8  plain     mixing
     Exchange-correlation      = BLYP ( 1  3  1  3 0 0)
     nstep                     =           50


     celldm(1)=  20.000000  celldm(2)=   0.000000  celldm(3)=   0.000000
     celldm(4)=   0.000000  celldm(5)=   0.000000  celldm(6)=   0.000000

     crystal axes: (cart. coord. in units of alat)
               a(1) = (   1.000000   0.000000   0.000000 )  
               a(2) = (   0.000000   1.000000   0.000000 )  
               a(3) = (   0.000000   0.000000   1.000000 )  

     reciprocal axes: (cart. coord. in units 2 pi/alat)
               b(1) = (  1.000000  0.000000  0.000000 )  
               b(2) = (  0.000000  1.000000  0.000000 )  
               b(3) = (  0.000000  0.000000  1.000000 )  


     PseudoPot. # 1 for Au read from file:
     ./Au.blyp-d-hgh.UPF
     MD5 check sum: c10d8bae01f806c36a1643a1c69a8479
     Pseudo is Norm-conserving, Zval = 11.0
     Generated in analytical, separable form
     Using radial grid of 1279 points,  6 beta functions with: 
                l(1) =   0
                l(2) =   0
                l(3) =   1
                l(4) =   1
                l(5) =   2
                l(6) =   2

     atomic species   valence    mass     pseudopotential
        Au            11.00    28.08600     Au( 1.00)

     No symmetry found



   Cartesian axes

     site n.     atom                  positions (alat units)
         1           Au  tau(   1) = (  -0.0926004   0.0923777  -0.0513142  )
         2           Au  tau(   2) = (  -0.0391231   0.1642621   0.1874704  )
         3           Au  tau(   3) = (   0.1508208   0.0777599   0.0340940  )
         4           Au  tau(   4) = (   0.2017221   0.1387765   0.2967455  )
         5           Au  tau(   5) = (   0.3846724   0.0642936   0.1301087  )

     number of k points=     1  Marzari-Vanderbilt smearing, width (Ry)=  0.0250
                       cart. coord. in units 2pi/alat
        k(    1) = (   0.0000000   0.0000000   0.0000000), wk =   2.0000000

     Dense  grid:   177509 G-vectors     FFT dimensions: (  72,  72,  72)

     Estimated max dynamical RAM per process >      15.04Mb

     Estimated total allocated dynamical RAM >     150.39Mb

     Initial potential from superposition of free atoms
     Check: negative starting charge=   -0.006485

     starting charge   54.99940, renormalised to   55.00000

     negative rho (up, down):  6.485E-03 0.000E+00
     Starting wfc are   45 randomized atomic wfcs

     total cpu time spent up to now is        0.3 secs

     per-process dynamical memory:    41.0 Mb

     Self-consistent Calculation

     iteration #  1     ecut=    30.00 Ry     beta=0.70
     Davidson diagonalization with overlap
     ethr =  1.00E-02,  avg # of iterations =  3.0

     Threshold (ethr) on eigenvalues was too large:
     Diagonalizing with lowered threshold

     Davidson diagonalization with overlap
     ethr =  4.02E-04,  avg # of iterations =  5.0

     negative rho (up, down):  9.004E-04 0.000E+00

     total cpu time spent up to now is        0.7 secs

     total energy              =    -329.38311361 Ry
     Harris-Foulkes estimate   =    -329.54823990 Ry
     estimated scf accuracy    <       0.27559790 Ry

     iteration #  2     ecut=    30.00 Ry     beta=0.70
     Davidson diagonalization with overlap
     ethr =  5.01E-04,  avg # of iterations =  3.0

     negative rho (up, down):  3.778E-04 0.000E+00

     total cpu time spent up to now is        1.0 secs

     total energy              =    -329.42747304 Ry
     Harris-Foulkes estimate   =    -329.55097523 Ry
     estimated scf accuracy    <       0.24680482 Ry

     iteration #  3     ecut=    30.00 Ry     beta=0.70
     Davidson diagonalization with overlap
     ethr =  4.49E-04,  avg # of iterations =  2.0

     negative rho (up, down):  1.410E-04 0.000E+00

     total cpu time spent up to now is        1.2 secs

     total energy              =    -329.47820774 Ry
     Harris-Foulkes estimate   =    -329.49779782 Ry
     estimated scf accuracy    <       0.04844450 Ry

     iteration #  4     ecut=    30.00 Ry     beta=0.70
     Davidson diagonalization with overlap
     ethr =  8.81E-05,  avg # of iterations =  4.0

     negative rho (up, down):  3.729E-06 0.000E+00

     total cpu time spent up to now is        1.4 secs

     total energy              =    -329.48793147 Ry
     Harris-Foulkes estimate   =    -329.48913536 Ry
     estimated scf accuracy    <       0.00311252 Ry

     iteration #  5     ecut=    30.00 Ry     beta=0.70
     Davidson diagonalization with overlap
     ethr =  5.66E-06,  avg # of iterations =  6.0

     total cpu time spent up to now is        1.7 secs

     total energy              =    -329.48854806 Ry
     Harris-Foulkes estimate   =    -329.48926982 Ry
     estimated scf accuracy    <       0.00181173 Ry

     iteration #  6     ecut=    30.00 Ry     beta=0.70
     Davidson diagonalization with overlap
     ethr =  3.29E-06,  avg # of iterations =  2.0

     total cpu time spent up to now is        1.9 secs

     total energy              =    -329.48886724 Ry
     Harris-Foulkes estimate   =    -329.48896641 Ry
     estimated scf accuracy    <       0.00024858 Ry

     iteration #  7     ecut=    30.00 Ry     beta=0.70
     Davidson diagonalization with overlap
     ethr =  4.52E-07,  avg # of iterations =  2.0

     total cpu time spent up to now is        2.1 secs

     total energy              =    -329.48891923 Ry
     Harris-Foulkes estimate   =    -329.48892471 Ry
     estimated scf accuracy    <       0.00001212 Ry

     iteration #  8     ecut=    30.00 Ry     beta=0.70
     Davidson diagonalization with overlap
     ethr =  2.20E-08,  avg # of iterations =  3.0

     total cpu time spent up to now is        2.4 secs

     total energy              =    -329.48892140 Ry
     Harris-Foulkes estimate   =    -329.48892487 Ry
     estimated scf accuracy    <       0.00000771 Ry

     iteration #  9     ecut=    30.00 Ry     beta=0.70
     Davidson diagonalization with overlap
     ethr =  1.40E-08,  avg # of iterations =  2.0

     total cpu time spent up to now is        2.6 secs

     total energy              =    -329.48892246 Ry
     Harris-Foulkes estimate   =    -329.48892331 Ry
     estimated scf accuracy    <       0.00000108 Ry

     iteration # 10     ecut=    30.00 Ry     beta=0.70
     Davidson diagonalization with overlap
     ethr =  1.97E-09,  avg # of iterations =  2.0

     total cpu time spent up to now is        2.8 secs

     total energy              =    -329.48892254 Ry
     Harris-Foulkes estimate   =    -329.48892282 Ry
     estimated scf accuracy    <       0.00000029 Ry

     iteration # 11     ecut=    30.00 Ry     beta=0.70
     Davidson diagonalization with overlap
     ethr =  5.29E-10,  avg # of iterations =  2.0

     total cpu time spent up to now is        3.0 secs

     End of self-consistent calculation

          k = 0.0000 0.0000 0.0000 ( 22119 PWs)   bands (ev):

    -8.5228  -7.8173  -7.6461  -7.2622  -6.8302  -6.8046  -6.5943  -6.5248
    -6.2871  -6.0951  -5.9618  -5.7532  -5.7071  -5.6581  -5.5251  -5.3564
    -5.2991  -5.2609  -5.2051  -5.1769  -5.1684  -5.1156  -5.0328  -4.9573
    -4.8746  -4.6782  -4.5406  -3.7262  -2.5135  -2.2404  -0.5648  -0.1534
     0.4378   0.8455

     the Fermi energy is    -3.6844 ev

!    total energy              =    -329.48892249 Ry
     Harris-Foulkes estimate   =    -329.48892259 Ry
     estimated scf accuracy    <          5.9E-09 Ry

     The total energy is the sum of the following terms:

     one-electron contribution =    -607.85790204 Ry
     hartree contribution      =     325.34770582 Ry
     xc contribution           =     -51.39364804 Ry
     ewald contribution        =       4.42148278 Ry
     smearing contrib. (-TS)   =      -0.00656101 Ry

     convergence has been achieved in  11 iterations

     Forces acting on atoms (Ry/au):

     atom    1 type  1   force =     0.00666495   -0.00111655   -0.00321541
     atom    2 type  1   force =     0.00162485    0.00441046    0.01565151
     atom    3 type  1   force =     0.00183096   -0.00390647   -0.00885177
     atom    4 type  1   force =    -0.00735544    0.00104712   -0.00363524
     atom    5 type  1   force =    -0.00276532   -0.00043456    0.00005092

     Total force =     0.022278     Total SCF correction =     0.000246

     BFGS Geometry Optimization

     number of scf cycles    =   1
     number of bfgs steps    =   0

     energy   new            =    -329.4889224894 Ry

     new trust radius        =       0.0163420367 bohr
     new conv_thr            =       0.0000000100 Ry


ATOMIC_POSITIONS (bohr)
Au      -1.845343047   1.846437451  -1.029500415
Au      -0.780837150   3.289652464   3.765059512
Au       3.018245961   1.551292525   0.673028226
Au       4.027086559   2.776577121   5.931273756
Au       7.690682678   1.285436439   2.602224920



     Writing output data file pwscf.save
     Check: negative starting charge=   -0.006485
     NEW-OLD atomic charge density approx. for the potential
     Check: negative starting charge=   -0.006490

     negative rho (up, down):  1.947E-05 0.000E+00

     total cpu time spent up to now is        3.2 secs

     per-process dynamical memory:    42.9 Mb

     Self-consistent Calculation

     iteration #  1     ecut=    30.00 Ry     beta=0.70
     Davidson diagonalization with overlap
     ethr =  1.00E-06,  avg # of iterations =  4.0

     Threshold (ethr) on eigenvalues was too large:
     Diagonalizing with lowered threshold

     Davidson diagonalization with overlap
     ethr =  3.22E-08,  avg # of iterations =  1.0

     negative rho (up, down):  2.489E-08 0.000E+00

     total cpu time spent up to now is        3.7 secs

     total energy              =    -329.48938617 Ry
     Harris-Foulkes estimate   =    -329.48937606 Ry
     estimated scf accuracy    <       0.00001786 Ry

     iteration #  2     ecut=    30.00 Ry     beta=0.70
     Davidson diagonalization with overlap
     ethr =  3.25E-08,  avg # of iterations =  3.0

     total cpu time spent up to now is        3.9 secs

     total energy              =    -329.48938624 Ry
     Harris-Foulkes estimate   =    -329.48939318 Ry
     estimated scf accuracy    <       0.00001462 Ry

     iteration #  3     ecut=    30.00 Ry     beta=0.70
     Davidson diagonalization with overlap
     ethr =  2.66E-08,  avg # of iterations =  2.0

     total cpu time spent up to now is        4.1 secs

     total energy              =    -329.48938920 Ry
     Harris-Foulkes estimate   =    -329.48939231 Ry
     estimated scf accuracy    <       0.00000736 Ry

     iteration #  4     ecut=    30.00 Ry     beta=0.70
     Davidson diagonalization with overlap
     ethr =  1.34E-08,  avg # of iterations =  2.0

     total cpu time spent up to now is        4.3 secs

     total energy              =    -329.48939056 Ry
     Harris-Foulkes estimate   =    -329.48939093 Ry
     estimated scf accuracy    <       0.00000095 Ry

     iteration #  5     ecut=    30.00 Ry     beta=0.70
     Davidson diagonalization with overlap
     ethr =  1.72E-09,  avg # of iterations =  2.0

     total cpu time spent up to now is        4.6 secs

     total energy              =    -329.48939074 Ry
     Harris-Foulkes estimate   =    -329.48939084 Ry
     estimated scf accuracy    <       0.00000019 Ry

     iteration #  6     ecut=    30.00 Ry     beta=0.70
     Davidson diagonalization with overlap
     ethr =  3.50E-10,  avg # of iterations =  2.0

     total cpu time spent up to now is        4.7 secs

     total energy              =    -329.48939068 Ry
     Harris-Foulkes estimate   =    -329.48939078 Ry
     estimated scf accuracy    <       0.00000001 Ry

     iteration #  7     ecut=    30.00 Ry     beta=0.70
     Davidson diagonalization with overlap
     ethr =  2.13E-11,  avg # of iterations =  2.0

     total cpu time spent up to now is        5.0 secs

     End of self-consistent calculation

          k = 0.0000 0.0000 0.0000 ( 22119 PWs)   bands (ev):

    -8.5134  -7.8075  -7.6453  -7.2523  -6.8275  -6.8010  -6.5940  -6.5194
    -6.2858  -6.0919  -5.9583  -5.7523  -5.7074  -5.6621  -5.5176  -5.3568
    -5.3019  -5.2618  -5.2042  -5.1810  -5.1682  -5.1172  -5.0306  -4.9570
    -4.8737  -4.6828  -4.5387  -3.7339  -2.5114  -2.2412  -0.5639  -0.1592
     0.4385   0.8481

     the Fermi energy is    -3.6926 ev

!    total energy              =    -329.48939063 Ry
     Harris-Foulkes estimate   =    -329.48939068 Ry
     estimated scf accuracy    <          3.1E-09 Ry

     The total energy is the sum of the following terms:

     one-electron contribution =    -607.58020508 Ry
     hartree contribution      =     325.21116470 Ry
     xc contribution           =     -51.39224561 Ry
     ewald contribution        =       4.27831607 Ry
     smearing contrib. (-TS)   =      -0.00642071 Ry

     convergence has been achieved in   7 iterations

     Forces acting on atoms (Ry/au):

     atom    1 type  1   force =     0.00700283   -0.00059574   -0.00172040
     atom    2 type  1   force =     0.00159172    0.00352929    0.01336422
     atom    3 type  1   force =     0.00094220   -0.00347741   -0.00811455
     atom    4 type  1   force =    -0.00680280    0.00088205   -0.00377239
     atom    5 type  1   force =    -0.00273395   -0.00033820    0.00024312

     Total force =     0.019842     Total SCF correction =     0.000288

     number of scf cycles    =   2
     number of bfgs steps    =   1

     energy   old            =    -329.4889224894 Ry
     energy   new            =    -329.4893906342 Ry

     CASE: energy  _new < energy  _old


     WARNING: bfgs curvature condition failed, Theta= 0.903
     new trust radius        =       0.0179762404 bohr
     new conv_thr            =       0.0000000005 Ry


ATOMIC_POSITIONS (bohr)
Au      -1.836637021   1.845576401  -1.031985013
Au      -0.778834208   3.294270529   3.782316595
Au       3.019622026   1.546838574   0.662692761
Au       4.018436197   2.777719200   5.926574032
Au       7.687248006   1.284991297   2.602487626



     Writing output data file pwscf.save
     Check: negative starting charge=   -0.006490
     NEW-OLD atomic charge density approx. for the potential
     Check: negative starting charge=   -0.006493

     negative rho (up, down):  3.012E-05 0.000E+00

     total cpu time spent up to now is        5.2 secs

     per-process dynamical memory:    50.5 Mb

     Self-consistent Calculation

     iteration #  1     ecut=    30.00 Ry     beta=0.70
     Davidson diagonalization with overlap
     ethr =  1.00E-06,  avg # of iterations =  4.0

     Threshold (ethr) on eigenvalues was too large:
     Diagonalizing with lowered threshold

     Davidson diagonalization with overlap
     ethr =  4.13E-08,  avg # of iterations =  1.0

     negative rho (up, down):  7.085E-08 0.000E+00

     total cpu time spent up to now is        5.7 secs

     total energy              =    -329.48985653 Ry
     Harris-Foulkes estimate   =    -329.48984384 Ry
     estimated scf accuracy    <       0.00002288 Ry

     iteration #  2     ecut=    30.00 Ry     beta=0.70
     Davidson diagonalization with overlap
     ethr =  4.16E-08,  avg # of iterations =  2.0

     total cpu time spent up to now is        5.9 secs

     total energy              =    -329.48985789 Ry
     Harris-Foulkes estimate   =    -329.48986460 Ry
     estimated scf accuracy    <       0.00001518 Ry

     iteration #  3     ecut=    30.00 Ry     beta=0.70
     Davidson diagonalization with overlap
     ethr =  2.76E-08,  avg # of iterations =  2.0

     total cpu time spent up to now is        6.1 secs

     total energy              =    -329.48986058 Ry
     Harris-Foulkes estimate   =    -329.48986471 Ry
     estimated scf accuracy    <       0.00000927 Ry

     iteration #  4     ecut=    30.00 Ry     beta=0.70
     Davidson diagonalization with overlap
     ethr =  1.69E-08,  avg # of iterations =  2.0

     total cpu time spent up to now is        6.3 secs

     total energy              =    -329.48986253 Ry
     Harris-Foulkes estimate   =    -329.48986283 Ry
     estimated scf accuracy    <       0.00000125 Ry

     iteration #  5     ecut=    30.00 Ry     beta=0.70
     Davidson diagonalization with overlap
     ethr =  2.28E-09,  avg # of iterations =  2.0

     total cpu time spent up to now is        6.5 secs

     total energy              =    -329.48986274 Ry
     Harris-Foulkes estimate   =    -329.48986288 Ry
     estimated scf accuracy    <       0.00000023 Ry

     iteration #  6     ecut=    30.00 Ry     beta=0.70
     Davidson diagonalization with overlap
     ethr =  4.22E-10,  avg # of iterations =  2.0

     total cpu time spent up to now is        6.7 secs

     total energy              =    -329.48986277 Ry
     Harris-Foulkes estimate   =    -329.48986279 Ry
     estimated scf accuracy    <       0.00000001 Ry

     iteration #  7     ecut=    30.00 Ry     beta=0.70
     Davidson diagonalization with overlap
     ethr =  2.54E-11,  avg # of iterations =  3.0

     total cpu time spent up to now is        6.9 secs

     total energy              =    -329.48986276 Ry
     Harris-Foulkes estimate   =    -329.48986278 Ry
     estimated scf accuracy    <          2.9E-09 Ry

     iteration #  8     ecut=    30.00 Ry     beta=0.70
     Davidson diagonalization with overlap
     ethr =  5.33E-12,  avg # of iterations =  2.0

     total cpu time spent up to now is        7.2 secs

     total energy              =    -329.48986278 Ry
     Harris-Foulkes estimate   =    -329.48986276 Ry
     estimated scf accuracy    <          8.2E-10 Ry

     iteration #  9     ecut=    30.00 Ry     beta=0.70
     Davidson diagonalization with overlap
     ethr =  1.49E-12,  avg # of iterations =  2.0

     total cpu time spent up to now is        7.4 secs

     End of self-consistent calculation

          k = 0.0000 0.0000 0.0000 ( 22119 PWs)   bands (ev):

    -8.5051  -7.7977  -7.6457  -7.2435  -6.8271  -6.7983  -6.5926  -6.5136
    -6.2857  -6.0888  -5.9546  -5.7521  -5.7083  -5.6665  -5.5092  -5.3575
    -5.3050  -5.2619  -5.2032  -5.1850  -5.1680  -5.1189  -5.0277  -4.9561
    -4.8724  -4.6878  -4.5353  -3.7421  -2.5083  -2.2411  -0.5632  -0.1656
     0.4399   0.8512

     the Fermi energy is    -3.7016 ev

!    total energy              =    -329.48986274 Ry
     Harris-Foulkes estimate   =    -329.48986278 Ry
     estimated scf accuracy    <          1.5E-10 Ry

     The total energy is the sum of the following terms:

     one-electron contribution =    -607.37539745 Ry
     hartree contribution      =     325.11042846 Ry
     xc contribution           =     -51.39121980 Ry
     ewald contribution        =       4.17256493 Ry
     smearing contrib. (-TS)   =      -0.00623888 Ry

     convergence has been achieved in   9 iterations

     Forces acting on atoms (Ry/au):

     atom    1 type  1   force =     0.00712986   -0.00006823   -0.00033448
     atom    2 type  1   force =     0.00141908    0.00266674    0.01099529
     atom    3 type  1   force =     0.00034632   -0.00306094   -0.00724903
     atom    4 type  1   force =    -0.00615049    0.00070765   -0.00385684
     atom    5 type  1   force =    -0.00274478   -0.00024521    0.00044507

     Total force =     0.017436     Total SCF correction =     0.000045

     number of scf cycles    =   3
     number of bfgs steps    =   2

     energy   old            =    -329.4893906342 Ry
     energy   new            =    -329.4898627417 Ry

     CASE: energy  _new < energy  _old

     new trust radius        =       0.0269643606 bohr
     new conv_thr            =       0.0000000005 Ry


ATOMIC_POSITIONS (bohr)
Au      -1.821387637   1.844950861  -1.034019204
Au      -0.775660549   3.300844869   3.808273920
Au       3.021040934   1.539818629   0.646245604
Au       4.004552298   2.779408041   5.918313065
Au       7.681289953   1.284373601   2.603272615



     Writing output data file pwscf.save
     Check: negative starting charge=   -0.006493
     NEW-OLD atomic charge density approx. for the potential
     Check: negative starting charge=   -0.006492

     negative rho (up, down):  1.138E-04 0.000E+00

     total cpu time spent up to now is        7.6 secs

     per-process dynamical memory:    50.6 Mb

     Self-consistent Calculation

     iteration #  1     ecut=    30.00 Ry     beta=0.70
     Davidson diagonalization with overlap
     ethr =  1.00E-06,  avg # of iterations =  4.0

     negative rho (up, down):  1.145E-06 0.000E+00

     total cpu time spent up to now is        8.0 secs

     total energy              =    -329.49046242 Ry
     Harris-Foulkes estimate   =    -329.49042678 Ry
     estimated scf accuracy    <       0.00005580 Ry

     iteration #  2     ecut=    30.00 Ry     beta=0.70
     Davidson diagonalization with overlap
     ethr =  1.01E-07,  avg # of iterations =  2.0

     negative rho (up, down):  2.841E-08 0.000E+00

     total cpu time spent up to now is        8.2 secs

     total energy              =    -329.49046868 Ry
     Harris-Foulkes estimate   =    -329.49048104 Ry
     estimated scf accuracy    <       0.00002793 Ry

     iteration #  3     ecut=    30.00 Ry     beta=0.70
     Davidson diagonalization with overlap
     ethr =  5.08E-08,  avg # of iterations =  2.0

     total cpu time spent up to now is        8.4 secs

     total energy              =    -329.49047483 Ry
     Harris-Foulkes estimate   =    -329.49048130 Ry
     estimated scf accuracy    <       0.00001708 Ry

     iteration #  4     ecut=    30.00 Ry     beta=0.70
     Davidson diagonalization with overlap
     ethr =  3.10E-08,  avg # of iterations =  2.0

     total cpu time spent up to now is        8.6 secs

     total energy              =    -329.49047864 Ry
     Harris-Foulkes estimate   =    -329.49047971 Ry
     estimated scf accuracy    <       0.00000374 Ry

     iteration #  5     ecut=    30.00 Ry     beta=0.70
     Davidson diagonalization with overlap
     ethr =  6.81E-09,  avg # of iterations =  2.0

     total cpu time spent up to now is        8.8 secs

     total energy              =    -329.49047914 Ry
     Harris-Foulkes estimate   =    -329.49047951 Ry
     estimated scf accuracy    <       0.00000046 Ry

     iteration #  6     ecut=    30.00 Ry     beta=0.70
     Davidson diagonalization with overlap
     ethr =  8.31E-10,  avg # of iterations =  2.0

     total cpu time spent up to now is        9.0 secs

     total energy              =    -329.49047924 Ry
     Harris-Foulkes estimate   =    -329.49047926 Ry
     estimated scf accuracy    <       0.00000004 Ry

     iteration #  7     ecut=    30.00 Ry     beta=0.70
     Davidson diagonalization with overlap
     ethr =  7.07E-11,  avg # of iterations =  2.0

     total cpu time spent up to now is        9.3 secs

     total energy              =    -329.49047923 Ry
     Harris-Foulkes estimate   =    -329.49047925 Ry
     estimated scf accuracy    <          5.7E-09 Ry

     iteration #  8     ecut=    30.00 Ry     beta=0.70
     Davidson diagonalization with overlap
     ethr =  1.04E-11,  avg # of iterations =  2.0

     total cpu time spent up to now is        9.5 secs

     total energy              =    -329.49047924 Ry
     Harris-Foulkes estimate   =    -329.49047923 Ry
     estimated scf accuracy    <          8.3E-10 Ry

     iteration #  9     ecut=    30.00 Ry     beta=0.70
     Davidson diagonalization with overlap
     ethr =  1.51E-12,  avg # of iterations =  2.0

     total cpu time spent up to now is        9.7 secs

     End of self-consistent calculation

          k = 0.0000 0.0000 0.0000 ( 22119 PWs)   bands (ev):

    -8.4963  -7.7845  -7.6486  -7.2337  -6.8317  -6.7961  -6.5885  -6.5055
    -6.2881  -6.0847  -5.9493  -5.7533  -5.7108  -5.6731  -5.4962  -5.3592
    -5.3099  -5.2608  -5.2026  -5.1901  -5.1674  -5.1213  -5.0226  -4.9533
    -4.8699  -4.6957  -4.5281  -3.7544  -2.5025  -2.2392  -0.5625  -0.1754
     0.4430   0.8561

     the Fermi energy is    -3.7152 ev

!    total energy              =    -329.49047923 Ry
     Harris-Foulkes estimate   =    -329.49047924 Ry
     estimated scf accuracy    <          2.5E-10 Ry

     The total energy is the sum of the following terms:

     one-electron contribution =    -607.23339864 Ry
     hartree contribution      =     325.04182756 Ry
     xc contribution           =     -51.39067403 Ry
     ewald contribution        =       4.09767023 Ry
     smearing contrib. (-TS)   =      -0.00590436 Ry

     convergence has been achieved in   9 iterations

     Forces acting on atoms (Ry/au):

     atom    1 type  1   force =     0.00690074    0.00065848    0.00130778
     atom    2 type  1   force =     0.00098297    0.00149162    0.00734152
     atom    3 type  1   force =    -0.00006218   -0.00250125   -0.00569814
     atom    4 type  1   force =    -0.00501839    0.00045237   -0.00372970
     atom    5 type  1   force =    -0.00280314   -0.00010121    0.00077854

     Total force =     0.013905     Total SCF correction =     0.000060

     number of scf cycles    =   4
     number of bfgs steps    =   3

     energy   old            =    -329.4898627417 Ry
     energy   new            =    -329.4904792332 Ry

     CASE: energy  _new < energy  _old

     new trust radius        =       0.0404465409 bohr
     new conv_thr            =       0.0000000006 Ry


ATOMIC_POSITIONS (bohr)
Au      -1.794849004   1.845215088  -1.034540783
Au      -0.770880759   3.310269637   3.847315564
Au       3.022817219   1.528443475   0.620074841
Au       3.982121797   2.781915429   5.903940938
Au       7.670625747   1.283552372   2.605295439



     Writing output data file pwscf.save
     Check: negative starting charge=   -0.006492
     NEW-OLD atomic charge density approx. for the potential
     Check: negative starting charge=   -0.006480

     negative rho (up, down):  3.378E-04 0.000E+00

     total cpu time spent up to now is        9.9 secs

     per-process dynamical memory:    50.7 Mb

     Self-consistent Calculation

     iteration #  1     ecut=    30.00 Ry     beta=0.70
     Davidson diagonalization with overlap
     ethr =  1.00E-06,  avg # of iterations =  5.0

     negative rho (up, down):  9.895E-06 0.000E+00

     total cpu time spent up to now is       10.3 secs

     total energy              =    -329.49109246 Ry
     Harris-Foulkes estimate   =    -329.49094405 Ry
     estimated scf accuracy    <       0.00014378 Ry

     iteration #  2     ecut=    30.00 Ry     beta=0.70
     Davidson diagonalization with overlap
     ethr =  2.61E-07,  avg # of iterations =  3.0

     negative rho (up, down):  5.487E-07 0.000E+00

     total cpu time spent up to now is       10.6 secs

     total energy              =    -329.49111361 Ry
     Harris-Foulkes estimate   =    -329.49114193 Ry
     estimated scf accuracy    <       0.00006834 Ry

     iteration #  3     ecut=    30.00 Ry     beta=0.70
     Davidson diagonalization with overlap
     ethr =  1.24E-07,  avg # of iterations =  3.0

     total cpu time spent up to now is       10.8 secs

     total energy              =    -329.49113015 Ry
     Harris-Foulkes estimate   =    -329.49114221 Ry
     estimated scf accuracy    <       0.00003356 Ry

     iteration #  4     ecut=    30.00 Ry     beta=0.70
     Davidson diagonalization with overlap
     ethr =  6.10E-08,  avg # of iterations =  2.0

     total cpu time spent up to now is       11.0 secs

     total energy              =    -329.49113747 Ry
     Harris-Foulkes estimate   =    -329.49114060 Ry
     estimated scf accuracy    <       0.00000903 Ry

     iteration #  5     ecut=    30.00 Ry     beta=0.70
     Davidson diagonalization with overlap
     ethr =  1.64E-08,  avg # of iterations =  2.0

     total cpu time spent up to now is       11.2 secs

     total energy              =    -329.49113885 Ry
     Harris-Foulkes estimate   =    -329.49113941 Ry
     estimated scf accuracy    <       0.00000085 Ry

     iteration #  6     ecut=    30.00 Ry     beta=0.70
     Davidson diagonalization with overlap
     ethr =  1.55E-09,  avg # of iterations =  2.0

     total cpu time spent up to now is       11.4 secs

     total energy              =    -329.49113882 Ry
     Harris-Foulkes estimate   =    -329.49113912 Ry
     estimated scf accuracy    <       0.00000015 Ry

     iteration #  7     ecut=    30.00 Ry     beta=0.70
     Davidson diagonalization with overlap
     ethr =  2.67E-10,  avg # of iterations =  2.0

     total cpu time spent up to now is       11.6 secs

     total energy              =    -329.49113877 Ry
     Harris-Foulkes estimate   =    -329.49113886 Ry
     estimated scf accuracy    <       0.00000002 Ry

     iteration #  8     ecut=    30.00 Ry     beta=0.70
     Davidson diagonalization with overlap
     ethr =  3.30E-11,  avg # of iterations =  2.0

     total cpu time spent up to now is       11.8 secs

     total energy              =    -329.49113876 Ry
     Harris-Foulkes estimate   =    -329.49113877 Ry
     estimated scf accuracy    <          1.8E-09 Ry

     iteration #  9     ecut=    30.00 Ry     beta=0.70
     Davidson diagonalization with overlap
     ethr =  3.34E-12,  avg # of iterations =  3.0

     total cpu time spent up to now is       12.0 secs

     End of self-consistent calculation

          k = 0.0000 0.0000 0.0000 ( 22119 PWs)   bands (ev):

    -8.4891  -7.7673  -7.6566  -7.2245  -6.8477  -6.7961  -6.5777  -6.4938
    -6.2958  -6.0788  -5.9418  -5.7579  -5.7155  -5.6818  -5.4750  -5.3634
    -5.3177  -5.2556  -5.2057  -5.1933  -5.1657  -5.1242  -5.0132  -4.9459
    -4.8645  -4.7081  -4.5130  -3.7726  -2.4916  -2.2329  -0.5618  -0.1902
     0.4497   0.8641

     the Fermi energy is    -3.7362 ev

!    total energy              =    -329.49113880 Ry
     Harris-Foulkes estimate   =    -329.49113876 Ry
     estimated scf accuracy    <          5.5E-10 Ry

     The total energy is the sum of the following terms:

     one-electron contribution =    -607.29022119 Ry
     hartree contribution      =     325.07367061 Ry
     xc contribution           =     -51.39172752 Ry
     ewald contribution        =       4.12236836 Ry
     smearing contrib. (-TS)   =      -0.00522906 Ry

     convergence has been achieved in   9 iterations

     Forces acting on atoms (Ry/au):

     atom    1 type  1   force =     0.00567672    0.00167123    0.00292860
     atom    2 type  1   force =     0.00004226   -0.00001672    0.00167425
     atom    3 type  1   force =    -0.00002350   -0.00179772   -0.00287372
     atom    4 type  1   force =    -0.00274617    0.00005700   -0.00297788
     atom    5 type  1   force =    -0.00294932    0.00008621    0.00124875

     Total force =     0.009196     Total SCF correction =     0.000080

     number of scf cycles    =   5
     number of bfgs steps    =   4

     energy   old            =    -329.4904792332 Ry
     energy   new            =    -329.4911387967 Ry

     CASE: energy  _new < energy  _old

     new trust radius        =       0.0423355023 bohr
     new conv_thr            =       0.0000000006 Ry


ATOMIC_POSITIONS (bohr)
Au      -1.760549821   1.847995110  -1.031195988
Au      -0.766362961   3.319751822   3.888327422
Au       3.025182879   1.514314243   0.590174900
Au       3.956105436   2.784475140   5.885552656
Au       7.655459467   1.282859685   2.609227010



     Writing output data file pwscf.save
     Check: negative starting charge=   -0.006480
     NEW-OLD atomic charge density approx. for the potential
     Check: negative starting charge=   -0.006455

     negative rho (up, down):  4.640E-04 0.000E+00

     total cpu time spent up to now is       12.3 secs

     per-process dynamical memory:    50.7 Mb

     Self-consistent Calculation

     iteration #  1     ecut=    30.00 Ry     beta=0.70
     Davidson diagonalization with overlap
     ethr =  1.00E-06,  avg # of iterations =  5.0

     negative rho (up, down):  1.782E-05 0.000E+00

     total cpu time spent up to now is       12.6 secs

     total energy              =    -329.49135437 Ry
     Harris-Foulkes estimate   =    -329.49110979 Ry
     estimated scf accuracy    <       0.00020549 Ry

     iteration #  2     ecut=    30.00 Ry     beta=0.70
     Davidson diagonalization with overlap
     ethr =  3.74E-07,  avg # of iterations =  3.0

     negative rho (up, down):  1.559E-06 0.000E+00

     total cpu time spent up to now is       12.9 secs

     total energy              =    -329.49138418 Ry
     Harris-Foulkes estimate   =    -329.49143208 Ry
     estimated scf accuracy    <       0.00011092 Ry

     iteration #  3     ecut=    30.00 Ry     beta=0.70
     Davidson diagonalization with overlap
     ethr =  2.02E-07,  avg # of iterations =  2.0

     total cpu time spent up to now is       13.1 secs

     total energy              =    -329.49141020 Ry
     Harris-Foulkes estimate   =    -329.49142768 Ry
     estimated scf accuracy    <       0.00004750 Ry

     iteration #  4     ecut=    30.00 Ry     beta=0.70
     Davidson diagonalization with overlap
     ethr =  8.64E-08,  avg # of iterations =  2.0

     total cpu time spent up to now is       13.3 secs

     total energy              =    -329.49142036 Ry
     Harris-Foulkes estimate   =    -329.49142505 Ry
     estimated scf accuracy    <       0.00001353 Ry

     iteration #  5     ecut=    30.00 Ry     beta=0.70
     Davidson diagonalization with overlap
     ethr =  2.46E-08,  avg # of iterations =  2.0

     total cpu time spent up to now is       13.5 secs

     total energy              =    -329.49142235 Ry
     Harris-Foulkes estimate   =    -329.49142321 Ry
     estimated scf accuracy    <       0.00000133 Ry

     iteration #  6     ecut=    30.00 Ry     beta=0.70
     Davidson diagonalization with overlap
     ethr =  2.42E-09,  avg # of iterations =  2.0

     total cpu time spent up to now is       13.7 secs

     total energy              =    -329.49142255 Ry
     Harris-Foulkes estimate   =    -329.49142274 Ry
     estimated scf accuracy    <       0.00000015 Ry

     iteration #  7     ecut=    30.00 Ry     beta=0.70
     Davidson diagonalization with overlap
     ethr =  2.66E-10,  avg # of iterations =  2.0

     total cpu time spent up to now is       14.0 secs

     total energy              =    -329.49142248 Ry
     Harris-Foulkes estimate   =    -329.49142259 Ry
     estimated scf accuracy    <       0.00000003 Ry

     iteration #  8     ecut=    30.00 Ry     beta=0.70
     Davidson diagonalization with overlap
     ethr =  4.65E-11,  avg # of iterations =  2.0

     total cpu time spent up to now is       14.2 secs

     total energy              =    -329.49142246 Ry
     Harris-Foulkes estimate   =    -329.49142249 Ry
     estimated scf accuracy    <          1.7E-09 Ry

     iteration #  9     ecut=    30.00 Ry     beta=0.70
     Davidson diagonalization with overlap
     ethr =  3.03E-12,  avg # of iterations =  3.0

     total cpu time spent up to now is       14.4 secs

     total energy              =    -329.49142243 Ry
     Harris-Foulkes estimate   =    -329.49142246 Ry
     estimated scf accuracy    <          6.6E-10 Ry

     iteration # 10     ecut=    30.00 Ry     beta=0.70
     Davidson diagonalization with overlap
     ethr =  1.20E-12,  avg # of iterations =  3.0

     total cpu time spent up to now is       14.6 secs

     End of self-consistent calculation

          k = 0.0000 0.0000 0.0000 ( 22119 PWs)   bands (ev):

    -8.4908  -7.7547  -7.6696  -7.2212  -6.8748  -6.8022  -6.5648  -6.4828
    -6.3087  -6.0729  -5.9360  -5.7672  -5.7215  -5.6892  -5.4493  -5.3699
    -5.3261  -5.2452  -5.2119  -5.1922  -5.1627  -5.1258  -5.0001  -4.9328
    -4.8559  -4.7207  -4.4907  -3.7914  -2.4762  -2.2208  -0.5616  -0.2064
     0.4601   0.8735

     the Fermi energy is    -3.7593 ev

!    total energy              =    -329.49142243 Ry
     Harris-Foulkes estimate   =    -329.49142243 Ry
     estimated scf accuracy    <          6.5E-11 Ry

     The total energy is the sum of the following terms:

     one-electron contribution =    -607.80185884 Ry
     hartree contribution      =     325.33351821 Ry
     xc contribution           =     -51.39599123 Ry
     ewald contribution        =       4.37711370 Ry
     smearing contrib. (-TS)   =      -0.00420427 Ry

     convergence has been achieved in  10 iterations

     Forces acting on atoms (Ry/au):

     atom    1 type  1   force =     0.00281786    0.00257883    0.00305690
     atom    2 type  1   force =    -0.00231598   -0.00094177   -0.00359987
     atom    3 type  1   force =     0.00090957   -0.00127600    0.00051550
     atom    4 type  1   force =     0.00128078   -0.00040975   -0.00126896
     atom    5 type  1   force =    -0.00269223    0.00004869    0.00129643

     Total force =     0.007630     Total SCF correction =     0.000030

     number of scf cycles    =   6
     number of bfgs steps    =   5

     energy   old            =    -329.4911387967 Ry
     energy   new            =    -329.4914224335 Ry

     CASE: energy  _new < energy  _old

     new trust radius        =       0.0047198528 bohr
     new conv_thr            =       0.0000000003 Ry


ATOMIC_POSITIONS (bohr)
Au      -1.757492048   1.850415460  -1.028537241
Au      -0.768553807   3.319151931   3.885823948
Au       3.026284396   1.512808545   0.590163604
Au       3.956935045   2.784144016   5.884148402
Au       7.652661413   1.282876048   2.610487287



     Writing output data file pwscf.save
     Check: negative starting charge=   -0.006455
     NEW-OLD atomic charge density approx. for the potential
     Check: negative starting charge=   -0.006455

     negative rho (up, down):  5.420E-08 0.000E+00

     total cpu time spent up to now is       14.8 secs

     per-process dynamical memory:    50.7 Mb

     Self-consistent Calculation

     iteration #  1     ecut=    30.00 Ry     beta=0.70
     Davidson diagonalization with overlap
     ethr =  1.00E-06,  avg # of iterations =  3.0

     Threshold (ethr) on eigenvalues was too large:
     Diagonalizing with lowered threshold

     Davidson diagonalization with overlap
     ethr =  6.82E-09,  avg # of iterations =  2.0

     total cpu time spent up to now is       15.3 secs

     total energy              =    -329.49146931 Ry
     Harris-Foulkes estimate   =    -329.49146964 Ry
     estimated scf accuracy    <       0.00000395 Ry

     iteration #  2     ecut=    30.00 Ry     beta=0.70
     Davidson diagonalization with overlap
     ethr =  7.19E-09,  avg # of iterations =  3.0

     total cpu time spent up to now is       15.5 secs

     total energy              =    -329.49146890 Ry
     Harris-Foulkes estimate   =    -329.49147280 Ry
     estimated scf accuracy    <       0.00000944 Ry

     iteration #  3     ecut=    30.00 Ry     beta=0.70
     Davidson diagonalization with overlap
     ethr =  7.19E-09,  avg # of iterations =  2.0

     total cpu time spent up to now is       15.8 secs

     total energy              =    -329.49147053 Ry
     Harris-Foulkes estimate   =    -329.49147105 Ry
     estimated scf accuracy    <       0.00000081 Ry

     iteration #  4     ecut=    30.00 Ry     beta=0.70
     Davidson diagonalization with overlap
     ethr =  1.47E-09,  avg # of iterations =  2.0

     total cpu time spent up to now is       16.0 secs

     total energy              =    -329.49147071 Ry
     Harris-Foulkes estimate   =    -329.49147074 Ry
     estimated scf accuracy    <       0.00000014 Ry

     iteration #  5     ecut=    30.00 Ry     beta=0.70
     Davidson diagonalization with overlap
     ethr =  2.54E-10,  avg # of iterations =  2.0

     total cpu time spent up to now is       16.2 secs

     total energy              =    -329.49147085 Ry
     Harris-Foulkes estimate   =    -329.49147075 Ry
     estimated scf accuracy    <       0.00000002 Ry

     iteration #  6     ecut=    30.00 Ry     beta=0.70
     Davidson diagonalization with overlap
     ethr =  4.50E-11,  avg # of iterations =  2.0

     total cpu time spent up to now is       16.4 secs

     total energy              =    -329.49147087 Ry
     Harris-Foulkes estimate   =    -329.49147086 Ry
     estimated scf accuracy    <          2.4E-09 Ry

     iteration #  7     ecut=    30.00 Ry     beta=0.70
     Davidson diagonalization with overlap
     ethr =  4.33E-12,  avg # of iterations =  2.0

     total cpu time spent up to now is       16.6 secs

     total energy              =    -329.49147085 Ry
     Harris-Foulkes estimate   =    -329.49147087 Ry
     estimated scf accuracy    <          6.6E-10 Ry

     iteration #  8     ecut=    30.00 Ry     beta=0.70
     Davidson diagonalization with overlap
     ethr =  1.21E-12,  avg # of iterations =  2.0

     total cpu time spent up to now is       16.8 secs

     End of self-consistent calculation

          k = 0.0000 0.0000 0.0000 ( 22119 PWs)   bands (ev):

    -8.4962  -7.7605  -7.6687  -7.2241  -6.8761  -6.8058  -6.5723  -6.4838
    -6.3089  -6.0744  -5.9407  -5.7684  -5.7234  -5.6900  -5.4497  -5.3698
    -5.3252  -5.2449  -5.2109  -5.1923  -5.1636  -5.1257  -4.9995  -4.9324
    -4.8562  -4.7194  -4.4898  -3.7891  -2.4747  -2.2194  -0.5620  -0.2060
     0.4615   0.8727

     the Fermi energy is    -3.7569 ev

!    total energy              =    -329.49147089 Ry
     Harris-Foulkes estimate   =    -329.49147085 Ry
     estimated scf accuracy    <          1.4E-10 Ry

     The total energy is the sum of the following terms:

     one-electron contribution =    -608.05569074 Ry
     hartree contribution      =     325.45884775 Ry
     xc contribution           =     -51.39699379 Ry
     ewald contribution        =       4.50661518 Ry
     smearing contrib. (-TS)   =      -0.00424929 Ry

     convergence has been achieved in   8 iterations

     Forces acting on atoms (Ry/au):

     atom    1 type  1   force =     0.00242918    0.00249408    0.00250126
     atom    2 type  1   force =    -0.00197354   -0.00083558   -0.00306094
     atom    3 type  1   force =     0.00084322   -0.00131725    0.00039687
     atom    4 type  1   force =     0.00078267   -0.00024226   -0.00104502
     atom    5 type  1   force =    -0.00208153   -0.00009899    0.00120783

     Total force =     0.006520     Total SCF correction =     0.000031

     number of scf cycles    =   7
     number of bfgs steps    =   6

     energy   old            =    -329.4914224335 Ry
     energy   new            =    -329.4914708903 Ry

     CASE: energy  _new < energy  _old


     WARNING: bfgs curvature condition failed, Theta= 0.936
     new trust radius        =       0.0051918380 bohr
     new conv_thr            =            1.0E-10 Ry


ATOMIC_POSITIONS (bohr)
Au      -1.753882206   1.853136032  -1.025983281
Au      -0.770644968   3.318699272   3.884079503
Au       3.027486792   1.510854030   0.589600975
Au       3.957014741   2.783967450   5.882496042
Au       7.649860640   1.282739217   2.611892761



     Writing output data file pwscf.save
     Check: negative starting charge=   -0.006455
     NEW-OLD atomic charge density approx. for the potential
     Check: negative starting charge=   -0.006454

     negative rho (up, down):  6.942E-08 0.000E+00

     total cpu time spent up to now is       17.1 secs

     per-process dynamical memory:    50.7 Mb

     Self-consistent Calculation

     iteration #  1     ecut=    30.00 Ry     beta=0.70
     Davidson diagonalization with overlap
     ethr =  1.00E-06,  avg # of iterations =  3.0

     Threshold (ethr) on eigenvalues was too large:
     Diagonalizing with lowered threshold

     Davidson diagonalization with overlap
     ethr =  7.44E-09,  avg # of iterations =  2.0

     total cpu time spent up to now is       17.5 secs

     total energy              =    -329.49151033 Ry
     Harris-Foulkes estimate   =    -329.49151107 Ry
     estimated scf accuracy    <       0.00000436 Ry

     iteration #  2     ecut=    30.00 Ry     beta=0.70
     Davidson diagonalization with overlap
     ethr =  7.93E-09,  avg # of iterations =  3.0

     total cpu time spent up to now is       17.7 secs

     total energy              =    -329.49150973 Ry
     Harris-Foulkes estimate   =    -329.49151402 Ry
     estimated scf accuracy    <       0.00000953 Ry

     iteration #  3     ecut=    30.00 Ry     beta=0.70
     Davidson diagonalization with overlap
     ethr =  7.93E-09,  avg # of iterations =  2.0

     total cpu time spent up to now is       17.9 secs

     total energy              =    -329.49151161 Ry
     Harris-Foulkes estimate   =    -329.49151200 Ry
     estimated scf accuracy    <       0.00000096 Ry

     iteration #  4     ecut=    30.00 Ry     beta=0.70
     Davidson diagonalization with overlap
     ethr =  1.75E-09,  avg # of iterations =  2.0

     total cpu time spent up to now is       18.2 secs

     total energy              =    -329.49151167 Ry
     Harris-Foulkes estimate   =    -329.49151186 Ry
     estimated scf accuracy    <       0.00000014 Ry

     iteration #  5     ecut=    30.00 Ry     beta=0.70
     Davidson diagonalization with overlap
     ethr =  2.61E-10,  avg # of iterations =  2.0

     total cpu time spent up to now is       18.4 secs

     total energy              =    -329.49151169 Ry
     Harris-Foulkes estimate   =    -329.49151171 Ry
     estimated scf accuracy    <       0.00000003 Ry

     iteration #  6     ecut=    30.00 Ry     beta=0.70
     Davidson diagonalization with overlap
     ethr =  4.93E-11,  avg # of iterations =  2.0

     total cpu time spent up to now is       18.6 secs

     total energy              =    -329.49151174 Ry
     Harris-Foulkes estimate   =    -329.49151169 Ry
     estimated scf accuracy    <          2.3E-09 Ry

     iteration #  7     ecut=    30.00 Ry     beta=0.70
     Davidson diagonalization with overlap
     ethr =  4.25E-12,  avg # of iterations =  2.0

     total cpu time spent up to now is       18.9 secs

     total energy              =    -329.49151171 Ry
     Harris-Foulkes estimate   =    -329.49151174 Ry
     estimated scf accuracy    <          5.4E-10 Ry

     iteration #  8     ecut=    30.00 Ry     beta=0.70
     Davidson diagonalization with overlap
     ethr =  9.75E-13,  avg # of iterations =  2.0

     total cpu time spent up to now is       19.1 secs

     total energy              =    -329.49151171 Ry
     Harris-Foulkes estimate   =    -329.49151171 Ry
     estimated scf accuracy    <          1.3E-10 Ry

     iteration #  9     ecut=    30.00 Ry     beta=0.70
     Davidson diagonalization with overlap
     ethr =  2.42E-13,  avg # of iterations =  2.0

     total cpu time spent up to now is       19.3 secs

     End of self-consistent calculation

          k = 0.0000 0.0000 0.0000 ( 22119 PWs)   bands (ev):

    -8.5011  -7.7656  -7.6681  -7.2267  -6.8779  -6.8092  -6.5792  -6.4846
    -6.3093  -6.0756  -5.9450  -5.7697  -5.7252  -5.6908  -5.4496  -5.3698
    -5.3246  -5.2445  -5.2101  -5.1922  -5.1645  -5.1257  -4.9986  -4.9316
    -4.8563  -4.7185  -4.4885  -3.7874  -2.4731  -2.2179  -0.5625  -0.2059
     0.4630   0.8721

     the Fermi energy is    -3.7551 ev

!    total energy              =    -329.49151170 Ry
     Harris-Foulkes estimate   =    -329.49151171 Ry
     estimated scf accuracy    <          2.6E-11 Ry

     The total energy is the sum of the following terms:

     one-electron contribution =    -608.30204862 Ry
     hartree contribution      =     325.58066221 Ry
     xc contribution           =     -51.39802460 Ry
     ewald contribution        =       4.63216690 Ry
     smearing contrib. (-TS)   =      -0.00426760 Ry

     convergence has been achieved in   9 iterations

     Forces acting on atoms (Ry/au):

     atom    1 type  1   force =     0.00199402    0.00242558    0.00195480
     atom    2 type  1   force =    -0.00171578   -0.00074295   -0.00263971
     atom    3 type  1   force =     0.00080627   -0.00134811    0.00035745
     atom    4 type  1   force =     0.00043208   -0.00009820   -0.00080132
     atom    5 type  1   force =    -0.00151659   -0.00023632    0.00112878

     Total force =     0.005586     Total SCF correction =     0.000018

     number of scf cycles    =   8
     number of bfgs steps    =   7

     energy   old            =    -329.4914708903 Ry
     energy   new            =    -329.4915117007 Ry

     CASE: energy  _new < energy  _old

     new trust radius        =       0.0077877570 bohr
     new conv_thr            =            1.0E-10 Ry


ATOMIC_POSITIONS (bohr)
Au      -1.748639608   1.857677116  -1.022441686
Au      -0.773826875   3.317959241   3.881371887
Au       3.029412758   1.507592692   0.588823285
Au       3.956789453   2.783871924   5.880184433
Au       7.646099272   1.282295027   2.614148081



     Writing output data file pwscf.save
     Check: negative starting charge=   -0.006454
     NEW-OLD atomic charge density approx. for the potential
     Check: negative starting charge=   -0.006453

     negative rho (up, down):  8.776E-07 0.000E+00

     total cpu time spent up to now is       19.5 secs

     per-process dynamical memory:    50.7 Mb

     Self-consistent Calculation

     iteration #  1     ecut=    30.00 Ry     beta=0.70
     Davidson diagonalization with overlap
     ethr =  1.00E-06,  avg # of iterations =  3.0

     Threshold (ethr) on eigenvalues was too large:
     Diagonalizing with lowered threshold

     Davidson diagonalization with overlap
     ethr =  1.72E-08,  avg # of iterations =  2.0

     total cpu time spent up to now is       19.9 secs

     total energy              =    -329.49155807 Ry
     Harris-Foulkes estimate   =    -329.49156033 Ry
     estimated scf accuracy    <       0.00001007 Ry

     iteration #  2     ecut=    30.00 Ry     beta=0.70
     Davidson diagonalization with overlap
     ethr =  1.83E-08,  avg # of iterations =  3.0

     total cpu time spent up to now is       20.2 secs

     total energy              =    -329.49155741 Ry
     Harris-Foulkes estimate   =    -329.49156640 Ry
     estimated scf accuracy    <       0.00002097 Ry

     iteration #  3     ecut=    30.00 Ry     beta=0.70
     Davidson diagonalization with overlap
     ethr =  1.83E-08,  avg # of iterations =  2.0

     total cpu time spent up to now is       20.4 secs

     total energy              =    -329.49156144 Ry
     Harris-Foulkes estimate   =    -329.49156247 Ry
     estimated scf accuracy    <       0.00000231 Ry

     iteration #  4     ecut=    30.00 Ry     beta=0.70
     Davidson diagonalization with overlap
     ethr =  4.20E-09,  avg # of iterations =  2.0

     total cpu time spent up to now is       20.6 secs

     total energy              =    -329.49156172 Ry
     Harris-Foulkes estimate   =    -329.49156203 Ry
     estimated scf accuracy    <       0.00000032 Ry

     iteration #  5     ecut=    30.00 Ry     beta=0.70
     Davidson diagonalization with overlap
     ethr =  5.90E-10,  avg # of iterations =  2.0

     total cpu time spent up to now is       20.8 secs

     total energy              =    -329.49156169 Ry
     Harris-Foulkes estimate   =    -329.49156181 Ry
     estimated scf accuracy    <       0.00000006 Ry

     iteration #  6     ecut=    30.00 Ry     beta=0.70
     Davidson diagonalization with overlap
     ethr =  1.02E-10,  avg # of iterations =  2.0

     total cpu time spent up to now is       21.0 secs

     total energy              =    -329.49156163 Ry
     Harris-Foulkes estimate   =    -329.49156171 Ry
     estimated scf accuracy    <          4.9E-09 Ry

     iteration #  7     ecut=    30.00 Ry     beta=0.70
     Davidson diagonalization with overlap
     ethr =  8.93E-12,  avg # of iterations =  3.0

     total cpu time spent up to now is       21.3 secs

     total energy              =    -329.49156163 Ry
     Harris-Foulkes estimate   =    -329.49156163 Ry
     estimated scf accuracy    <          1.0E-09 Ry

     iteration #  8     ecut=    30.00 Ry     beta=0.70
     Davidson diagonalization with overlap
     ethr =  1.87E-12,  avg # of iterations =  2.0

     total cpu time spent up to now is       21.5 secs

     total energy              =    -329.49156162 Ry
     Harris-Foulkes estimate   =    -329.49156163 Ry
     estimated scf accuracy    <          1.1E-10 Ry

     iteration #  9     ecut=    30.00 Ry     beta=0.70
     Davidson diagonalization with overlap
     ethr =  2.07E-13,  avg # of iterations =  2.0

     total cpu time spent up to now is       21.7 secs

     End of self-consistent calculation

          k = 0.0000 0.0000 0.0000 ( 22119 PWs)   bands (ev):

    -8.5079  -7.7726  -7.6671  -7.2303  -6.8802  -6.8139  -6.5889  -6.4856
    -6.3098  -6.0771  -5.9512  -5.7716  -5.7277  -5.6919  -5.4495  -5.3697
    -5.3237  -5.2437  -5.2089  -5.1922  -5.1656  -5.1257  -4.9975  -4.9305
    -4.8565  -4.7171  -4.4865  -3.7849  -2.4710  -2.2156  -0.5630  -0.2058
     0.4653   0.8712

     the Fermi energy is    -3.7525 ev

!    total energy              =    -329.49156160 Ry
     Harris-Foulkes estimate   =    -329.49156162 Ry
     estimated scf accuracy    <          9.3E-11 Ry

     The total energy is the sum of the following terms:

     one-electron contribution =    -608.64243530 Ry
     hartree contribution      =     325.74899061 Ry
     xc contribution           =     -51.39947416 Ry
     ewald contribution        =       4.80564801 Ry
     smearing contrib. (-TS)   =      -0.00429076 Ry

     convergence has been achieved in   9 iterations

     Forces acting on atoms (Ry/au):

     atom    1 type  1   force =     0.00137766    0.00231789    0.00115532
     atom    2 type  1   force =    -0.00134850   -0.00060197   -0.00202774
     atom    3 type  1   force =     0.00073391   -0.00137936    0.00031259
     atom    4 type  1   force =    -0.00003733    0.00009517   -0.00046707
     atom    5 type  1   force =    -0.00072575   -0.00043173    0.00102690

     Total force =     0.004408     Total SCF correction =     0.000029

     number of scf cycles    =   9
     number of bfgs steps    =   8

     energy   old            =    -329.4915117007 Ry
     energy   new            =    -329.4915615959 Ry

     CASE: energy  _new < energy  _old

     new trust radius        =       0.0116816356 bohr
     new conv_thr            =            1.0E-10 Ry


ATOMIC_POSITIONS (bohr)
Au      -1.741114004   1.865239191  -1.017683441
Au      -0.778663782   3.316756561   3.877159052
Au       3.032464456   1.502182263   0.587815576
Au       3.955929808   2.783997541   5.877004523
Au       7.641218521   1.281220444   2.617790290



     Writing output data file pwscf.save
     Check: negative starting charge=   -0.006453
     NEW-OLD atomic charge density approx. for the potential
     Check: negative starting charge=   -0.006452

     negative rho (up, down):  6.971E-06 0.000E+00

     total cpu time spent up to now is       21.9 secs

     per-process dynamical memory:    50.7 Mb

     Self-consistent Calculation

     iteration #  1     ecut=    30.00 Ry     beta=0.70
     Davidson diagonalization with overlap
     ethr =  1.00E-06,  avg # of iterations =  4.0

     Threshold (ethr) on eigenvalues was too large:
     Diagonalizing with lowered threshold

     Davidson diagonalization with overlap
     ethr =  4.14E-08,  avg # of iterations =  1.0

     total cpu time spent up to now is       22.4 secs

     total energy              =    -329.49160670 Ry
     Harris-Foulkes estimate   =    -329.49161356 Ry
     estimated scf accuracy    <       0.00002349 Ry

     iteration #  2     ecut=    30.00 Ry     beta=0.70
     Davidson diagonalization with overlap
     ethr =  4.27E-08,  avg # of iterations =  3.0

     total cpu time spent up to now is       22.6 secs

     total energy              =    -329.49160605 Ry
     Harris-Foulkes estimate   =    -329.49162556 Ry
     estimated scf accuracy    <       0.00004616 Ry

     iteration #  3     ecut=    30.00 Ry     beta=0.70
     Davidson diagonalization with overlap
     ethr =  4.27E-08,  avg # of iterations =  2.0

     total cpu time spent up to now is       22.8 secs

     total energy              =    -329.49161512 Ry
     Harris-Foulkes estimate   =    -329.49161739 Ry
     estimated scf accuracy    <       0.00000553 Ry

     iteration #  4     ecut=    30.00 Ry     beta=0.70
     Davidson diagonalization with overlap
     ethr =  1.01E-08,  avg # of iterations =  2.0

     total cpu time spent up to now is       23.0 secs

     total energy              =    -329.49161602 Ry
     Harris-Foulkes estimate   =    -329.49161651 Ry
     estimated scf accuracy    <       0.00000077 Ry

     iteration #  5     ecut=    30.00 Ry     beta=0.70
     Davidson diagonalization with overlap
     ethr =  1.39E-09,  avg # of iterations =  2.0

     total cpu time spent up to now is       23.2 secs

     total energy              =    -329.49161591 Ry
     Harris-Foulkes estimate   =    -329.49161623 Ry
     estimated scf accuracy    <       0.00000013 Ry

     iteration #  6     ecut=    30.00 Ry     beta=0.70
     Davidson diagonalization with overlap
     ethr =  2.31E-10,  avg # of iterations =  2.0

     total cpu time spent up to now is       23.5 secs

     total energy              =    -329.49161582 Ry
     Harris-Foulkes estimate   =    -329.49161595 Ry
     estimated scf accuracy    <       0.00000001 Ry

     iteration #  7     ecut=    30.00 Ry     beta=0.70
     Davidson diagonalization with overlap
     ethr =  2.14E-11,  avg # of iterations =  2.0

     total cpu time spent up to now is       23.7 secs

     total energy              =    -329.49161579 Ry
     Harris-Foulkes estimate   =    -329.49161582 Ry
     estimated scf accuracy    <          3.2E-09 Ry

     iteration #  8     ecut=    30.00 Ry     beta=0.70
     Davidson diagonalization with overlap
     ethr =  5.90E-12,  avg # of iterations =  2.0

     total cpu time spent up to now is       23.9 secs

     total energy              =    -329.49161575 Ry
     Harris-Foulkes estimate   =    -329.49161579 Ry
     estimated scf accuracy    <          7.3E-10 Ry

     iteration #  9     ecut=    30.00 Ry     beta=0.70
     Davidson diagonalization with overlap
     ethr =  1.33E-12,  avg # of iterations =  2.0

     total cpu time spent up to now is       24.1 secs

     total energy              =    -329.49161573 Ry
     Harris-Foulkes estimate   =    -329.49161575 Ry
     estimated scf accuracy    <          2.1E-10 Ry

     iteration # 10     ecut=    30.00 Ry     beta=0.70
     Davidson diagonalization with overlap
     ethr =  3.81E-13,  avg # of iterations =  2.0

     total cpu time spent up to now is       24.3 secs

     End of self-consistent calculation

          k = 0.0000 0.0000 0.0000 ( 22119 PWs)   bands (ev):

    -8.5168  -7.7822  -7.6657  -7.2353  -6.8834  -6.8201  -6.6027  -6.4872
    -6.3103  -6.0789  -5.9600  -5.7741  -5.7312  -5.6932  -5.4492  -5.3696
    -5.3225  -5.2426  -5.2072  -5.1921  -5.1672  -5.1257  -4.9962  -4.9287
    -4.8569  -4.7153  -4.4837  -3.7815  -2.4684  -2.2123  -0.5638  -0.2057
     0.4685   0.8697

     the Fermi energy is    -3.7490 ev

!    total energy              =    -329.49161572 Ry
     Harris-Foulkes estimate   =    -329.49161573 Ry
     estimated scf accuracy    <          6.4E-12 Ry

     The total energy is the sum of the following terms:

     one-electron contribution =    -609.10156664 Ry
     hartree contribution      =     325.97610232 Ry
     xc contribution           =     -51.40146709 Ry
     ewald contribution        =       5.03963558 Ry
     smearing contrib. (-TS)   =      -0.00431989 Ry

     convergence has been achieved in  10 iterations

     Forces acting on atoms (Ry/au):

     atom    1 type  1   force =     0.00052183    0.00213264   -0.00000577
     atom    2 type  1   force =    -0.00083688   -0.00038612   -0.00113597
     atom    3 type  1   force =     0.00060931   -0.00139567    0.00026782
     atom    4 type  1   force =    -0.00064139    0.00035164   -0.00003210
     atom    5 type  1   force =     0.00034713   -0.00070250    0.00090601

     Total force =     0.003365     Total SCF correction =     0.000009

     number of scf cycles    =  10
     number of bfgs steps    =   9

     energy   old            =    -329.4915615959 Ry
     energy   new            =    -329.4916157195 Ry

     CASE: energy  _new < energy  _old

     new trust radius        =       0.0175224533 bohr
     new conv_thr            =            1.0E-10 Ry


ATOMIC_POSITIONS (bohr)
Au      -1.730554338   1.877938776  -1.011831058
Au      -0.785978953   3.314834648   3.870730515
Au       3.037282799   1.493121387   0.586634742
Au       3.953659275   2.784707308   5.872766869
Au       7.635426217   1.278793881   2.623784933



     Writing output data file pwscf.save
     Check: negative starting charge=   -0.006452
     NEW-OLD atomic charge density approx. for the potential
     Check: negative starting charge=   -0.006452

     negative rho (up, down):  3.505E-05 0.000E+00

     total cpu time spent up to now is       24.6 secs

     per-process dynamical memory:    50.7 Mb

     Self-consistent Calculation

     iteration #  1     ecut=    30.00 Ry     beta=0.70
     Davidson diagonalization with overlap
     ethr =  1.00E-06,  avg # of iterations =  4.0

     negative rho (up, down):  8.924E-08 0.000E+00

     total cpu time spent up to now is       24.9 secs

     total energy              =    -329.49163683 Ry
     Harris-Foulkes estimate   =    -329.49165522 Ry
     estimated scf accuracy    <       0.00005554 Ry

     iteration #  2     ecut=    30.00 Ry     beta=0.70
     Davidson diagonalization with overlap
     ethr =  1.01E-07,  avg # of iterations =  3.0

     total cpu time spent up to now is       25.2 secs

     total energy              =    -329.49163703 Ry
     Harris-Foulkes estimate   =    -329.49167953 Ry
     estimated scf accuracy    <       0.00009832 Ry

     iteration #  3     ecut=    30.00 Ry     beta=0.70
     Davidson diagonalization with overlap
     ethr =  1.01E-07,  avg # of iterations =  2.0

     total cpu time spent up to now is       25.4 secs

     total energy              =    -329.49165701 Ry
     Harris-Foulkes estimate   =    -329.49166195 Ry
     estimated scf accuracy    <       0.00001346 Ry

     iteration #  4     ecut=    30.00 Ry     beta=0.70
     Davidson diagonalization with overlap
     ethr =  2.45E-08,  avg # of iterations =  2.0

     total cpu time spent up to now is       25.6 secs

     total energy              =    -329.49165965 Ry
     Harris-Foulkes estimate   =    -329.49166046 Ry
     estimated scf accuracy    <       0.00000196 Ry

     iteration #  5     ecut=    30.00 Ry     beta=0.70
     Davidson diagonalization with overlap
     ethr =  3.56E-09,  avg # of iterations =  2.0

     total cpu time spent up to now is       25.8 secs

     total energy              =    -329.49165993 Ry
     Harris-Foulkes estimate   =    -329.49166015 Ry
     estimated scf accuracy    <       0.00000029 Ry

     iteration #  6     ecut=    30.00 Ry     beta=0.70
     Davidson diagonalization with overlap
     ethr =  5.31E-10,  avg # of iterations =  2.0

     total cpu time spent up to now is       26.0 secs

     total energy              =    -329.49166000 Ry
     Harris-Foulkes estimate   =    -329.49166001 Ry
     estimated scf accuracy    <       0.00000004 Ry

     iteration #  7     ecut=    30.00 Ry     beta=0.70
     Davidson diagonalization with overlap
     ethr =  6.51E-11,  avg # of iterations =  2.0

     total cpu time spent up to now is       26.2 secs

     total energy              =    -329.49165999 Ry
     Harris-Foulkes estimate   =    -329.49166001 Ry
     estimated scf accuracy    <       0.00000001 Ry

     iteration #  8     ecut=    30.00 Ry     beta=0.70
     Davidson diagonalization with overlap
     ethr =  1.98E-11,  avg # of iterations =  2.0

     total cpu time spent up to now is       26.4 secs

     total energy              =    -329.49165997 Ry
     Harris-Foulkes estimate   =    -329.49166000 Ry
     estimated scf accuracy    <          1.9E-09 Ry

     iteration #  9     ecut=    30.00 Ry     beta=0.70
     Davidson diagonalization with overlap
     ethr =  3.53E-12,  avg # of iterations =  2.0

     total cpu time spent up to now is       26.6 secs

     total energy              =    -329.49165998 Ry
     Harris-Foulkes estimate   =    -329.49165997 Ry
     estimated scf accuracy    <          3.3E-10 Ry

     iteration # 10     ecut=    30.00 Ry     beta=0.70
     Davidson diagonalization with overlap
     ethr =  5.96E-13,  avg # of iterations =  2.0

     total cpu time spent up to now is       26.8 secs

     End of self-consistent calculation

          k = 0.0000 0.0000 0.0000 ( 22119 PWs)   bands (ev):

    -8.5276  -7.7942  -7.6637  -7.2417  -6.8873  -6.8277  -6.6214  -6.4893
    -6.3106  -6.0807  -5.9718  -5.7772  -5.7357  -5.6945  -5.4487  -5.3693
    -5.3208  -5.2411  -5.2051  -5.1919  -5.1693  -5.1259  -4.9946  -4.9261
    -4.8576  -4.7129  -4.4798  -3.7770  -2.4654  -2.2077  -0.5648  -0.2056
     0.4730   0.8673

     the Fermi energy is    -3.7444 ev

!    total energy              =    -329.49165999 Ry
     Harris-Foulkes estimate   =    -329.49165998 Ry
     estimated scf accuracy    <          1.2E-11 Ry

     The total energy is the sum of the following terms:

     one-electron contribution =    -609.67940908 Ry
     hartree contribution      =     326.26198771 Ry
     xc contribution           =     -51.40404725 Ry
     ewald contribution        =       5.33416105 Ry
     smearing contrib. (-TS)   =      -0.00435241 Ry

     convergence has been achieved in  10 iterations

     Forces acting on atoms (Ry/au):

     atom    1 type  1   force =    -0.00060662    0.00177699   -0.00164329
     atom    2 type  1   force =    -0.00015883   -0.00006563    0.00012333
     atom    3 type  1   force =     0.00037832   -0.00131031    0.00024878
     atom    4 type  1   force =    -0.00134477    0.00066744    0.00048969
     atom    5 type  1   force =     0.00173191   -0.00106849    0.00078148

     Total force =     0.003929     Total SCF correction =     0.000014

     number of scf cycles    =  11
     number of bfgs steps    =  10

     energy   old            =    -329.4916157195 Ry
     energy   new            =    -329.4916599864 Ry

     CASE: energy  _new < energy  _old

     new trust radius        =       0.0095797217 bohr
     new conv_thr            =            1.0E-10 Ry


ATOMIC_POSITIONS (bohr)
Au      -1.725926637   1.886218095  -1.010486322
Au      -0.789930146   3.313696298   3.867223633
Au       3.040037620   1.487304410   0.586529729
Au       3.951390405   2.785703794   5.871147629
Au       7.634263757   1.276473402   2.627671330



     Writing output data file pwscf.save
     Check: negative starting charge=   -0.006452
     NEW-OLD atomic charge density approx. for the potential
     Check: negative starting charge=   -0.006451

     negative rho (up, down):  4.028E-06 0.000E+00

     total cpu time spent up to now is       27.1 secs

     per-process dynamical memory:    50.7 Mb

     Self-consistent Calculation

     iteration #  1     ecut=    30.00 Ry     beta=0.70
     Davidson diagonalization with overlap
     ethr =  1.00E-06,  avg # of iterations =  4.0

     Threshold (ethr) on eigenvalues was too large:
     Diagonalizing with lowered threshold

     Davidson diagonalization with overlap
     ethr =  3.24E-08,  avg # of iterations =  1.0

     total cpu time spent up to now is       27.5 secs

     total energy              =    -329.49167290 Ry
     Harris-Foulkes estimate   =    -329.49168045 Ry
     estimated scf accuracy    <       0.00001863 Ry

     iteration #  2     ecut=    30.00 Ry     beta=0.70
     Davidson diagonalization with overlap
     ethr =  3.39E-08,  avg # of iterations =  3.0

     total cpu time spent up to now is       27.8 secs

     total energy              =    -329.49167411 Ry
     Harris-Foulkes estimate   =    -329.49168598 Ry
     estimated scf accuracy    <       0.00002685 Ry

     iteration #  3     ecut=    30.00 Ry     beta=0.70
     Davidson diagonalization with overlap
     ethr =  3.39E-08,  avg # of iterations =  2.0

     total cpu time spent up to now is       28.0 secs

     total energy              =    -329.49167932 Ry
     Harris-Foulkes estimate   =    -329.49168112 Ry
     estimated scf accuracy    <       0.00000425 Ry

     iteration #  4     ecut=    30.00 Ry     beta=0.70
     Davidson diagonalization with overlap
     ethr =  7.73E-09,  avg # of iterations =  2.0

     total cpu time spent up to now is       28.2 secs

     total energy              =    -329.49168033 Ry
     Harris-Foulkes estimate   =    -329.49168053 Ry
     estimated scf accuracy    <       0.00000083 Ry

     iteration #  5     ecut=    30.00 Ry     beta=0.70
     Davidson diagonalization with overlap
     ethr =  1.50E-09,  avg # of iterations =  2.0

     total cpu time spent up to now is       28.4 secs

     total energy              =    -329.49168057 Ry
     Harris-Foulkes estimate   =    -329.49168052 Ry
     estimated scf accuracy    <       0.00000009 Ry

     iteration #  6     ecut=    30.00 Ry     beta=0.70
     Davidson diagonalization with overlap
     ethr =  1.60E-10,  avg # of iterations =  2.0

     total cpu time spent up to now is       28.6 secs

     total energy              =    -329.49168056 Ry
     Harris-Foulkes estimate   =    -329.49168059 Ry
     estimated scf accuracy    <       0.00000001 Ry

     iteration #  7     ecut=    30.00 Ry     beta=0.70
     Davidson diagonalization with overlap
     ethr =  2.21E-11,  avg # of iterations =  2.0

     total cpu time spent up to now is       28.8 secs

     total energy              =    -329.49168052 Ry
     Harris-Foulkes estimate   =    -329.49168056 Ry
     estimated scf accuracy    <          4.1E-09 Ry

     iteration #  8     ecut=    30.00 Ry     beta=0.70
     Davidson diagonalization with overlap
     ethr =  7.38E-12,  avg # of iterations =  2.0

     total cpu time spent up to now is       29.0 secs

     total energy              =    -329.49168055 Ry
     Harris-Foulkes estimate   =    -329.49168053 Ry
     estimated scf accuracy    <          3.8E-10 Ry

     iteration #  9     ecut=    30.00 Ry     beta=0.70
     Davidson diagonalization with overlap
     ethr =  6.91E-13,  avg # of iterations =  3.0

     total cpu time spent up to now is       29.3 secs

     total energy              =    -329.49168054 Ry
     Harris-Foulkes estimate   =    -329.49168055 Ry
     estimated scf accuracy    <          1.3E-10 Ry

     iteration # 10     ecut=    30.00 Ry     beta=0.70
     Davidson diagonalization with overlap
     ethr =  2.31E-13,  avg # of iterations =  2.0

     total cpu time spent up to now is       29.5 secs

     End of self-consistent calculation

          k = 0.0000 0.0000 0.0000 ( 22119 PWs)   bands (ev):

    -8.5301  -7.7977  -7.6622  -7.2437  -6.8882  -6.8295  -6.6286  -6.4896
    -6.3105  -6.0807  -5.9763  -5.7781  -5.7371  -5.6946  -5.4487  -5.3691
    -5.3201  -5.2404  -5.2042  -5.1917  -5.1702  -5.1261  -4.9945  -4.9248
    -4.8580  -4.7125  -4.4782  -3.7754  -2.4652  -2.2058  -0.5650  -0.2054
     0.4749   0.8658

     the Fermi energy is    -3.7427 ev

!    total energy              =    -329.49168053 Ry
     Harris-Foulkes estimate   =    -329.49168054 Ry
     estimated scf accuracy    <          4.4E-12 Ry

     The total energy is the sum of the following terms:

     one-electron contribution =    -609.84351670 Ry
     hartree contribution      =     326.34328838 Ry
     xc contribution           =     -51.40483717 Ry
     ewald contribution        =       5.41774708 Ry
     smearing contrib. (-TS)   =      -0.00436212 Ry

     convergence has been achieved in  10 iterations

     Forces acting on atoms (Ry/au):

     atom    1 type  1   force =    -0.00095238    0.00153576   -0.00234395
     atom    2 type  1   force =     0.00013635    0.00008279    0.00065423
     atom    3 type  1   force =     0.00019796   -0.00116243    0.00029838
     atom    4 type  1   force =    -0.00150215    0.00075200    0.00060442
     atom    5 type  1   force =     0.00212022   -0.00120812    0.00078692

     Total force =     0.004523     Total SCF correction =     0.000009

     number of scf cycles    =  12
     number of bfgs steps    =  11

     energy   old            =    -329.4916599864 Ry
     energy   new            =    -329.4916805258 Ry

     CASE: energy  _new < energy  _old

     new trust radius        =       0.0105376939 bohr
     new conv_thr            =            1.0E-10 Ry


ATOMIC_POSITIONS (bohr)
Au      -1.721923914   1.895957931  -1.010882303
Au      -0.793936518   3.312504402   3.863821071
Au       3.042920661   1.480525540   0.586858412
Au       3.948098318   2.787272804   5.869931205
Au       7.634676454   1.273135323   2.632357616



     Writing output data file pwscf.save
     Check: negative starting charge=   -0.006451
     NEW-OLD atomic charge density approx. for the potential
     Check: negative starting charge=   -0.006450

     negative rho (up, down):  7.061E-06 0.000E+00

     total cpu time spent up to now is       29.7 secs

     per-process dynamical memory:    50.7 Mb

     Self-consistent Calculation

     iteration #  1     ecut=    30.00 Ry     beta=0.70
     Davidson diagonalization with overlap
     ethr =  1.00E-06,  avg # of iterations =  4.0

     Threshold (ethr) on eigenvalues was too large:
     Diagonalizing with lowered threshold

     Davidson diagonalization with overlap
     ethr =  4.21E-08,  avg # of iterations =  1.0

     total cpu time spent up to now is       30.1 secs

     total energy              =    -329.49169898 Ry
     Harris-Foulkes estimate   =    -329.49170908 Ry
     estimated scf accuracy    <       0.00002399 Ry

     iteration #  2     ecut=    30.00 Ry     beta=0.70
     Davidson diagonalization with overlap
     ethr =  4.36E-08,  avg # of iterations =  3.0

     total cpu time spent up to now is       30.4 secs

     total energy              =    -329.49170158 Ry
     Harris-Foulkes estimate   =    -329.49171495 Ry
     estimated scf accuracy    <       0.00003007 Ry

     iteration #  3     ecut=    30.00 Ry     beta=0.70
     Davidson diagonalization with overlap
     ethr =  4.36E-08,  avg # of iterations =  2.0

     total cpu time spent up to now is       30.6 secs

     total energy              =    -329.49170739 Ry
     Harris-Foulkes estimate   =    -329.49170937 Ry
     estimated scf accuracy    <       0.00000458 Ry

     iteration #  4     ecut=    30.00 Ry     beta=0.70
     Davidson diagonalization with overlap
     ethr =  8.33E-09,  avg # of iterations =  2.0

     total cpu time spent up to now is       30.8 secs

     total energy              =    -329.49170860 Ry
     Harris-Foulkes estimate   =    -329.49170889 Ry
     estimated scf accuracy    <       0.00000135 Ry

     iteration #  5     ecut=    30.00 Ry     beta=0.70
     Davidson diagonalization with overlap
     ethr =  2.46E-09,  avg # of iterations =  2.0

     total cpu time spent up to now is       31.0 secs

     total energy              =    -329.49170881 Ry
     Harris-Foulkes estimate   =    -329.49170888 Ry
     estimated scf accuracy    <       0.00000010 Ry

     iteration #  6     ecut=    30.00 Ry     beta=0.70
     Davidson diagonalization with overlap
     ethr =  1.89E-10,  avg # of iterations =  2.0

     total cpu time spent up to now is       31.2 secs

     total energy              =    -329.49170881 Ry
     Harris-Foulkes estimate   =    -329.49170884 Ry
     estimated scf accuracy    <       0.00000002 Ry

     iteration #  7     ecut=    30.00 Ry     beta=0.70
     Davidson diagonalization with overlap
     ethr =  2.75E-11,  avg # of iterations =  2.0

     total cpu time spent up to now is       31.4 secs

     total energy              =    -329.49170877 Ry
     Harris-Foulkes estimate   =    -329.49170882 Ry
     estimated scf accuracy    <          5.2E-09 Ry

     iteration #  8     ecut=    30.00 Ry     beta=0.70
     Davidson diagonalization with overlap
     ethr =  9.36E-12,  avg # of iterations =  2.0

     total cpu time spent up to now is       31.6 secs

     total energy              =    -329.49170881 Ry
     Harris-Foulkes estimate   =    -329.49170877 Ry
     estimated scf accuracy    <          4.1E-10 Ry

     iteration #  9     ecut=    30.00 Ry     beta=0.70
     Davidson diagonalization with overlap
     ethr =  7.45E-13,  avg # of iterations =  3.0

     total cpu time spent up to now is       31.9 secs

     total energy              =    -329.49170878 Ry
     Harris-Foulkes estimate   =    -329.49170881 Ry
     estimated scf accuracy    <          1.6E-10 Ry

     iteration # 10     ecut=    30.00 Ry     beta=0.70
     Davidson diagonalization with overlap
     ethr =  2.88E-13,  avg # of iterations =  2.0

     total cpu time spent up to now is       32.1 secs

     End of self-consistent calculation

          k = 0.0000 0.0000 0.0000 ( 22119 PWs)   bands (ev):

    -8.5298  -7.7986  -7.6604  -7.2446  -6.8880  -6.8295  -6.6334  -6.4890
    -6.3105  -6.0797  -5.9791  -5.7784  -5.7377  -5.6941  -5.4487  -5.3690
    -5.3197  -5.2398  -5.2036  -5.1914  -5.1709  -5.1264  -4.9951  -4.9237
    -4.8581  -4.7129  -4.4770  -3.7745  -2.4659  -2.2043  -0.5650  -0.2054
     0.4762   0.8643

     the Fermi energy is    -3.7418 ev

!    total energy              =    -329.49170878 Ry
     Harris-Foulkes estimate   =    -329.49170878 Ry
     estimated scf accuracy    <          8.3E-12 Ry

     The total energy is the sum of the following terms:

[...]

     CASE: energy  _new < energy  _old

     new trust radius        =       0.0109724445 bohr
     new conv_thr            =            1.0E-10 Ry


ATOMIC_POSITIONS (bohr)
Au      -1.633261297   2.023649569  -1.130021497
Au      -0.834963718   3.351971523   3.804363200
Au       3.065390157   1.420193024   0.634379778
Au       3.896182293   2.873762362   5.858615517
Au       7.616487565   1.079819522   2.774749002



     Writing output data file pwscf.save
     Check: negative starting charge=   -0.006473
     NEW-OLD atomic charge density approx. for the potential
     Check: negative starting charge=   -0.006469

     negative rho (up, down):  4.877E-06 0.000E+00

     total cpu time spent up to now is       73.7 secs

     per-process dynamical memory:    50.7 Mb

     Self-consistent Calculation

     iteration #  1     ecut=    30.00 Ry     beta=0.70
     Davidson diagonalization with overlap
     ethr =  1.00E-06,  avg # of iterations =  4.0

     Threshold (ethr) on eigenvalues was too large:
     Diagonalizing with lowered threshold

     Davidson diagonalization with overlap
     ethr =  3.53E-08,  avg # of iterations =  1.0

     total cpu time spent up to now is       74.1 secs

     total energy              =    -329.49251296 Ry
     Harris-Foulkes estimate   =    -329.49252130 Ry
     estimated scf accuracy    <       0.00002073 Ry

     iteration #  2     ecut=    30.00 Ry     beta=0.70
     Davidson diagonalization with overlap
     ethr =  3.77E-08,  avg # of iterations =  3.0

     total cpu time spent up to now is       74.4 secs

     total energy              =    -329.49251687 Ry
     Harris-Foulkes estimate   =    -329.49252497 Ry
     estimated scf accuracy    <       0.00001754 Ry

     iteration #  3     ecut=    30.00 Ry     beta=0.70
     Davidson diagonalization with overlap
     ethr =  3.19E-08,  avg # of iterations =  2.0

     total cpu time spent up to now is       74.6 secs

     total energy              =    -329.49252037 Ry
     Harris-Foulkes estimate   =    -329.49252101 Ry
     estimated scf accuracy    <       0.00000131 Ry

     iteration #  4     ecut=    30.00 Ry     beta=0.70
     Davidson diagonalization with overlap
     ethr =  2.39E-09,  avg # of iterations =  2.0

     total cpu time spent up to now is       74.8 secs

     total energy              =    -329.49252041 Ry
     Harris-Foulkes estimate   =    -329.49252117 Ry
     estimated scf accuracy    <       0.00000159 Ry

     iteration #  5     ecut=    30.00 Ry     beta=0.70
     Davidson diagonalization with overlap
     ethr =  2.39E-09,  avg # of iterations =  2.0

     total cpu time spent up to now is       75.0 secs

     total energy              =    -329.49252068 Ry
     Harris-Foulkes estimate   =    -329.49252070 Ry
     estimated scf accuracy    <       0.00000007 Ry

     iteration #  6     ecut=    30.00 Ry     beta=0.70
     Davidson diagonalization with overlap
     ethr =  1.30E-10,  avg # of iterations =  3.0

     total cpu time spent up to now is       75.2 secs

     total energy              =    -329.49252068 Ry
     Harris-Foulkes estimate   =    -329.49252070 Ry
     estimated scf accuracy    <          7.5E-09 Ry

     iteration #  7     ecut=    30.00 Ry     beta=0.70
     Davidson diagonalization with overlap
     ethr =  1.37E-11,  avg # of iterations =  3.0

     total cpu time spent up to now is       75.5 secs

     total energy              =    -329.49252066 Ry
     Harris-Foulkes estimate   =    -329.49252068 Ry
     estimated scf accuracy    <          3.3E-09 Ry

     iteration #  8     ecut=    30.00 Ry     beta=0.70
     Davidson diagonalization with overlap
     ethr =  6.08E-12,  avg # of iterations =  2.0

     total cpu time spent up to now is       75.7 secs

     total energy              =    -329.49252064 Ry
     Harris-Foulkes estimate   =    -329.49252067 Ry
     estimated scf accuracy    <          3.6E-10 Ry

     iteration #  9     ecut=    30.00 Ry     beta=0.70
     Davidson diagonalization with overlap
     ethr =  6.47E-13,  avg # of iterations =  2.0

     total cpu time spent up to now is       75.9 secs

     End of self-consistent calculation

          k = 0.0000 0.0000 0.0000 ( 22119 PWs)   bands (ev):

    -8.5133  -7.7804  -7.6538  -7.2329  -6.8610  -6.8186  -6.6129  -6.4810
    -6.3087  -6.0794  -5.9603  -5.7735  -5.7329  -5.6881  -5.4561  -5.3596
    -5.3164  -5.2456  -5.2019  -5.1859  -5.1693  -5.1245  -5.0015  -4.9244
    -4.8478  -4.7288  -4.4823  -3.7761  -2.4589  -2.2130  -0.5575  -0.1982
     0.4667   0.8563

     the Fermi energy is    -3.7429 ev

!    total energy              =    -329.49252064 Ry
     Harris-Foulkes estimate   =    -329.49252064 Ry
     estimated scf accuracy    <          9.2E-11 Ry

     The total energy is the sum of the following terms:

     one-electron contribution =    -608.38164966 Ry
     hartree contribution      =     325.61991904 Ry
     xc contribution           =     -51.40058377 Ry
     ewald contribution        =       4.67430238 Ry
     smearing contrib. (-TS)   =      -0.00450863 Ry

     convergence has been achieved in   9 iterations

     Forces acting on atoms (Ry/au):

     atom    1 type  1   force =    -0.00060761   -0.00009447   -0.00004696
     atom    2 type  1   force =     0.00119555    0.00056684   -0.00009905
     atom    3 type  1   force =    -0.00052894   -0.00000569    0.00012202
     atom    4 type  1   force =    -0.00015669   -0.00042187   -0.00105333
     atom    5 type  1   force =     0.00009769   -0.00004481    0.00107732

     Total force =     0.002218     Total SCF correction =     0.000036

     number of scf cycles    =  30
     number of bfgs steps    =  29

     energy   old            =    -329.4925076653 Ry
     energy   new            =    -329.4925206400 Ry

     CASE: energy  _new < energy  _old

     new trust radius        =       0.0099116923 bohr
     new conv_thr            =            1.0E-10 Ry


ATOMIC_POSITIONS (bohr)
Au      -1.635090101   2.025323720  -1.134575369
Au      -0.831270779   3.356406234   3.803143240
Au       3.065802461   1.418851588   0.634985923
Au       3.892341486   2.876622509   5.857650136
Au       7.618051932   1.072191948   2.780882069



     Writing output data file pwscf.save
     Check: negative starting charge=   -0.006469
     NEW-OLD atomic charge density approx. for the potential
     Check: negative starting charge=   -0.006468

     negative rho (up, down):  3.706E-06 0.000E+00

     total cpu time spent up to now is       76.1 secs

     per-process dynamical memory:    50.7 Mb

     Self-consistent Calculation

     iteration #  1     ecut=    30.00 Ry     beta=0.70
     Davidson diagonalization with overlap
     ethr =  1.00E-06,  avg # of iterations =  3.0

     Threshold (ethr) on eigenvalues was too large:
     Diagonalizing with lowered threshold

     Davidson diagonalization with overlap
     ethr =  2.86E-08,  avg # of iterations =  1.0

     total cpu time spent up to now is       76.6 secs

     total energy              =    -329.49252170 Ry
     Harris-Foulkes estimate   =    -329.49252739 Ry
     estimated scf accuracy    <       0.00001692 Ry

     iteration #  2     ecut=    30.00 Ry     beta=0.70
     Davidson diagonalization with overlap
     ethr =  3.08E-08,  avg # of iterations =  3.0

     total cpu time spent up to now is       76.8 secs

     total energy              =    -329.49252289 Ry
     Harris-Foulkes estimate   =    -329.49253406 Ry
     estimated scf accuracy    <       0.00002617 Ry

     iteration #  3     ecut=    30.00 Ry     beta=0.70
     Davidson diagonalization with overlap
     ethr =  3.08E-08,  avg # of iterations =  2.0

     total cpu time spent up to now is       77.0 secs

     total energy              =    -329.49252849 Ry
     Harris-Foulkes estimate   =    -329.49252923 Ry
     estimated scf accuracy    <       0.00000308 Ry

     iteration #  4     ecut=    30.00 Ry     beta=0.70
     Davidson diagonalization with overlap
     ethr =  5.60E-09,  avg # of iterations =  2.0

     total cpu time spent up to now is       77.2 secs

     total energy              =    -329.49252909 Ry
     Harris-Foulkes estimate   =    -329.49252959 Ry
     estimated scf accuracy    <       0.00000115 Ry

     iteration #  5     ecut=    30.00 Ry     beta=0.70
     Davidson diagonalization with overlap
     ethr =  2.08E-09,  avg # of iterations =  2.0

     total cpu time spent up to now is       77.4 secs

     total energy              =    -329.49252920 Ry
     Harris-Foulkes estimate   =    -329.49252931 Ry
     estimated scf accuracy    <       0.00000005 Ry

     iteration #  6     ecut=    30.00 Ry     beta=0.70
     Davidson diagonalization with overlap
     ethr =  8.57E-11,  avg # of iterations =  3.0

     total cpu time spent up to now is       77.7 secs

     total energy              =    -329.49252928 Ry
     Harris-Foulkes estimate   =    -329.49252922 Ry
     estimated scf accuracy    <          8.9E-09 Ry

     iteration #  7     ecut=    30.00 Ry     beta=0.70
     Davidson diagonalization with overlap
     ethr =  1.63E-11,  avg # of iterations =  3.0

     total cpu time spent up to now is       77.9 secs

     total energy              =    -329.49252935 Ry
     Harris-Foulkes estimate   =    -329.49252928 Ry
     estimated scf accuracy    <          2.0E-09 Ry

     iteration #  8     ecut=    30.00 Ry     beta=0.70
     Davidson diagonalization with overlap
     ethr =  3.64E-12,  avg # of iterations =  2.0

     total cpu time spent up to now is       78.1 secs

     total energy              =    -329.49252935 Ry
     Harris-Foulkes estimate   =    -329.49252935 Ry
     estimated scf accuracy    <          2.1E-10 Ry

     iteration #  9     ecut=    30.00 Ry     beta=0.70
     Davidson diagonalization with overlap
     ethr =  3.90E-13,  avg # of iterations =  3.0

     total cpu time spent up to now is       78.3 secs

     End of self-consistent calculation

          k = 0.0000 0.0000 0.0000 ( 22119 PWs)   bands (ev):

    -8.5075  -7.7756  -7.6575  -7.2335  -6.8614  -6.8143  -6.6067  -6.4808
    -6.3118  -6.0769  -5.9559  -5.7721  -5.7305  -5.6877  -5.4565  -5.3604
    -5.3176  -5.2456  -5.2029  -5.1853  -5.1689  -5.1242  -5.0034  -4.9235
    -4.8458  -4.7314  -4.4821  -3.7781  -2.4611  -2.2118  -0.5571  -0.1982
     0.4651   0.8561

     the Fermi energy is    -3.7450 ev

!    total energy              =    -329.49252935 Ry
     Harris-Foulkes estimate   =    -329.49252935 Ry
     estimated scf accuracy    <          6.5E-11 Ry

     The total energy is the sum of the following terms:

     one-electron contribution =    -608.20935044 Ry
     hartree contribution      =     325.53474778 Ry
     xc contribution           =     -51.39990350 Ry
     ewald contribution        =       4.58642861 Ry
     smearing contrib. (-TS)   =      -0.00445180 Ry

     convergence has been achieved in   9 iterations

     Forces acting on atoms (Ry/au):

     atom    1 type  1   force =    -0.00005519   -0.00013186    0.00060221
     atom    2 type  1   force =     0.00059328    0.00043092   -0.00058803
     atom    3 type  1   force =    -0.00060576    0.00000527    0.00010716
     atom    4 type  1   force =     0.00065014   -0.00060167   -0.00100827
     atom    5 type  1   force =    -0.00058246    0.00029734    0.00088694

     Total force =     0.002159     Total SCF correction =     0.000024

     number of scf cycles    =  31
     number of bfgs steps    =  30

     energy   old            =    -329.4925206400 Ry
     energy   new            =    -329.4925293496 Ry

     CASE: energy  _new < energy  _old

     new trust radius        =       0.0069476145 bohr
     new conv_thr            =            1.0E-10 Ry


ATOMIC_POSITIONS (bohr)
Au      -1.638670568   2.019555470  -1.133099939
Au      -0.827036767   3.359387111   3.802370300
Au       3.064153894   1.422535189   0.634747467
Au       3.894363997   2.875782991   5.857138092
Au       7.617024444   1.072135239   2.780930081



     Writing output data file pwscf.save
     Check: negative starting charge=   -0.006468
     NEW-OLD atomic charge density approx. for the potential
     Check: negative starting charge=   -0.006468

     negative rho (up, down):  6.987E-07 0.000E+00

     total cpu time spent up to now is       78.6 secs

     per-process dynamical memory:    50.7 Mb

     Self-consistent Calculation

     iteration #  1     ecut=    30.00 Ry     beta=0.70
     Davidson diagonalization with overlap
     ethr =  1.00E-06,  avg # of iterations =  3.0

     Threshold (ethr) on eigenvalues was too large:
     Diagonalizing with lowered threshold

     Davidson diagonalization with overlap
     ethr =  1.67E-08,  avg # of iterations =  1.0

     total cpu time spent up to now is       79.0 secs

     total energy              =    -329.49253300 Ry
     Harris-Foulkes estimate   =    -329.49253654 Ry
     estimated scf accuracy    <       0.00000983 Ry

     iteration #  2     ecut=    30.00 Ry     beta=0.70
     Davidson diagonalization with overlap
     ethr =  1.79E-08,  avg # of iterations =  3.0

     total cpu time spent up to now is       79.2 secs

     total energy              =    -329.49253422 Ry
     Harris-Foulkes estimate   =    -329.49253920 Ry
     estimated scf accuracy    <       0.00001046 Ry

     iteration #  3     ecut=    30.00 Ry     beta=0.70
     Davidson diagonalization with overlap
     ethr =  1.79E-08,  avg # of iterations =  2.0

     total cpu time spent up to now is       79.5 secs

     total energy              =    -329.49253621 Ry
     Harris-Foulkes estimate   =    -329.49253697 Ry
     estimated scf accuracy    <       0.00000176 Ry

     iteration #  4     ecut=    30.00 Ry     beta=0.70
     Davidson diagonalization with overlap
     ethr =  3.19E-09,  avg # of iterations =  2.0

     total cpu time spent up to now is       79.6 secs

     total energy              =    -329.49253662 Ry
     Harris-Foulkes estimate   =    -329.49253681 Ry
     estimated scf accuracy    <       0.00000055 Ry

     iteration #  5     ecut=    30.00 Ry     beta=0.70
     Davidson diagonalization with overlap
     ethr =  9.96E-10,  avg # of iterations =  2.0

     total cpu time spent up to now is       79.8 secs

     total energy              =    -329.49253669 Ry
     Harris-Foulkes estimate   =    -329.49253673 Ry
     estimated scf accuracy    <       0.00000003 Ry

     iteration #  6     ecut=    30.00 Ry     beta=0.70
     Davidson diagonalization with overlap
     ethr =  6.03E-11,  avg # of iterations =  2.0

     total cpu time spent up to now is       80.1 secs

     total energy              =    -329.49253670 Ry
     Harris-Foulkes estimate   =    -329.49253670 Ry
     estimated scf accuracy    <          4.4E-09 Ry

     iteration #  7     ecut=    30.00 Ry     beta=0.70
     Davidson diagonalization with overlap
     ethr =  8.04E-12,  avg # of iterations =  2.0

     total cpu time spent up to now is       80.3 secs

     total energy              =    -329.49253665 Ry
     Harris-Foulkes estimate   =    -329.49253670 Ry
     estimated scf accuracy    <          1.7E-09 Ry

     iteration #  8     ecut=    30.00 Ry     beta=0.70
     Davidson diagonalization with overlap
     ethr =  3.10E-12,  avg # of iterations =  2.0

     total cpu time spent up to now is       80.5 secs

     total energy              =    -329.49253668 Ry
     Harris-Foulkes estimate   =    -329.49253665 Ry
     estimated scf accuracy    <          2.3E-10 Ry

     iteration #  9     ecut=    30.00 Ry     beta=0.70
     Davidson diagonalization with overlap
     ethr =  4.18E-13,  avg # of iterations =  2.0

     total cpu time spent up to now is       80.7 secs

     End of self-consistent calculation

          k = 0.0000 0.0000 0.0000 ( 22119 PWs)   bands (ev):

    -8.5091  -7.7780  -7.6609  -7.2366  -6.8629  -6.8150  -6.6070  -6.4832
    -6.3138  -6.0774  -5.9560  -5.7722  -5.7303  -5.6887  -5.4578  -5.3604
    -5.3178  -5.2459  -5.2028  -5.1858  -5.1686  -5.1239  -5.0040  -4.9232
    -4.8452  -4.7308  -4.4822  -3.7775  -2.4613  -2.2106  -0.5576  -0.1976
     0.4642   0.8561

     the Fermi energy is    -3.7443 ev

!    total energy              =    -329.49253667 Ry
     Harris-Foulkes estimate   =    -329.49253668 Ry
     estimated scf accuracy    <          5.3E-11 Ry

     The total energy is the sum of the following terms:

     one-electron contribution =    -608.32761358 Ry
     hartree contribution      =     325.59275312 Ry
     xc contribution           =     -51.40028885 Ry
     ewald contribution        =       4.64708363 Ry
     smearing contrib. (-TS)   =      -0.00447099 Ry

     convergence has been achieved in   9 iterations

     Forces acting on atoms (Ry/au):

     atom    1 type  1   force =     0.00015478    0.00016346    0.00052511
     atom    2 type  1   force =     0.00024530    0.00037767   -0.00047786
     atom    3 type  1   force =    -0.00044488   -0.00025216   -0.00010045
     atom    4 type  1   force =     0.00055652   -0.00049811   -0.00066893
     atom    5 type  1   force =    -0.00051172    0.00020914    0.00072213

     Total force =     0.001692     Total SCF correction =     0.000028

     bfgs converged in  32 scf cycles and  31 bfgs steps
     (criteria: energy <  1.0E-04, force <  1.0E-03)

     End of BFGS Geometry Optimization

     Final energy   =    -329.4925366665 Ry
Begin final coordinates

ATOMIC_POSITIONS (bohr)
Au      -1.638670568   2.019555470  -1.133099939
Au      -0.827036767   3.359387111   3.802370300
Au       3.064153894   1.422535189   0.634747467
Au       3.894363997   2.875782991   5.857138092
Au       7.617024444   1.072135239   2.780930081
End final coordinates



     Writing output data file pwscf.save
 
     init_run     :      0.16s CPU      0.18s WALL (       1 calls)
     electrons    :     69.76s CPU     74.53s WALL (      32 calls)
     update_pot   :      2.03s CPU      2.64s WALL (      31 calls)
     forces       :      1.32s CPU      1.34s WALL (      32 calls)

     Called by init_run:
     wfcinit      :      0.07s CPU      0.08s WALL (       1 calls)
     potinit      :      0.03s CPU      0.03s WALL (       1 calls)

     Called by electrons:
     c_bands      :     53.06s CPU     53.71s WALL (     326 calls)
     sum_band     :      7.69s CPU      7.87s WALL (     326 calls)
     v_of_rho     :      5.93s CPU      6.00s WALL (     337 calls)
     mix_rho      :      2.22s CPU      4.84s WALL (     326 calls)

     Called by c_bands:
     init_us_2    :      0.99s CPU      1.03s WALL (     653 calls)
     cegterg      :     47.18s CPU     47.60s WALL (     326 calls)

     Called by sum_band:

     Called by *egterg:
     h_psi        :     37.10s CPU     37.40s WALL (    1103 calls)
     g_psi        :      0.37s CPU      0.37s WALL (     776 calls)
     cdiaghg      :      2.46s CPU      2.47s WALL (    1050 calls)

     Called by h_psi:
     h_psi:pot    :     36.56s CPU     36.86s WALL (    1103 calls)
     h_psi:calbec :      2.00s CPU      2.00s WALL (    1103 calls)
     vloc_psi     :     32.31s CPU     32.61s WALL (    1103 calls)
     add_vuspsi   :      2.24s CPU      2.25s WALL (    1103 calls)

     General routines
     calbec       :      2.37s CPU      2.39s WALL (    1231 calls)
     fft          :      3.32s CPU      3.39s WALL (    3812 calls)
     fftw         :     34.04s CPU     34.63s WALL (   71382 calls)
     davcio       :      0.33s CPU      2.45s WALL (    3133 calls)
 
     Parallel routines
     fft_scatter  :      8.85s CPU      8.58s WALL (   75194 calls)
 
     PWSCF        :  1m14.12s CPU     1m20.96s WALL

 
   This run was terminated on:  19:12:35   3Aug2017            

=------------------------------------------------------------------------------=
   JOB DONE.
=------------------------------------------------------------------------------=
