
     Program PWSCF v.6.0 (svn rev. 13079) starts on  3Aug2017 at 20:19:17 

     This program is part of the open-source Quantum ESPRESSO suite
     for quantum simulation of materials; please cite
         "P. Giannozzi et al., J. Phys.:Condens. Matter 21 395502 (2009);
          URL http://www.quantum-espresso.org", 
     in publications or presentations arising from this work. More details at
     http://www.quantum-espresso.org/quote

     Parallel version (MPI), running on    10 processors
     R & G space division:  proc/nbgrp/npool/nimage =      10
     Reading input from input/multi/minchecks-Gold5-433.in

     Current dimensions of program PWSCF are:
     Max number of different atomic species (ntypx) = 10
     Max number of k-points (npk) =  40000
     Max angular momentum in pseudopotentials (lmaxx) =  3
     Message from routine iosys:
     pot_extrapolation='second-order' not available, using 'atomic'
     Message from routine iosys:
     wfc_extrapolation='second-order' not available, using 'atomic'

     Subspace diagonalization in iterative solution of the eigenvalue problem:
     a serial algorithm will be used

 
     Parallelization info
     --------------------
     sticks:   dense  smooth     PW     G-vecs:    dense   smooth      PW
     Min         380     380     94                17748    17748    2208
     Max         381     381     95                17753    17753    2213
     Sum        3809    3809    949               177509   177509   22119
 


     bravais-lattice index     =            1
     lattice parameter (alat)  =      20.0000  a.u.
     unit-cell volume          =    8000.0000 (a.u.)^3
     number of atoms/cell      =            5
     number of atomic types    =            1
     number of electrons       =        55.00
     number of Kohn-Sham states=           34
     kinetic-energy cutoff     =      30.0000  Ry
     charge density cutoff     =     120.0000  Ry
     convergence threshold     =      1.0E-08
     mixing beta               =       0.7000
     number of iterations used =            8  plain     mixing
     Exchange-correlation      = BLYP ( 1  3  1  3 0 0)
     nstep                     =           50


     celldm(1)=  20.000000  celldm(2)=   0.000000  celldm(3)=   0.000000
     celldm(4)=   0.000000  celldm(5)=   0.000000  celldm(6)=   0.000000

     crystal axes: (cart. coord. in units of alat)
               a(1) = (   1.000000   0.000000   0.000000 )  
               a(2) = (   0.000000   1.000000   0.000000 )  
               a(3) = (   0.000000   0.000000   1.000000 )  

     reciprocal axes: (cart. coord. in units 2 pi/alat)
               b(1) = (  1.000000  0.000000  0.000000 )  
               b(2) = (  0.000000  1.000000  0.000000 )  
               b(3) = (  0.000000  0.000000  1.000000 )  


     PseudoPot. # 1 for Au read from file:
     ./Au.blyp-d-hgh.UPF
     MD5 check sum: c10d8bae01f806c36a1643a1c69a8479
     Pseudo is Norm-conserving, Zval = 11.0
     Generated in analytical, separable form
     Using radial grid of 1279 points,  6 beta functions with: 
                l(1) =   0
                l(2) =   0
                l(3) =   1
                l(4) =   1
                l(5) =   2
                l(6) =   2

     atomic species   valence    mass     pseudopotential
        Au            11.00    28.08600     Au( 1.00)

     No symmetry found



   Cartesian axes

     site n.     atom                  positions (alat units)
         1           Au  tau(   1) = (  -0.0928377   0.0780576  -0.0189501  )
         2           Au  tau(   2) = (  -0.0346590   0.1539676   0.2160823  )
         3           Au  tau(   3) = (   0.1530909   0.0596318   0.0290289  )
         4           Au  tau(   4) = (   0.2126008   0.1774484   0.2771053  )
         5           Au  tau(   5) = (   0.3879710   0.0799364   0.1218959  )

     number of k points=     1  Marzari-Vanderbilt smearing, width (Ry)=  0.0250
                       cart. coord. in units 2pi/alat
        k(    1) = (   0.0000000   0.0000000   0.0000000), wk =   2.0000000

     Dense  grid:   177509 G-vectors     FFT dimensions: (  72,  72,  72)

     Estimated max dynamical RAM per process >      15.04Mb

     Estimated total allocated dynamical RAM >     150.39Mb

     Initial potential from superposition of free atoms
     Check: negative starting charge=   -0.006415

     starting charge   54.99940, renormalised to   55.00000

     negative rho (up, down):  6.415E-03 0.000E+00
     Starting wfc are   45 randomized atomic wfcs

     total cpu time spent up to now is        0.3 secs

     per-process dynamical memory:    41.0 Mb

     Self-consistent Calculation

     iteration #  1     ecut=    30.00 Ry     beta=0.70
     Davidson diagonalization with overlap
     ethr =  1.00E-02,  avg # of iterations =  3.0

     Threshold (ethr) on eigenvalues was too large:
     Diagonalizing with lowered threshold

     Davidson diagonalization with overlap
     ethr =  4.02E-04,  avg # of iterations =  5.0

     negative rho (up, down):  8.676E-04 0.000E+00

     total cpu time spent up to now is        0.8 secs

     total energy              =    -329.37718604 Ry
     Harris-Foulkes estimate   =    -329.54523727 Ry
     estimated scf accuracy    <       0.27921449 Ry

     iteration #  2     ecut=    30.00 Ry     beta=0.70
     Davidson diagonalization with overlap
     ethr =  5.08E-04,  avg # of iterations =  5.0

     negative rho (up, down):  3.822E-04 0.000E+00

     total cpu time spent up to now is        1.1 secs

     total energy              =    -329.41381980 Ry
     Harris-Foulkes estimate   =    -329.55811412 Ry
     estimated scf accuracy    <       0.29460108 Ry

     iteration #  3     ecut=    30.00 Ry     beta=0.70
     Davidson diagonalization with overlap
     ethr =  5.08E-04,  avg # of iterations =  2.0

     negative rho (up, down):  1.468E-04 0.000E+00

     total cpu time spent up to now is        1.3 secs

     total energy              =    -329.47443903 Ry
     Harris-Foulkes estimate   =    -329.50143839 Ry
     estimated scf accuracy    <       0.07145721 Ry

     iteration #  4     ecut=    30.00 Ry     beta=0.70
     Davidson diagonalization with overlap
     ethr =  1.30E-04,  avg # of iterations =  5.0

     negative rho (up, down):  1.360E-06 0.000E+00

     total cpu time spent up to now is        1.5 secs

     total energy              =    -329.48704806 Ry
     Harris-Foulkes estimate   =    -329.48768750 Ry
     estimated scf accuracy    <       0.00190306 Ry

     iteration #  5     ecut=    30.00 Ry     beta=0.70
     Davidson diagonalization with overlap
     ethr =  3.46E-06,  avg # of iterations =  7.0

     total cpu time spent up to now is        1.9 secs

     total energy              =    -329.48754941 Ry
     Harris-Foulkes estimate   =    -329.48824167 Ry
     estimated scf accuracy    <       0.00176429 Ry

     iteration #  6     ecut=    30.00 Ry     beta=0.70
     Davidson diagonalization with overlap
     ethr =  3.21E-06,  avg # of iterations =  2.0

     total cpu time spent up to now is        2.1 secs

     total energy              =    -329.48782268 Ry
     Harris-Foulkes estimate   =    -329.48789420 Ry
     estimated scf accuracy    <       0.00016576 Ry

     iteration #  7     ecut=    30.00 Ry     beta=0.70
     Davidson diagonalization with overlap
     ethr =  3.01E-07,  avg # of iterations =  2.0

     total cpu time spent up to now is        2.3 secs

     total energy              =    -329.48785729 Ry
     Harris-Foulkes estimate   =    -329.48787476 Ry
     estimated scf accuracy    <       0.00004374 Ry

     iteration #  8     ecut=    30.00 Ry     beta=0.70
     Davidson diagonalization with overlap
     ethr =  7.95E-08,  avg # of iterations =  2.0

     total cpu time spent up to now is        2.6 secs

     total energy              =    -329.48786496 Ry
     Harris-Foulkes estimate   =    -329.48787142 Ry
     estimated scf accuracy    <       0.00001755 Ry

     iteration #  9     ecut=    30.00 Ry     beta=0.70
     Davidson diagonalization with overlap
     ethr =  3.19E-08,  avg # of iterations =  2.0

     total cpu time spent up to now is        2.8 secs

     total energy              =    -329.48786816 Ry
     Harris-Foulkes estimate   =    -329.48786858 Ry
     estimated scf accuracy    <       0.00000079 Ry

     iteration # 10     ecut=    30.00 Ry     beta=0.70
     Davidson diagonalization with overlap
     ethr =  1.44E-09,  avg # of iterations =  3.0

     total cpu time spent up to now is        3.0 secs

     total energy              =    -329.48786844 Ry
     Harris-Foulkes estimate   =    -329.48786851 Ry
     estimated scf accuracy    <       0.00000029 Ry

     iteration # 11     ecut=    30.00 Ry     beta=0.70
     Davidson diagonalization with overlap
     ethr =  5.29E-10,  avg # of iterations =  2.0

     total cpu time spent up to now is        3.2 secs

     total energy              =    -329.48786852 Ry
     Harris-Foulkes estimate   =    -329.48786850 Ry
     estimated scf accuracy    <       0.00000002 Ry

     iteration # 12     ecut=    30.00 Ry     beta=0.70
     Davidson diagonalization with overlap
     ethr =  3.33E-11,  avg # of iterations =  3.0

     total cpu time spent up to now is        3.5 secs

     End of self-consistent calculation

          k = 0.0000 0.0000 0.0000 ( 22119 PWs)   bands (ev):

    -8.4051  -7.7361  -7.6385  -7.1822  -6.9531  -6.7701  -6.7413  -6.4554
    -6.2765  -6.0580  -5.9873  -5.7621  -5.7254  -5.6608  -5.4051  -5.3504
    -5.3274  -5.2151  -5.1806  -5.1764  -5.1651  -5.1372  -4.9943  -4.8710
    -4.8433  -4.7191  -4.3888  -3.8001  -2.5474  -2.1313  -0.5508  -0.2309
     0.5461   0.9172

     the Fermi energy is    -3.7846 ev

!    total energy              =    -329.48786848 Ry
     Harris-Foulkes estimate   =    -329.48786852 Ry
     estimated scf accuracy    <          6.3E-09 Ry

     The total energy is the sum of the following terms:

     one-electron contribution =    -609.67879156 Ry
     hartree contribution      =     326.30614912 Ry
     xc contribution           =     -51.41548937 Ry
     ewald contribution        =       5.30107747 Ry
     smearing contrib. (-TS)   =      -0.00081414 Ry

     convergence has been achieved in  12 iterations

     Forces acting on atoms (Ry/au):

     atom    1 type  1   force =    -0.00571793   -0.00353810   -0.00818027
     atom    2 type  1   force =    -0.00028452   -0.00037753   -0.00020839
     atom    3 type  1   force =     0.00213334    0.00676706    0.01220850
     atom    4 type  1   force =     0.00088409    0.00022235    0.00015603
     atom    5 type  1   force =     0.00298502   -0.00307378   -0.00397587

     Total force =     0.018623     Total SCF correction =     0.000277

     BFGS Geometry Optimization

     number of scf cycles    =   1
     number of bfgs steps    =   0

     energy   new            =    -329.4878684804 Ry

     new trust radius        =       0.0141206094 bohr
     new conv_thr            =       0.0000000100 Ry


ATOMIC_POSITIONS (bohr)
Au      -1.862471928   1.557613902  -0.387183266
Au      -0.693463521   3.078975467   4.321436613
Au       3.063950337   1.199403057   0.592787498
Au       4.252899095   3.549189355   5.542263028
Au       7.762405017   1.595654219   2.433941126



     Writing output data file pwscf.save
     Check: negative starting charge=   -0.006415
     NEW-OLD atomic charge density approx. for the potential
     Check: negative starting charge=   -0.006411

     negative rho (up, down):  1.215E-05 0.000E+00

     total cpu time spent up to now is        3.7 secs

     per-process dynamical memory:    42.9 Mb

     Self-consistent Calculation

     iteration #  1     ecut=    30.00 Ry     beta=0.70
     Davidson diagonalization with overlap
     ethr =  1.00E-06,  avg # of iterations =  4.0

     Threshold (ethr) on eigenvalues was too large:
     Diagonalizing with lowered threshold

     Davidson diagonalization with overlap
     ethr =  5.29E-08,  avg # of iterations =  1.0

     negative rho (up, down):  1.261E-08 0.000E+00

     total cpu time spent up to now is        4.2 secs

     total energy              =    -329.48817773 Ry
     Harris-Foulkes estimate   =    -329.48818605 Ry
     estimated scf accuracy    <       0.00002967 Ry

     iteration #  2     ecut=    30.00 Ry     beta=0.70
     Davidson diagonalization with overlap
     ethr =  5.40E-08,  avg # of iterations =  3.0

     total cpu time spent up to now is        4.5 secs

     total energy              =    -329.48817418 Ry
     Harris-Foulkes estimate   =    -329.48820259 Ry
     estimated scf accuracy    <       0.00007032 Ry

     iteration #  3     ecut=    30.00 Ry     beta=0.70
     Davidson diagonalization with overlap
     ethr =  5.40E-08,  avg # of iterations =  2.0

     total cpu time spent up to now is        4.7 secs

     total energy              =    -329.48818904 Ry
     Harris-Foulkes estimate   =    -329.48819158 Ry
     estimated scf accuracy    <       0.00000923 Ry

     iteration #  4     ecut=    30.00 Ry     beta=0.70
     Davidson diagonalization with overlap
     ethr =  1.68E-08,  avg # of iterations =  2.0

     total cpu time spent up to now is        4.9 secs

     total energy              =    -329.48819094 Ry
     Harris-Foulkes estimate   =    -329.48819088 Ry
     estimated scf accuracy    <       0.00000070 Ry

     iteration #  5     ecut=    30.00 Ry     beta=0.70
     Davidson diagonalization with overlap
     ethr =  1.27E-09,  avg # of iterations =  2.0

     total cpu time spent up to now is        5.1 secs

     total energy              =    -329.48819091 Ry
     Harris-Foulkes estimate   =    -329.48819127 Ry
     estimated scf accuracy    <       0.00000054 Ry

     iteration #  6     ecut=    30.00 Ry     beta=0.70
     Davidson diagonalization with overlap
     ethr =  9.82E-10,  avg # of iterations =  2.0

     total cpu time spent up to now is        5.3 secs

     total energy              =    -329.48819106 Ry
     Harris-Foulkes estimate   =    -329.48819101 Ry
     estimated scf accuracy    <       0.00000003 Ry

     iteration #  7     ecut=    30.00 Ry     beta=0.70
     Davidson diagonalization with overlap
     ethr =  5.03E-11,  avg # of iterations =  2.0

     total cpu time spent up to now is        5.5 secs

     End of self-consistent calculation

          k = 0.0000 0.0000 0.0000 ( 22119 PWs)   bands (ev):

    -8.4072  -7.7351  -7.6350  -7.1873  -6.9472  -6.7686  -6.7314  -6.4530
    -6.2798  -6.0506  -5.9881  -5.7629  -5.7253  -5.6617  -5.4050  -5.3576
    -5.3273  -5.2134  -5.1811  -5.1799  -5.1667  -5.1375  -4.9961  -4.8747
    -4.8437  -4.7209  -4.3941  -3.7998  -2.5478  -2.1351  -0.5512  -0.2289
     0.5438   0.9173

     the Fermi energy is    -3.7834 ev

!    total energy              =    -329.48819103 Ry
     Harris-Foulkes estimate   =    -329.48819107 Ry
     estimated scf accuracy    <          5.1E-09 Ry

     The total energy is the sum of the following terms:

     one-electron contribution =    -609.54781596 Ry
     hartree contribution      =     326.23956638 Ry
     xc contribution           =     -51.41389521 Ry
     ewald contribution        =       5.23495291 Ry
     smearing contrib. (-TS)   =      -0.00099914 Ry

     convergence has been achieved in   7 iterations

     Forces acting on atoms (Ry/au):

     atom    1 type  1   force =    -0.00403244   -0.00331122   -0.00694000
     atom    2 type  1   force =    -0.00039664   -0.00049440   -0.00089658
     atom    3 type  1   force =     0.00014539    0.00616750    0.01080556
     atom    4 type  1   force =     0.00101218    0.00026688    0.00027907
     atom    5 type  1   force =     0.00327152   -0.00262876   -0.00324805

     Total force =     0.016148     Total SCF correction =     0.000326

     number of scf cycles    =   2
     number of bfgs steps    =   1

     energy   old            =    -329.4878684804 Ry
     energy   new            =    -329.4881910284 Ry

     CASE: energy  _new < energy  _old


     WARNING: bfgs curvature condition failed, Theta= 0.932
     new trust radius        =       0.0155326704 bohr
     new conv_thr            =       0.0000000003 Ry


ATOMIC_POSITIONS (bohr)
Au      -1.867718619   1.553514410  -0.395913400
Au      -0.693929451   3.078390576   4.320461857
Au       3.064487261   1.207070726   0.606284994
Au       4.254116604   3.549508439   5.542582883
Au       7.766363205   1.592351849   2.429828666



     Writing output data file pwscf.save
     Check: negative starting charge=   -0.006411
     NEW-OLD atomic charge density approx. for the potential
     Check: negative starting charge=   -0.006409

     negative rho (up, down):  1.671E-05 0.000E+00

     total cpu time spent up to now is        5.7 secs

     per-process dynamical memory:    50.7 Mb

     Self-consistent Calculation

     iteration #  1     ecut=    30.00 Ry     beta=0.70
     Davidson diagonalization with overlap
     ethr =  1.00E-06,  avg # of iterations =  4.0

     Threshold (ethr) on eigenvalues was too large:
     Diagonalizing with lowered threshold

     Davidson diagonalization with overlap
     ethr =  6.14E-08,  avg # of iterations =  1.0

     negative rho (up, down):  2.479E-08 0.000E+00

     total cpu time spent up to now is        6.2 secs

     total energy              =    -329.48848099 Ry
     Harris-Foulkes estimate   =    -329.48849063 Ry
     estimated scf accuracy    <       0.00003426 Ry

     iteration #  2     ecut=    30.00 Ry     beta=0.70
     Davidson diagonalization with overlap
     ethr =  6.23E-08,  avg # of iterations =  3.0

     total cpu time spent up to now is        6.4 secs

     total energy              =    -329.48847767 Ry
     Harris-Foulkes estimate   =    -329.48850783 Ry
     estimated scf accuracy    <       0.00007206 Ry

     iteration #  3     ecut=    30.00 Ry     beta=0.70
     Davidson diagonalization with overlap
     ethr =  6.23E-08,  avg # of iterations =  2.0

     total cpu time spent up to now is        6.6 secs

     total energy              =    -329.48849298 Ry
     Harris-Foulkes estimate   =    -329.48849655 Ry
     estimated scf accuracy    <       0.00001147 Ry

     iteration #  4     ecut=    30.00 Ry     beta=0.70
     Davidson diagonalization with overlap
     ethr =  2.09E-08,  avg # of iterations =  2.0

     total cpu time spent up to now is        6.8 secs

     total energy              =    -329.48849503 Ry
     Harris-Foulkes estimate   =    -329.48849520 Ry
     estimated scf accuracy    <       0.00000069 Ry

     iteration #  5     ecut=    30.00 Ry     beta=0.70
     Davidson diagonalization with overlap
     ethr =  1.26E-09,  avg # of iterations =  3.0

     total cpu time spent up to now is        7.0 secs

     total energy              =    -329.48849527 Ry
     Harris-Foulkes estimate   =    -329.48849537 Ry
     estimated scf accuracy    <       0.00000057 Ry

     iteration #  6     ecut=    30.00 Ry     beta=0.70
     Davidson diagonalization with overlap
     ethr =  1.04E-09,  avg # of iterations =  2.0

     total cpu time spent up to now is        7.2 secs

     total energy              =    -329.48849540 Ry
     Harris-Foulkes estimate   =    -329.48849538 Ry
     estimated scf accuracy    <       0.00000003 Ry

     iteration #  7     ecut=    30.00 Ry     beta=0.70
     Davidson diagonalization with overlap
     ethr =  5.93E-11,  avg # of iterations =  2.0

     total cpu time spent up to now is        7.5 secs

     total energy              =    -329.48849536 Ry
     Harris-Foulkes estimate   =    -329.48849541 Ry
     estimated scf accuracy    <          5.0E-09 Ry

     iteration #  8     ecut=    30.00 Ry     beta=0.70
     Davidson diagonalization with overlap
     ethr =  9.05E-12,  avg # of iterations =  2.0

     total cpu time spent up to now is        7.7 secs

     total energy              =    -329.48849538 Ry
     Harris-Foulkes estimate   =    -329.48849536 Ry
     estimated scf accuracy    <          8.7E-10 Ry

     iteration #  9     ecut=    30.00 Ry     beta=0.70
     Davidson diagonalization with overlap
     ethr =  1.58E-12,  avg # of iterations =  3.0

     total cpu time spent up to now is        7.9 secs

     End of self-consistent calculation

          k = 0.0000 0.0000 0.0000 ( 22119 PWs)   bands (ev):

    -8.4105  -7.7350  -7.6320  -7.1934  -6.9408  -6.7683  -6.7207  -6.4510
    -6.2836  -6.0432  -5.9892  -5.7634  -5.7249  -5.6629  -5.4044  -5.3658
    -5.3270  -5.2119  -5.1852  -5.1805  -5.1683  -5.1374  -4.9978  -4.8791
    -4.8441  -4.7226  -4.4003  -3.7992  -2.5481  -2.1392  -0.5517  -0.2264
     0.5414   0.9173

     the Fermi energy is    -3.7816 ev

!    total energy              =    -329.48849540 Ry
     Harris-Foulkes estimate   =    -329.48849538 Ry
     estimated scf accuracy    <          2.2E-10 Ry

     The total energy is the sum of the following terms:

     one-electron contribution =    -609.43827096 Ry
     hartree contribution      =     326.18273663 Ry
     xc contribution           =     -51.41219233 Ry
     ewald contribution        =       5.18045892 Ry
     smearing contrib. (-TS)   =      -0.00122766 Ry

     convergence has been achieved in   9 iterations

     Forces acting on atoms (Ry/au):

     atom    1 type  1   force =    -0.00262397   -0.00313168   -0.00585787
     atom    2 type  1   force =    -0.00046620   -0.00056297   -0.00142038
     atom    3 type  1   force =    -0.00130982    0.00562319    0.00942267
     atom    4 type  1   force =     0.00110749    0.00028253    0.00040137
     atom    5 type  1   force =     0.00329250   -0.00221108   -0.00254580

     Total force =     0.014119     Total SCF correction =     0.000052

     number of scf cycles    =   3
     number of bfgs steps    =   2

     energy   old            =    -329.4881910284 Ry
     energy   new            =    -329.4884954022 Ry

     CASE: energy  _new < energy  _old

     new trust radius        =       0.0232990055 bohr
     new conv_thr            =       0.0000000003 Ry


ATOMIC_POSITIONS (bohr)
Au      -1.874238946   1.547055650  -0.408625687
Au      -0.694794324   3.077332520   4.318092654
Au       3.063233169   1.218836760   0.626355653
Au       4.256253424   3.550052910   5.543290314
Au       7.772865676   1.587558159   2.424132065



     Writing output data file pwscf.save
     Check: negative starting charge=   -0.006409
     NEW-OLD atomic charge density approx. for the potential
     Check: negative starting charge=   -0.006410

     negative rho (up, down):  6.174E-05 0.000E+00

     total cpu time spent up to now is        8.1 secs

     per-process dynamical memory:    50.7 Mb

     Self-consistent Calculation

     iteration #  1     ecut=    30.00 Ry     beta=0.70
     Davidson diagonalization with overlap
     ethr =  1.00E-06,  avg # of iterations =  4.0

     negative rho (up, down):  3.384E-07 0.000E+00

     total cpu time spent up to now is        8.5 secs

     total energy              =    -329.48885079 Ry
     Harris-Foulkes estimate   =    -329.48886690 Ry
     estimated scf accuracy    <       0.00007204 Ry

     iteration #  2     ecut=    30.00 Ry     beta=0.70
     Davidson diagonalization with overlap
     ethr =  1.31E-07,  avg # of iterations =  3.0

     negative rho (up, down):  3.215E-08 0.000E+00

     total cpu time spent up to now is        8.7 secs

     total energy              =    -329.48884704 Ry
     Harris-Foulkes estimate   =    -329.48890245 Ry
     estimated scf accuracy    <       0.00012656 Ry

     iteration #  3     ecut=    30.00 Ry     beta=0.70
     Davidson diagonalization with overlap
     ethr =  1.31E-07,  avg # of iterations =  2.0

     total cpu time spent up to now is        8.9 secs

     total energy              =    -329.48887454 Ry
     Harris-Foulkes estimate   =    -329.48888308 Ry
     estimated scf accuracy    <       0.00002648 Ry

     iteration #  4     ecut=    30.00 Ry     beta=0.70
     Davidson diagonalization with overlap
     ethr =  4.81E-08,  avg # of iterations =  2.0

     total cpu time spent up to now is        9.1 secs

     total energy              =    -329.48887967 Ry
     Harris-Foulkes estimate   =    -329.48887967 Ry
     estimated scf accuracy    <       0.00000144 Ry

     iteration #  5     ecut=    30.00 Ry     beta=0.70
     Davidson diagonalization with overlap
     ethr =  2.62E-09,  avg # of iterations =  3.0

     total cpu time spent up to now is        9.4 secs

     total energy              =    -329.48887996 Ry
     Harris-Foulkes estimate   =    -329.48888030 Ry
     estimated scf accuracy    <       0.00000087 Ry

     iteration #  6     ecut=    30.00 Ry     beta=0.70
     Davidson diagonalization with overlap
     ethr =  1.59E-09,  avg # of iterations =  2.0

     total cpu time spent up to now is        9.6 secs

     total energy              =    -329.48888007 Ry
     Harris-Foulkes estimate   =    -329.48888015 Ry
     estimated scf accuracy    <       0.00000008 Ry

     iteration #  7     ecut=    30.00 Ry     beta=0.70
     Davidson diagonalization with overlap
     ethr =  1.48E-10,  avg # of iterations =  2.0

     total cpu time spent up to now is        9.8 secs

     total energy              =    -329.48888018 Ry
     Harris-Foulkes estimate   =    -329.48888009 Ry
     estimated scf accuracy    <       0.00000001 Ry

     iteration #  8     ecut=    30.00 Ry     beta=0.70
     Davidson diagonalization with overlap
     ethr =  2.47E-11,  avg # of iterations =  2.0

     total cpu time spent up to now is       10.0 secs

     total energy              =    -329.48888014 Ry
     Harris-Foulkes estimate   =    -329.48888018 Ry
     estimated scf accuracy    <          2.0E-09 Ry

     iteration #  9     ecut=    30.00 Ry     beta=0.70
     Davidson diagonalization with overlap
     ethr =  3.57E-12,  avg # of iterations =  3.0

     total cpu time spent up to now is       10.2 secs

     total energy              =    -329.48888014 Ry
     Harris-Foulkes estimate   =    -329.48888014 Ry
     estimated scf accuracy    <          4.1E-10 Ry

     iteration # 10     ecut=    30.00 Ry     beta=0.70
     Davidson diagonalization with overlap
     ethr =  7.40E-13,  avg # of iterations =  2.0

     total cpu time spent up to now is       10.4 secs

     End of self-consistent calculation

          k = 0.0000 0.0000 0.0000 ( 22119 PWs)   bands (ev):

    -8.4166  -7.7363  -7.6290  -7.2026  -6.9312  -6.7693  -6.7055  -6.4494
    -6.2889  -6.0339  -5.9911  -5.7639  -5.7245  -5.6651  -5.4032  -5.3786
    -5.3262  -5.2105  -5.1919  -5.1808  -5.1703  -5.1368  -5.0003  -4.8858
    -4.8444  -4.7251  -4.4097  -3.7978  -2.5485  -2.1453  -0.5527  -0.2224
     0.5380   0.9170

     the Fermi energy is    -3.7783 ev

!    total energy              =    -329.48888013 Ry
     Harris-Foulkes estimate   =    -329.48888014 Ry
     estimated scf accuracy    <          3.3E-11 Ry

     The total energy is the sum of the following terms:

     one-electron contribution =    -609.31957668 Ry
     hartree contribution      =     326.11994345 Ry
     xc contribution           =     -51.40981806 Ry
     ewald contribution        =       5.12216472 Ry
     smearing contrib. (-TS)   =      -0.00159357 Ry

     convergence has been achieved in  10 iterations

     Forces acting on atoms (Ry/au):

     atom    1 type  1   force =    -0.00099850   -0.00296378   -0.00459338
     atom    2 type  1   force =    -0.00052753   -0.00062376   -0.00197498
     atom    3 type  1   force =    -0.00259063    0.00507251    0.00771733
     atom    4 type  1   force =     0.00118569    0.00023233    0.00053979
     atom    5 type  1   force =     0.00293098   -0.00171729   -0.00168875

     Total force =     0.011983     Total SCF correction =     0.000025

     number of scf cycles    =   4
     number of bfgs steps    =   3

     energy   old            =    -329.4884954022 Ry
     energy   new            =    -329.4888801327 Ry

     CASE: energy  _new < energy  _old

     new trust radius        =       0.0349485083 bohr
     new conv_thr            =       0.0000000004 Ry


ATOMIC_POSITIONS (bohr)
Au      -1.882191548   1.536906782  -0.427117356
Au      -0.696280166   3.075536569   4.313413599
Au       3.059263002   1.236936260   0.655987463
Au       4.259814783   3.550841678   5.544648930
Au       7.782712928   1.580614712   2.416312364



     Writing output data file pwscf.save
     Check: negative starting charge=   -0.006410
     NEW-OLD atomic charge density approx. for the potential
     Check: negative starting charge=   -0.006422

     negative rho (up, down):  1.751E-04 0.000E+00

     total cpu time spent up to now is       10.7 secs

     per-process dynamical memory:    50.7 Mb

     Self-consistent Calculation

     iteration #  1     ecut=    30.00 Ry     beta=0.70
     Davidson diagonalization with overlap
     ethr =  1.00E-06,  avg # of iterations =  4.0

     negative rho (up, down):  2.632E-06 0.000E+00

     total cpu time spent up to now is       11.0 secs

     total energy              =    -329.48928171 Ry
     Harris-Foulkes estimate   =    -329.48929933 Ry
     estimated scf accuracy    <       0.00015548 Ry

     iteration #  2     ecut=    30.00 Ry     beta=0.70
     Davidson diagonalization with overlap
     ethr =  2.83E-07,  avg # of iterations =  3.0

     negative rho (up, down):  3.847E-07 0.000E+00

     total cpu time spent up to now is       11.3 secs

     total energy              =    -329.48927603 Ry
     Harris-Foulkes estimate   =    -329.48938988 Ry
     estimated scf accuracy    <       0.00025359 Ry

     iteration #  3     ecut=    30.00 Ry     beta=0.70
     Davidson diagonalization with overlap
     ethr =  2.83E-07,  avg # of iterations =  2.0

     total cpu time spent up to now is       11.5 secs

     total energy              =    -329.48933185 Ry
     Harris-Foulkes estimate   =    -329.48935024 Ry
     estimated scf accuracy    <       0.00005741 Ry

     iteration #  4     ecut=    30.00 Ry     beta=0.70
     Davidson diagonalization with overlap
     ethr =  1.04E-07,  avg # of iterations =  2.0

     total cpu time spent up to now is       11.7 secs

     total energy              =    -329.48934307 Ry
     Harris-Foulkes estimate   =    -329.48934310 Ry
     estimated scf accuracy    <       0.00000302 Ry

     iteration #  5     ecut=    30.00 Ry     beta=0.70
     Davidson diagonalization with overlap
     ethr =  5.48E-09,  avg # of iterations =  3.0

     total cpu time spent up to now is       11.9 secs

     total energy              =    -329.48934378 Ry
     Harris-Foulkes estimate   =    -329.48934429 Ry
     estimated scf accuracy    <       0.00000146 Ry

     iteration #  6     ecut=    30.00 Ry     beta=0.70
     Davidson diagonalization with overlap
     ethr =  2.65E-09,  avg # of iterations =  2.0

     total cpu time spent up to now is       12.1 secs

     total energy              =    -329.48934414 Ry
     Harris-Foulkes estimate   =    -329.48934410 Ry
     estimated scf accuracy    <       0.00000014 Ry

     iteration #  7     ecut=    30.00 Ry     beta=0.70
     Davidson diagonalization with overlap
     ethr =  2.61E-10,  avg # of iterations =  2.0

     total cpu time spent up to now is       12.3 secs

     total energy              =    -329.48934415 Ry
     Harris-Foulkes estimate   =    -329.48934418 Ry
     estimated scf accuracy    <       0.00000003 Ry

     iteration #  8     ecut=    30.00 Ry     beta=0.70
     Davidson diagonalization with overlap
     ethr =  6.16E-11,  avg # of iterations =  2.0

     total cpu time spent up to now is       12.5 secs

     total energy              =    -329.48934418 Ry
     Harris-Foulkes estimate   =    -329.48934415 Ry
     estimated scf accuracy    <          4.2E-09 Ry

     iteration #  9     ecut=    30.00 Ry     beta=0.70
     Davidson diagonalization with overlap
     ethr =  7.59E-12,  avg # of iterations =  2.0

     total cpu time spent up to now is       12.7 secs

     total energy              =    -329.48934420 Ry
     Harris-Foulkes estimate   =    -329.48934418 Ry
     estimated scf accuracy    <          6.3E-10 Ry

     iteration # 10     ecut=    30.00 Ry     beta=0.70
     Davidson diagonalization with overlap
     ethr =  1.14E-12,  avg # of iterations =  2.0

     total cpu time spent up to now is       12.9 secs

     End of self-consistent calculation

          k = 0.0000 0.0000 0.0000 ( 22119 PWs)   bands (ev):

    -8.4272  -7.7403  -7.6278  -7.2156  -6.9167  -6.7724  -6.6847  -6.4500
    -6.2959  -6.0251  -5.9919  -5.7643  -5.7239  -5.6688  -5.4013  -5.3970
    -5.3248  -5.2114  -5.2005  -5.1808  -5.1724  -5.1351  -5.0038  -4.8956
    -4.8436  -4.7287  -4.4238  -3.7953  -2.5485  -2.1542  -0.5545  -0.2162
     0.5336   0.9163

     the Fermi energy is    -3.7730 ev

!    total energy              =    -329.48934420 Ry
     Harris-Foulkes estimate   =    -329.48934420 Ry
     estimated scf accuracy    <          6.6E-11 Ry

     The total energy is the sum of the following terms:

     one-electron contribution =    -609.21511201 Ry
     hartree contribution      =     326.06207288 Ry
     xc contribution           =     -51.40671541 Ry
     ewald contribution        =       5.07256399 Ry
     smearing contrib. (-TS)   =      -0.00215365 Ry

     convergence has been achieved in  10 iterations

     Forces acting on atoms (Ry/au):

     atom    1 type  1   force =     0.00084827   -0.00286244   -0.00320324
     atom    2 type  1   force =    -0.00059851   -0.00066189   -0.00257549
     atom    3 type  1   force =    -0.00355023    0.00461095    0.00585339
     atom    4 type  1   force =     0.00121923    0.00011584    0.00069466
     atom    5 type  1   force =     0.00208124   -0.00120246   -0.00076932

     Total force =     0.010153     Total SCF correction =     0.000040

     number of scf cycles    =   5
     number of bfgs steps    =   4

     energy   old            =    -329.4888801327 Ry
     energy   new            =    -329.4893442005 Ry

     CASE: energy  _new < energy  _old

     new trust radius        =       0.0524227625 bohr
     new conv_thr            =       0.0000000005 Ry


ATOMIC_POSITIONS (bohr)
Au      -1.891477527   1.520972078  -0.453958422
Au      -0.698764366   3.072619424   4.304905764
Au       3.051271248   1.264842824   0.699639514
Au       4.265526759   3.551875801   5.547087364
Au       7.796762886   1.570525873   2.405570780



     Writing output data file pwscf.save
     Check: negative starting charge=   -0.006422
     NEW-OLD atomic charge density approx. for the potential
     Check: negative starting charge=   -0.006452

     negative rho (up, down):  4.128E-04 0.000E+00

     total cpu time spent up to now is       13.2 secs

     per-process dynamical memory:    50.7 Mb

     Self-consistent Calculation

     iteration #  1     ecut=    30.00 Ry     beta=0.70
     Davidson diagonalization with overlap
     ethr =  1.00E-06,  avg # of iterations =  5.0

     negative rho (up, down):  1.358E-05 0.000E+00

     total cpu time spent up to now is       13.5 secs

     total energy              =    -329.48973469 Ry
     Harris-Foulkes estimate   =    -329.48967469 Ry
     estimated scf accuracy    <       0.00033437 Ry

     iteration #  2     ecut=    30.00 Ry     beta=0.70
     Davidson diagonalization with overlap
     ethr =  6.08E-07,  avg # of iterations =  4.0

     negative rho (up, down):  2.757E-06 0.000E+00

     total cpu time spent up to now is       13.8 secs

     total energy              =    -329.48973059 Ry
     Harris-Foulkes estimate   =    -329.48996280 Ry
     estimated scf accuracy    <       0.00051314 Ry

     iteration #  3     ecut=    30.00 Ry     beta=0.70
     Davidson diagonalization with overlap
     ethr =  6.08E-07,  avg # of iterations =  2.0

     negative rho (up, down):  5.707E-08 0.000E+00

     total cpu time spent up to now is       14.0 secs

     total energy              =    -329.48984240 Ry
     Harris-Foulkes estimate   =    -329.48988323 Ry
     estimated scf accuracy    <       0.00012111 Ry

     iteration #  4     ecut=    30.00 Ry     beta=0.70
     Davidson diagonalization with overlap
     ethr =  2.20E-07,  avg # of iterations =  2.0

     total cpu time spent up to now is       14.2 secs

     total energy              =    -329.48986613 Ry
     Harris-Foulkes estimate   =    -329.48986649 Ry
     estimated scf accuracy    <       0.00000643 Ry

     iteration #  5     ecut=    30.00 Ry     beta=0.70
     Davidson diagonalization with overlap
     ethr =  1.17E-08,  avg # of iterations =  3.0

     total cpu time spent up to now is       14.4 secs

     total energy              =    -329.48986765 Ry
     Harris-Foulkes estimate   =    -329.48986861 Ry
     estimated scf accuracy    <       0.00000248 Ry

     iteration #  6     ecut=    30.00 Ry     beta=0.70
     Davidson diagonalization with overlap
     ethr =  4.52E-09,  avg # of iterations =  2.0

     total cpu time spent up to now is       14.6 secs

     total energy              =    -329.48986822 Ry
     Harris-Foulkes estimate   =    -329.48986821 Ry
     estimated scf accuracy    <       0.00000025 Ry

     iteration #  7     ecut=    30.00 Ry     beta=0.70
     Davidson diagonalization with overlap
     ethr =  4.58E-10,  avg # of iterations =  2.0

     total cpu time spent up to now is       14.8 secs

     total energy              =    -329.48986823 Ry
     Harris-Foulkes estimate   =    -329.48986828 Ry
     estimated scf accuracy    <       0.00000006 Ry

     iteration #  8     ecut=    30.00 Ry     beta=0.70
     Davidson diagonalization with overlap
     ethr =  1.04E-10,  avg # of iterations =  2.0

     total cpu time spent up to now is       15.0 secs

     total energy              =    -329.48986824 Ry
     Harris-Foulkes estimate   =    -329.48986825 Ry
     estimated scf accuracy    <       0.00000001 Ry

     iteration #  9     ecut=    30.00 Ry     beta=0.70
     Davidson diagonalization with overlap
     ethr =  2.40E-11,  avg # of iterations =  2.0

     total cpu time spent up to now is       15.2 secs

     total energy              =    -329.48986826 Ry
     Harris-Foulkes estimate   =    -329.48986824 Ry
     estimated scf accuracy    <          1.5E-09 Ry

     iteration # 10     ecut=    30.00 Ry     beta=0.70
     Davidson diagonalization with overlap
     ethr =  2.64E-12,  avg # of iterations =  3.0

     total cpu time spent up to now is       15.5 secs

     End of self-consistent calculation

          k = 0.0000 0.0000 0.0000 ( 22119 PWs)   bands (ev):

    -8.4448  -7.7492  -7.6337  -7.2317  -6.8950  -6.7782  -6.6573  -6.4573
    -6.3029  -6.0287  -5.9814  -5.7644  -5.7227  -5.6746  -5.4253  -5.3945
    -5.3224  -5.2235  -5.2049  -5.1815  -5.1724  -5.1311  -5.0081  -4.9096
    -4.8392  -4.7335  -4.4441  -3.7912  -2.5471  -2.1670  -0.5573  -0.2063
     0.5280   0.9149

     the Fermi energy is    -3.7651 ev

!    total energy              =    -329.48986825 Ry
     Harris-Foulkes estimate   =    -329.48986826 Ry
     estimated scf accuracy    <          2.0E-10 Ry

     The total energy is the sum of the following terms:

     one-electron contribution =    -609.18119815 Ry
     hartree contribution      =     326.03667006 Ry
     xc contribution           =     -51.40310646 Ry
     ewald contribution        =       5.06072051 Ry
     smearing contrib. (-TS)   =      -0.00295420 Ry

     convergence has been achieved in  10 iterations

     Forces acting on atoms (Ry/au):

     atom    1 type  1   force =     0.00290440   -0.00283277   -0.00163778
     atom    2 type  1   force =    -0.00077055   -0.00053840   -0.00318383
     atom    3 type  1   force =    -0.00404254    0.00400300    0.00382563
     atom    4 type  1   force =     0.00122956    0.00005189    0.00094030
     atom    5 type  1   force =     0.00067912   -0.00068371    0.00005568

     Total force =     0.008972     Total SCF correction =     0.000073

     number of scf cycles    =   6
     number of bfgs steps    =   5

     energy   old            =    -329.4893442005 Ry
     energy   new            =    -329.4898682491 Ry

     CASE: energy  _new < energy  _old

     new trust radius        =       0.0786341437 bohr
     new conv_thr            =       0.0000000004 Ry


ATOMIC_POSITIONS (bohr)
Au      -1.901275883   1.495779506  -0.492810670
Au      -0.703085012   3.068220901   4.289912927
Au       3.037163217   1.307713415   0.764032095
Au       4.274634496   3.553339745   5.551523202
Au       7.815882182   1.555782434   2.390587446



     Writing output data file pwscf.save
     Check: negative starting charge=   -0.006452
     NEW-OLD atomic charge density approx. for the potential
     Check: negative starting charge=   -0.006511

     negative rho (up, down):  8.636E-04 0.000E+00

     total cpu time spent up to now is       15.7 secs

     per-process dynamical memory:    50.7 Mb

     Self-consistent Calculation

     iteration #  1     ecut=    30.00 Ry     beta=0.70
     Davidson diagonalization with overlap
     ethr =  1.00E-06,  avg # of iterations =  9.0

     negative rho (up, down):  4.990E-05 0.000E+00

     total cpu time spent up to now is       16.1 secs

     total energy              =    -329.49004227 Ry
     Harris-Foulkes estimate   =    -329.48971794 Ry
     estimated scf accuracy    <       0.00070908 Ry

     iteration #  2     ecut=    30.00 Ry     beta=0.70
     Davidson diagonalization with overlap
     ethr =  1.29E-06,  avg # of iterations =  7.0

     negative rho (up, down):  1.402E-05 0.000E+00

     total cpu time spent up to now is       16.4 secs

     total energy              =    -329.49004122 Ry
     Harris-Foulkes estimate   =    -329.49051405 Ry
     estimated scf accuracy    <       0.00103857 Ry

     iteration #  3     ecut=    30.00 Ry     beta=0.70
     Davidson diagonalization with overlap
     ethr =  1.29E-06,  avg # of iterations =  2.0

     negative rho (up, down):  6.849E-07 0.000E+00

     total cpu time spent up to now is       16.6 secs

     total energy              =    -329.49026890 Ry
     Harris-Foulkes estimate   =    -329.49035536 Ry
     estimated scf accuracy    <       0.00025607 Ry

     iteration #  4     ecut=    30.00 Ry     beta=0.70
     Davidson diagonalization with overlap
     ethr =  4.66E-07,  avg # of iterations =  2.0

     total cpu time spent up to now is       16.8 secs

     total energy              =    -329.49031794 Ry
     Harris-Foulkes estimate   =    -329.49032069 Ry
     estimated scf accuracy    <       0.00001473 Ry

     iteration #  5     ecut=    30.00 Ry     beta=0.70
     Davidson diagonalization with overlap
     ethr =  2.68E-08,  avg # of iterations =  3.0

     total cpu time spent up to now is       17.0 secs

     total energy              =    -329.49032139 Ry
     Harris-Foulkes estimate   =    -329.49032362 Ry
     estimated scf accuracy    <       0.00000588 Ry

     iteration #  6     ecut=    30.00 Ry     beta=0.70
     Davidson diagonalization with overlap
     ethr =  1.07E-08,  avg # of iterations =  2.0

     total cpu time spent up to now is       17.2 secs

     total energy              =    -329.49032251 Ry
     Harris-Foulkes estimate   =    -329.49032265 Ry
     estimated scf accuracy    <       0.00000039 Ry

     iteration #  7     ecut=    30.00 Ry     beta=0.70
     Davidson diagonalization with overlap
     ethr =  7.04E-10,  avg # of iterations =  2.0

     total cpu time spent up to now is       17.4 secs

     total energy              =    -329.49032275 Ry
     Harris-Foulkes estimate   =    -329.49032261 Ry
     estimated scf accuracy    <       0.00000007 Ry

     iteration #  8     ecut=    30.00 Ry     beta=0.70
     Davidson diagonalization with overlap
     ethr =  1.20E-10,  avg # of iterations =  2.0

     total cpu time spent up to now is       17.6 secs

     total energy              =    -329.49032282 Ry
     Harris-Foulkes estimate   =    -329.49032277 Ry
     estimated scf accuracy    <       0.00000003 Ry

     iteration #  9     ecut=    30.00 Ry     beta=0.70
     Davidson diagonalization with overlap
     ethr =  6.20E-11,  avg # of iterations =  2.0

     total cpu time spent up to now is       17.8 secs

     total energy              =    -329.49032280 Ry
     Harris-Foulkes estimate   =    -329.49032283 Ry
     estimated scf accuracy    <          4.9E-09 Ry

     iteration # 10     ecut=    30.00 Ry     beta=0.70
     Davidson diagonalization with overlap
     ethr =  8.93E-12,  avg # of iterations =  2.0

     total cpu time spent up to now is       18.0 secs

     End of self-consistent calculation

          k = 0.0000 0.0000 0.0000 ( 22119 PWs)   bands (ev):

    -8.4733  -7.7671  -7.6590  -7.2449  -6.8621  -6.7866  -6.6233  -6.4812
    -6.3051  -6.0519  -5.9548  -5.7645  -5.7192  -5.6821  -5.4605  -5.3823
    -5.3184  -5.2470  -5.2060  -5.1834  -5.1685  -5.1235  -5.0127  -4.9283
    -4.8249  -4.7397  -4.4721  -3.7851  -2.5419  -2.1852  -0.5617  -0.1906
     0.5217   0.9124

     the Fermi energy is    -3.7542 ev

!    total energy              =    -329.49032283 Ry
     Harris-Foulkes estimate   =    -329.49032280 Ry
     estimated scf accuracy    <          3.2E-10 Ry

     The total energy is the sum of the following terms:

     one-electron contribution =    -609.31497493 Ry
     hartree contribution      =     326.09255058 Ry
     xc contribution           =     -51.39988196 Ry
     ewald contribution        =       5.13596005 Ry
     smearing contrib. (-TS)   =      -0.00397657 Ry

     convergence has been achieved in  10 iterations

     Forces acting on atoms (Ry/au):

     atom    1 type  1   force =     0.00511460   -0.00265027    0.00084483
     atom    2 type  1   force =    -0.00137037    0.00007433   -0.00336137
     atom    3 type  1   force =    -0.00377018    0.00229615   -0.00007681
     atom    4 type  1   force =     0.00131510    0.00035067    0.00172929
     atom    5 type  1   force =    -0.00128915   -0.00007088    0.00086407

     Total force =     0.008592     Total SCF correction =     0.000096

     number of scf cycles    =   7
     number of bfgs steps    =   6

     energy   old            =    -329.4898682491 Ry
     energy   new            =    -329.4903228304 Ry

     CASE: energy  _new < energy  _old

     new trust radius        =       0.0307494234 bohr
     new conv_thr            =       0.0000000005 Ry


ATOMIC_POSITIONS (bohr)
Au      -1.900120786   1.483697403  -0.506394570
Au      -0.706209635   3.066907405   4.281295729
Au       3.029186958   1.325758506   0.787617705
Au       4.279311649   3.554341529   5.555081816
Au       7.821150814   1.550131157   2.385644320



     Writing output data file pwscf.save
     Check: negative starting charge=   -0.006511
     NEW-OLD atomic charge density approx. for the potential
     Check: negative starting charge=   -0.006532

     negative rho (up, down):  1.242E-04 0.000E+00

     total cpu time spent up to now is       18.2 secs

     per-process dynamical memory:    50.7 Mb

     Self-consistent Calculation

     iteration #  1     ecut=    30.00 Ry     beta=0.70
     Davidson diagonalization with overlap
     ethr =  1.00E-06,  avg # of iterations =  4.0

     negative rho (up, down):  1.306E-06 0.000E+00

     total cpu time spent up to now is       18.6 secs

     total energy              =    -329.49036042 Ry
     Harris-Foulkes estimate   =    -329.49036976 Ry
     estimated scf accuracy    <       0.00010179 Ry

     iteration #  2     ecut=    30.00 Ry     beta=0.70
     Davidson diagonalization with overlap
     ethr =  1.85E-07,  avg # of iterations =  3.0

     negative rho (up, down):  6.990E-08 0.000E+00

     total cpu time spent up to now is       18.8 secs

     total energy              =    -329.49036723 Ry
     Harris-Foulkes estimate   =    -329.49041904 Ry
     estimated scf accuracy    <       0.00010775 Ry

     iteration #  3     ecut=    30.00 Ry     beta=0.70
     Davidson diagonalization with overlap
     ethr =  1.85E-07,  avg # of iterations =  2.0

     total cpu time spent up to now is       19.1 secs

     total energy              =    -329.49039007 Ry
     Harris-Foulkes estimate   =    -329.49040310 Ry
     estimated scf accuracy    <       0.00003572 Ry

     iteration #  4     ecut=    30.00 Ry     beta=0.70
     Davidson diagonalization with overlap
     ethr =  6.49E-08,  avg # of iterations =  2.0

     total cpu time spent up to now is       19.3 secs

     total energy              =    -329.49039742 Ry
     Harris-Foulkes estimate   =    -329.49039792 Ry
     estimated scf accuracy    <       0.00000275 Ry

     iteration #  5     ecut=    30.00 Ry     beta=0.70
     Davidson diagonalization with overlap
     ethr =  5.00E-09,  avg # of iterations =  3.0

     total cpu time spent up to now is       19.5 secs

     total energy              =    -329.49039829 Ry
     Harris-Foulkes estimate   =    -329.49039826 Ry
     estimated scf accuracy    <       0.00000069 Ry

     iteration #  6     ecut=    30.00 Ry     beta=0.70
     Davidson diagonalization with overlap
     ethr =  1.25E-09,  avg # of iterations =  2.0

     total cpu time spent up to now is       19.7 secs

     total energy              =    -329.49039840 Ry
     Harris-Foulkes estimate   =    -329.49039844 Ry
     estimated scf accuracy    <       0.00000005 Ry

     iteration #  7     ecut=    30.00 Ry     beta=0.70
     Davidson diagonalization with overlap
     ethr =  8.57E-11,  avg # of iterations =  3.0

     total cpu time spent up to now is       19.9 secs

     total energy              =    -329.49039844 Ry
     Harris-Foulkes estimate   =    -329.49039841 Ry
     estimated scf accuracy    <          6.7E-09 Ry

     iteration #  8     ecut=    30.00 Ry     beta=0.70
     Davidson diagonalization with overlap
     ethr =  1.21E-11,  avg # of iterations =  2.0

     total cpu time spent up to now is       20.1 secs

     total energy              =    -329.49039839 Ry
     Harris-Foulkes estimate   =    -329.49039844 Ry
     estimated scf accuracy    <          1.9E-09 Ry

     iteration #  9     ecut=    30.00 Ry     beta=0.70
     Davidson diagonalization with overlap
     ethr =  3.55E-12,  avg # of iterations =  2.0

     total cpu time spent up to now is       20.4 secs

     total energy              =    -329.49039838 Ry
     Harris-Foulkes estimate   =    -329.49039839 Ry
     estimated scf accuracy    <          1.1E-09 Ry

     iteration # 10     ecut=    30.00 Ry     beta=0.70
     Davidson diagonalization with overlap
     ethr =  1.93E-12,  avg # of iterations =  2.0

     total cpu time spent up to now is       20.5 secs

     End of self-consistent calculation

          k = 0.0000 0.0000 0.0000 ( 22119 PWs)   bands (ev):

    -8.4883  -7.7782  -7.6720  -7.2461  -6.8509  -6.7904  -6.6153  -6.4941
    -6.3028  -6.0645  -5.9464  -5.7655  -5.7190  -5.6847  -5.4720  -5.3762
    -5.3163  -5.2559  -5.2053  -5.1833  -5.1680  -5.1208  -5.0128  -4.9351
    -4.8182  -4.7402  -4.4820  -3.7818  -2.5371  -2.1922  -0.5636  -0.1843
     0.5206   0.9109

     the Fermi energy is    -3.7492 ev

!    total energy              =    -329.49039841 Ry
     Harris-Foulkes estimate   =    -329.49039838 Ry
     estimated scf accuracy    <          6.7E-11 Ry

     The total energy is the sum of the following terms:

     one-electron contribution =    -609.51790559 Ry
     hartree contribution      =     326.18969958 Ry
     xc contribution           =     -51.39965418 Ry
     ewald contribution        =       5.24179921 Ry
     smearing contrib. (-TS)   =      -0.00433743 Ry

     convergence has been achieved in  10 iterations

     Forces acting on atoms (Ry/au):

     atom    1 type  1   force =     0.00510262   -0.00231837    0.00164697
     atom    2 type  1   force =    -0.00143565    0.00069131   -0.00270143
     atom    3 type  1   force =    -0.00288078    0.00069388   -0.00233008
     atom    4 type  1   force =     0.00119485    0.00067131    0.00217001
     atom    5 type  1   force =    -0.00198104    0.00026188    0.00121454

     Total force =     0.008380     Total SCF correction =     0.000039

     number of scf cycles    =   8
     number of bfgs steps    =   7

     energy   old            =    -329.4903228304 Ry
     energy   new            =    -329.4903984086 Ry

     CASE: energy  _new < energy  _old

     new trust radius        =       0.0094373703 bohr
     new conv_thr            =            1.0E-10 Ry


ATOMIC_POSITIONS (bohr)
Au      -1.892503106   1.478126521  -0.506380939
Au      -0.708899359   3.067674760   4.275871332
Au       3.024201674   1.330179920   0.788526744
Au       4.281835223   3.555411221   5.558823159
Au       7.818684568   1.549443578   2.386404703



     Writing output data file pwscf.save
     Check: negative starting charge=   -0.006532
     NEW-OLD atomic charge density approx. for the potential
     Check: negative starting charge=   -0.006533

     negative rho (up, down):  3.309E-06 0.000E+00

     total cpu time spent up to now is       20.8 secs

     per-process dynamical memory:    50.7 Mb

     Self-consistent Calculation

     iteration #  1     ecut=    30.00 Ry     beta=0.70
     Davidson diagonalization with overlap
     ethr =  1.00E-06,  avg # of iterations =  3.0

     Threshold (ethr) on eigenvalues was too large:
     Diagonalizing with lowered threshold

     Davidson diagonalization with overlap
     ethr =  2.38E-08,  avg # of iterations =  2.0

     total cpu time spent up to now is       21.2 secs

     total energy              =    -329.49048317 Ry
     Harris-Foulkes estimate   =    -329.49048602 Ry
     estimated scf accuracy    <       0.00001375 Ry

     iteration #  2     ecut=    30.00 Ry     beta=0.70
     Davidson diagonalization with overlap
     ethr =  2.50E-08,  avg # of iterations =  3.0

     total cpu time spent up to now is       21.5 secs

     total energy              =    -329.49048253 Ry
     Harris-Foulkes estimate   =    -329.49049316 Ry
     estimated scf accuracy    <       0.00002415 Ry

     iteration #  3     ecut=    30.00 Ry     beta=0.70
     Davidson diagonalization with overlap
     ethr =  2.50E-08,  avg # of iterations =  2.0

     total cpu time spent up to now is       21.7 secs

     total energy              =    -329.49048730 Ry
     Harris-Foulkes estimate   =    -329.49048899 Ry
     estimated scf accuracy    <       0.00000419 Ry

     iteration #  4     ecut=    30.00 Ry     beta=0.70
     Davidson diagonalization with overlap
     ethr =  7.62E-09,  avg # of iterations =  2.0

     total cpu time spent up to now is       21.9 secs

     total energy              =    -329.49048825 Ry
     Harris-Foulkes estimate   =    -329.49048827 Ry
     estimated scf accuracy    <       0.00000037 Ry

     iteration #  5     ecut=    30.00 Ry     beta=0.70
     Davidson diagonalization with overlap
     ethr =  6.65E-10,  avg # of iterations =  2.0

     total cpu time spent up to now is       22.1 secs

     total energy              =    -329.49048837 Ry
     Harris-Foulkes estimate   =    -329.49048835 Ry
     estimated scf accuracy    <       0.00000005 Ry

     iteration #  6     ecut=    30.00 Ry     beta=0.70
     Davidson diagonalization with overlap
     ethr =  9.54E-11,  avg # of iterations =  2.0

     total cpu time spent up to now is       22.3 secs

     total energy              =    -329.49048838 Ry
     Harris-Foulkes estimate   =    -329.49048839 Ry
     estimated scf accuracy    <          9.1E-09 Ry

     iteration #  7     ecut=    30.00 Ry     beta=0.70
     Davidson diagonalization with overlap
     ethr =  1.66E-11,  avg # of iterations =  2.0

     total cpu time spent up to now is       22.5 secs

     total energy              =    -329.49048841 Ry
     Harris-Foulkes estimate   =    -329.49048839 Ry
     estimated scf accuracy    <          1.9E-09 Ry

     iteration #  8     ecut=    30.00 Ry     beta=0.70
     Davidson diagonalization with overlap
     ethr =  3.42E-12,  avg # of iterations =  2.0

     total cpu time spent up to now is       22.8 secs

     total energy              =    -329.49048841 Ry
     Harris-Foulkes estimate   =    -329.49048841 Ry
     estimated scf accuracy    <          5.6E-10 Ry

     iteration #  9     ecut=    30.00 Ry     beta=0.70
     Davidson diagonalization with overlap
     ethr =  1.02E-12,  avg # of iterations =  2.0

     total cpu time spent up to now is       23.0 secs

     End of self-consistent calculation

          k = 0.0000 0.0000 0.0000 ( 22119 PWs)   bands (ev):

    -8.4970  -7.7852  -7.6705  -7.2459  -6.8511  -6.7947  -6.6200  -6.4957
    -6.3008  -6.0694  -5.9500  -5.7667  -5.7221  -5.6859  -5.4731  -5.3746
    -5.3151  -5.2569  -5.2043  -5.1825  -5.1700  -5.1207  -5.0106  -4.9364
    -4.8200  -4.7372  -4.4834  -3.7794  -2.5330  -2.1939  -0.5642  -0.1835
     0.5218   0.9096

     the Fermi energy is    -3.7464 ev

!    total energy              =    -329.49048841 Ry
     Harris-Foulkes estimate   =    -329.49048841 Ry
     estimated scf accuracy    <          8.4E-11 Ry

     The total energy is the sum of the following terms:

     one-electron contribution =    -609.73675951 Ry
     hartree contribution      =     326.29727105 Ry
     xc contribution           =     -51.40045177 Ry
     ewald contribution        =       5.35388780 Ry
     smearing contrib. (-TS)   =      -0.00443598 Ry

     convergence has been achieved in   9 iterations

     Forces acting on atoms (Ry/au):

     atom    1 type  1   force =     0.00356501   -0.00246284    0.00083774
     atom    2 type  1   force =    -0.00097005    0.00102354   -0.00190207
     atom    3 type  1   force =    -0.00114252    0.00049523   -0.00209872
     atom    4 type  1   force =     0.00069066    0.00065567    0.00195629
     atom    5 type  1   force =    -0.00214310    0.00028840    0.00120675

     Total force =     0.006473     Total SCF correction =     0.000032

     number of scf cycles    =   9
     number of bfgs steps    =   8

     energy   old            =    -329.4903984086 Ry
     energy   new            =    -329.4904884143 Ry

     CASE: energy  _new < energy  _old

     new trust radius        =       0.0103811073 bohr
     new conv_thr            =            1.0E-10 Ry


ATOMIC_POSITIONS (bohr)
Au      -1.884181056   1.471970505  -0.505597145
Au      -0.711516440   3.069262290   4.270570187
Au       3.020393995   1.333583477   0.786991107
Au       4.284009984   3.556700421   5.563131554
Au       7.814612517   1.549319307   2.388149298



     Writing output data file pwscf.save
     Check: negative starting charge=   -0.006533
     NEW-OLD atomic charge density approx. for the potential
     Check: negative starting charge=   -0.006531

     negative rho (up, down):  3.964E-06 0.000E+00

     total cpu time spent up to now is       23.4 secs

     per-process dynamical memory:    50.7 Mb

     Self-consistent Calculation

     iteration #  1     ecut=    30.00 Ry     beta=0.70
     Davidson diagonalization with overlap
     ethr =  1.00E-06,  avg # of iterations =  3.0

     Threshold (ethr) on eigenvalues was too large:
     Diagonalizing with lowered threshold

     Davidson diagonalization with overlap
     ethr =  2.73E-08,  avg # of iterations =  2.0

     total cpu time spent up to now is       23.8 secs

     total energy              =    -329.49055932 Ry
     Harris-Foulkes estimate   =    -329.49056271 Ry
     estimated scf accuracy    <       0.00001591 Ry

     iteration #  2     ecut=    30.00 Ry     beta=0.70
     Davidson diagonalization with overlap
     ethr =  2.89E-08,  avg # of iterations =  3.0

     total cpu time spent up to now is       24.1 secs

     total energy              =    -329.49055828 Ry
     Harris-Foulkes estimate   =    -329.49057121 Ry
     estimated scf accuracy    <       0.00002892 Ry

     iteration #  3     ecut=    30.00 Ry     beta=0.70
     Davidson diagonalization with overlap
     ethr =  2.89E-08,  avg # of iterations =  2.0

     total cpu time spent up to now is       24.3 secs

     total energy              =    -329.49056400 Ry
     Harris-Foulkes estimate   =    -329.49056583 Ry
     estimated scf accuracy    <       0.00000459 Ry

     iteration #  4     ecut=    30.00 Ry     beta=0.70
     Davidson diagonalization with overlap
     ethr =  8.34E-09,  avg # of iterations =  2.0

     total cpu time spent up to now is       24.5 secs

     total energy              =    -329.49056482 Ry
     Harris-Foulkes estimate   =    -329.49056510 Ry
     estimated scf accuracy    <       0.00000048 Ry

     iteration #  5     ecut=    30.00 Ry     beta=0.70
     Davidson diagonalization with overlap
     ethr =  8.65E-10,  avg # of iterations =  2.0

     total cpu time spent up to now is       24.7 secs

     total energy              =    -329.49056497 Ry
     Harris-Foulkes estimate   =    -329.49056494 Ry
     estimated scf accuracy    <       0.00000008 Ry

     iteration #  6     ecut=    30.00 Ry     beta=0.70
     Davidson diagonalization with overlap
     ethr =  1.47E-10,  avg # of iterations =  2.0

     total cpu time spent up to now is       24.9 secs

     total energy              =    -329.49056501 Ry
     Harris-Foulkes estimate   =    -329.49056499 Ry
     estimated scf accuracy    <          9.9E-09 Ry

     iteration #  7     ecut=    30.00 Ry     beta=0.70
     Davidson diagonalization with overlap
     ethr =  1.80E-11,  avg # of iterations =  2.0

     total cpu time spent up to now is       25.1 secs

     total energy              =    -329.49056504 Ry
     Harris-Foulkes estimate   =    -329.49056501 Ry
     estimated scf accuracy    <          1.9E-09 Ry

     iteration #  8     ecut=    30.00 Ry     beta=0.70
     Davidson diagonalization with overlap
     ethr =  3.46E-12,  avg # of iterations =  2.0

     total cpu time spent up to now is       25.4 secs

     total energy              =    -329.49056505 Ry
     Harris-Foulkes estimate   =    -329.49056504 Ry
     estimated scf accuracy    <          7.9E-10 Ry

     iteration #  9     ecut=    30.00 Ry     beta=0.70
     Davidson diagonalization with overlap
     ethr =  1.43E-12,  avg # of iterations =  2.0

     total cpu time spent up to now is       25.6 secs

     End of self-consistent calculation

          k = 0.0000 0.0000 0.0000 ( 22119 PWs)   bands (ev):

    -8.5053  -7.7915  -7.6671  -7.2453  -6.8526  -6.7994  -6.6255  -6.4959
    -6.2986  -6.0735  -5.9547  -5.7680  -5.7255  -5.6871  -5.4728  -5.3734
    -5.3140  -5.2571  -5.2033  -5.1819  -5.1719  -5.1209  -5.0080  -4.9372
    -4.8229  -4.7337  -4.4838  -3.7773  -2.5286  -2.1953  -0.5646  -0.1835
     0.5230   0.9083

     the Fermi energy is    -3.7440 ev

!    total energy              =    -329.49056507 Ry
     Harris-Foulkes estimate   =    -329.49056505 Ry
     estimated scf accuracy    <          6.6E-11 Ry

     The total energy is the sum of the following terms:

     one-electron contribution =    -609.94089255 Ry
     hartree contribution      =     326.39781211 Ry
     xc contribution           =     -51.40134592 Ry
     ewald contribution        =       5.45836268 Ry
     smearing contrib. (-TS)   =      -0.00450138 Ry

     convergence has been achieved in   9 iterations

     Forces acting on atoms (Ry/au):

     atom    1 type  1   force =     0.00196817   -0.00263065   -0.00004921
     atom    2 type  1   force =    -0.00045949    0.00127161   -0.00118358
     atom    3 type  1   force =     0.00044458    0.00045101   -0.00164230
     atom    4 type  1   force =     0.00010961    0.00062133    0.00166909
     atom    5 type  1   force =    -0.00206288    0.00028671    0.00120599

     Total force =     0.005109     Total SCF correction =     0.000028

     number of scf cycles    =  10
     number of bfgs steps    =   9

     energy   old            =    -329.4904884143 Ry
     energy   new            =    -329.4905650656 Ry

     CASE: energy  _new < energy  _old

     new trust radius        =       0.0155716609 bohr
     new conv_thr            =            1.0E-10 Ry


ATOMIC_POSITIONS (bohr)
Au      -1.872824459   1.461317263  -0.505710107
Au      -0.715013325   3.072421631   4.262867580
Au       3.016494187   1.339036587   0.784896745
Au       4.286653962   3.558863766   5.569947822
Au       7.808008634   1.549196753   2.391242959



     Writing output data file pwscf.save
     Check: negative starting charge=   -0.006531
     NEW-OLD atomic charge density approx. for the potential
     Check: negative starting charge=   -0.006528

     negative rho (up, down):  2.162E-05 0.000E+00

     total cpu time spent up to now is       25.8 secs

     per-process dynamical memory:    50.7 Mb

     Self-consistent Calculation

     iteration #  1     ecut=    30.00 Ry     beta=0.70
     Davidson diagonalization with overlap
     ethr =  1.00E-06,  avg # of iterations =  4.0

     Threshold (ethr) on eigenvalues was too large:
     Diagonalizing with lowered threshold

     Davidson diagonalization with overlap
     ethr =  6.46E-08,  avg # of iterations =  1.0

     negative rho (up, down):  4.113E-08 0.000E+00

     total cpu time spent up to now is       26.3 secs

     total energy              =    -329.49062922 Ry
     Harris-Foulkes estimate   =    -329.49063779 Ry
     estimated scf accuracy    <       0.00003578 Ry

     iteration #  2     ecut=    30.00 Ry     beta=0.70
     Davidson diagonalization with overlap
     ethr =  6.51E-08,  avg # of iterations =  3.0

     total cpu time spent up to now is       26.5 secs

     total energy              =    -329.49063013 Ry
     Harris-Foulkes estimate   =    -329.49065284 Ry
     estimated scf accuracy    <       0.00005044 Ry

     iteration #  3     ecut=    30.00 Ry     beta=0.70
     Davidson diagonalization with overlap
     ethr =  6.51E-08,  avg # of iterations =  2.0

     total cpu time spent up to now is       26.7 secs

     total energy              =    -329.49064022 Ry
     Harris-Foulkes estimate   =    -329.49064426 Ry
     estimated scf accuracy    <       0.00001029 Ry

     iteration #  4     ecut=    30.00 Ry     beta=0.70
     Davidson diagonalization with overlap
     ethr =  1.87E-08,  avg # of iterations =  2.0

     total cpu time spent up to now is       26.9 secs

     total energy              =    -329.49064221 Ry
     Harris-Foulkes estimate   =    -329.49064282 Ry
     estimated scf accuracy    <       0.00000130 Ry

     iteration #  5     ecut=    30.00 Ry     beta=0.70
     Davidson diagonalization with overlap
     ethr =  2.37E-09,  avg # of iterations =  2.0

     total cpu time spent up to now is       27.1 secs

     total energy              =    -329.49064250 Ry
     Harris-Foulkes estimate   =    -329.49064253 Ry
     estimated scf accuracy    <       0.00000017 Ry

     iteration #  6     ecut=    30.00 Ry     beta=0.70
     Davidson diagonalization with overlap
     ethr =  3.17E-10,  avg # of iterations =  2.0

     total cpu time spent up to now is       27.3 secs

     total energy              =    -329.49064264 Ry
     Harris-Foulkes estimate   =    -329.49064255 Ry
     estimated scf accuracy    <       0.00000002 Ry

     iteration #  7     ecut=    30.00 Ry     beta=0.70
     Davidson diagonalization with overlap
     ethr =  3.33E-11,  avg # of iterations =  3.0

     total cpu time spent up to now is       27.6 secs

     total energy              =    -329.49064270 Ry
     Harris-Foulkes estimate   =    -329.49064265 Ry
     estimated scf accuracy    <          3.8E-09 Ry

     iteration #  8     ecut=    30.00 Ry     beta=0.70
     Davidson diagonalization with overlap
     ethr =  6.98E-12,  avg # of iterations =  2.0

     total cpu time spent up to now is       27.8 secs

     total energy              =    -329.49064266 Ry
     Harris-Foulkes estimate   =    -329.49064270 Ry
     estimated scf accuracy    <          1.3E-09 Ry

     iteration #  9     ecut=    30.00 Ry     beta=0.70
     Davidson diagonalization with overlap
     ethr =  2.42E-12,  avg # of iterations =  2.0

     total cpu time spent up to now is       28.0 secs

     total energy              =    -329.49064266 Ry
     Harris-Foulkes estimate   =    -329.49064266 Ry
     estimated scf accuracy    <          1.5E-10 Ry

     iteration # 10     ecut=    30.00 Ry     beta=0.70
     Davidson diagonalization with overlap
     ethr =  2.77E-13,  avg # of iterations =  2.0

     total cpu time spent up to now is       28.2 secs

     End of self-consistent calculation

          k = 0.0000 0.0000 0.0000 ( 22119 PWs)   bands (ev):

    -8.5170  -7.7995  -7.6624  -7.2437  -6.8548  -6.8058  -6.6318  -6.4958
    -6.2951  -6.0791  -5.9608  -5.7699  -5.7299  -5.6887  -5.4719  -5.3715
    -5.3127  -5.2573  -5.2022  -5.1815  -5.1740  -5.1211  -5.0042  -4.9383
    -4.8273  -4.7290  -4.4844  -3.7748  -2.5220  -2.1977  -0.5651  -0.1837
     0.5246   0.9067

     the Fermi energy is    -3.7412 ev

!    total energy              =    -329.49064269 Ry
     Harris-Foulkes estimate   =    -329.49064266 Ry
     estimated scf accuracy    <          1.5E-11 Ry

     The total energy is the sum of the following terms:

     one-electron contribution =    -610.18608090 Ry
     hartree contribution      =     326.51854480 Ry
     xc contribution           =     -51.40252632 Ry
     ewald contribution        =       5.58399817 Ry
     smearing contrib. (-TS)   =      -0.00457844 Ry

     convergence has been achieved in  10 iterations

     Forces acting on atoms (Ry/au):

     atom    1 type  1   force =     0.00000008   -0.00276582   -0.00109130
     atom    2 type  1   force =     0.00019565    0.00152097   -0.00034869
     atom    3 type  1   force =     0.00220617    0.00036340   -0.00110461
     atom    4 type  1   force =    -0.00070921    0.00058520    0.00126580
     atom    5 type  1   force =    -0.00169270    0.00029625    0.00127880

     Total force =     0.004957     Total SCF correction =     0.000018

     number of scf cycles    =  11
     number of bfgs steps    =  10

     energy   old            =    -329.4905650656 Ry
     energy   new            =    -329.4906426891 Ry

     CASE: energy  _new < energy  _old

     new trust radius        =       0.0233574914 bohr
     new conv_thr            =            1.0E-10 Ry


ATOMIC_POSITIONS (bohr)
Au      -1.858058812   1.443349454  -0.507879423
Au      -0.719328375   3.078384584   4.251941298
Au       3.013697359   1.347404876   0.781794005
Au       4.289183489   3.562470103   5.580508495
Au       7.797825339   1.549226984   2.396880625



     Writing output data file pwscf.save
     Check: negative starting charge=   -0.006528
     NEW-OLD atomic charge density approx. for the potential
     Check: negative starting charge=   -0.006521

     negative rho (up, down):  8.141E-05 0.000E+00

     total cpu time spent up to now is       28.5 secs

     per-process dynamical memory:    50.7 Mb

     Self-consistent Calculation

     iteration #  1     ecut=    30.00 Ry     beta=0.70
     Davidson diagonalization with overlap
     ethr =  1.00E-06,  avg # of iterations =  4.0

     negative rho (up, down):  5.514E-07 0.000E+00

     total cpu time spent up to now is       28.8 secs

     total energy              =    -329.49068228 Ry
     Harris-Foulkes estimate   =    -329.49070026 Ry
     estimated scf accuracy    <       0.00008181 Ry

     iteration #  2     ecut=    30.00 Ry     beta=0.70
     Davidson diagonalization with overlap
     ethr =  1.49E-07,  avg # of iterations =  3.0

     negative rho (up, down):  4.138E-08 0.000E+00

     total cpu time spent up to now is       29.0 secs

     total energy              =    -329.49069039 Ry
     Harris-Foulkes estimate   =    -329.49073187 Ry
     estimated scf accuracy    <       0.00008914 Ry

     iteration #  3     ecut=    30.00 Ry     beta=0.70
     Davidson diagonalization with overlap
     ethr =  1.49E-07,  avg # of iterations =  2.0

     total cpu time spent up to now is       29.2 secs

     total energy              =    -329.49070813 Ry
     Harris-Foulkes estimate   =    -329.49071591 Ry
     estimated scf accuracy    <       0.00001961 Ry

     iteration #  4     ecut=    30.00 Ry     beta=0.70
     Davidson diagonalization with overlap
     ethr =  3.57E-08,  avg # of iterations =  2.0

     total cpu time spent up to now is       29.4 secs

     total energy              =    -329.49071188 Ry
     Harris-Foulkes estimate   =    -329.49071382 Ry
     estimated scf accuracy    <       0.00000404 Ry

     iteration #  5     ecut=    30.00 Ry     beta=0.70
     Davidson diagonalization with overlap
     ethr =  7.34E-09,  avg # of iterations =  2.0

     total cpu time spent up to now is       29.6 secs

     total energy              =    -329.49071255 Ry
     Harris-Foulkes estimate   =    -329.49071273 Ry
     estimated scf accuracy    <       0.00000039 Ry

     iteration #  6     ecut=    30.00 Ry     beta=0.70
     Davidson diagonalization with overlap
     ethr =  7.02E-10,  avg # of iterations =  2.0

     total cpu time spent up to now is       29.9 secs

     total energy              =    -329.49071271 Ry
     Harris-Foulkes estimate   =    -329.49071266 Ry
     estimated scf accuracy    <       0.00000004 Ry

     iteration #  7     ecut=    30.00 Ry     beta=0.70
     Davidson diagonalization with overlap
     ethr =  7.13E-11,  avg # of iterations =  3.0

     total cpu time spent up to now is       30.1 secs

     total energy              =    -329.49071278 Ry
     Harris-Foulkes estimate   =    -329.49071272 Ry
     estimated scf accuracy    <          6.4E-09 Ry

     iteration #  8     ecut=    30.00 Ry     beta=0.70
     Davidson diagonalization with overlap
     ethr =  1.16E-11,  avg # of iterations =  2.0

     total cpu time spent up to now is       30.3 secs

     total energy              =    -329.49071282 Ry
     Harris-Foulkes estimate   =    -329.49071278 Ry
     estimated scf accuracy    <          1.1E-09 Ry

     iteration #  9     ecut=    30.00 Ry     beta=0.70
     Davidson diagonalization with overlap
     ethr =  2.03E-12,  avg # of iterations =  2.0

     total cpu time spent up to now is       30.6 secs

     total energy              =    -329.49071283 Ry
     Harris-Foulkes estimate   =    -329.49071282 Ry
     estimated scf accuracy    <          3.1E-10 Ry

     iteration # 10     ecut=    30.00 Ry     beta=0.70
     Davidson diagonalization with overlap
     ethr =  5.70E-13,  avg # of iterations =  2.0

     total cpu time spent up to now is       30.8 secs

     End of self-consistent calculation

          k = 0.0000 0.0000 0.0000 ( 22119 PWs)   bands (ev):

    -8.5317  -7.8084  -7.6559  -7.2402  -6.8581  -6.8136  -6.6380  -6.4950
    -6.2898  -6.0862  -5.9677  -5.7724  -5.7352  -5.6906  -5.4698  -5.3691
    -5.3111  -5.2572  -5.2009  -5.1820  -5.1754  -5.1214  -4.9988  -4.9397
    -4.8334  -4.7230  -4.4852  -3.7724  -2.5127  -2.2017  -0.5657  -0.1843
     0.5260   0.9046

     the Fermi energy is    -3.7384 ev

!    total energy              =    -329.49071284 Ry
     Harris-Foulkes estimate   =    -329.49071283 Ry
     estimated scf accuracy    <          4.8E-11 Ry

     The total energy is the sum of the following terms:

     one-electron contribution =    -610.43109265 Ry
     hartree contribution      =     326.63917730 Ry
     xc contribution           =     -51.40391869 Ry
     ewald contribution        =       5.70977403 Ry
     smearing contrib. (-TS)   =      -0.00465285 Ry

     convergence has been achieved in  10 iterations

     Forces acting on atoms (Ry/au):

     atom    1 type  1   force =    -0.00215525   -0.00272837   -0.00214257
     atom    2 type  1   force =     0.00096289    0.00165661    0.00046373
     atom    3 type  1   force =     0.00381346    0.00021675   -0.00051806
     atom    4 type  1   force =    -0.00180061    0.00052903    0.00070230
     atom    5 type  1   force =    -0.00082049    0.00032598    0.00149459

     Total force =     0.006516     Total SCF correction =     0.000026

     number of scf cycles    =  12
     number of bfgs steps    =  11

     energy   old            =    -329.4906426891 Ry
     energy   new            =    -329.4907128436 Ry

     CASE: energy  _new < energy  _old

     new trust radius        =       0.0198198983 bohr
     new conv_thr            =            1.0E-10 Ry


ATOMIC_POSITIONS (bohr)
Au      -1.848539831   1.426404670  -0.511764217
Au      -0.721666102   3.084687362   4.243599304
Au       3.014817303   1.354223838   0.778820269
Au       4.289158005   3.565879987   5.589495798
Au       7.789549625   1.549640143   2.403093846



     Writing output data file pwscf.save
     Check: negative starting charge=   -0.006521
     NEW-OLD atomic charge density approx. for the potential
     Check: negative starting charge=   -0.006514

     negative rho (up, down):  5.250E-05 0.000E+00

     total cpu time spent up to now is       31.0 secs

     per-process dynamical memory:    50.7 Mb

     Self-consistent Calculation

     iteration #  1     ecut=    30.00 Ry     beta=0.70
     Davidson diagonalization with overlap
     ethr =  1.00E-06,  avg # of iterations =  4.0

     negative rho (up, down):  2.345E-07 0.000E+00

     total cpu time spent up to now is       31.3 secs

     total energy              =    -329.49074795 Ry
     Harris-Foulkes estimate   =    -329.49076567 Ry
     estimated scf accuracy    <       0.00006100 Ry

     iteration #  2     ecut=    30.00 Ry     beta=0.70
     Davidson diagonalization with overlap
     ethr =  1.11E-07,  avg # of iterations =  3.0

     negative rho (up, down):  1.131E-08 0.000E+00

     total cpu time spent up to now is       31.5 secs

     total energy              =    -329.49075630 Ry
     Harris-Foulkes estimate   =    -329.49078298 Ry
     estimated scf accuracy    <       0.00005565 Ry

     iteration #  3     ecut=    30.00 Ry     beta=0.70
     Davidson diagonalization with overlap
     ethr =  1.01E-07,  avg # of iterations =  2.0

     total cpu time spent up to now is       31.8 secs

     total energy              =    -329.49076727 Ry
     Harris-Foulkes estimate   =    -329.49077178 Ry
     estimated scf accuracy    <       0.00001083 Ry

     iteration #  4     ecut=    30.00 Ry     beta=0.70
     Davidson diagonalization with overlap
     ethr =  1.97E-08,  avg # of iterations =  2.0

     total cpu time spent up to now is       32.0 secs

     total energy              =    -329.49076957 Ry
     Harris-Foulkes estimate   =    -329.49077112 Ry
     estimated scf accuracy    <       0.00000401 Ry

     iteration #  5     ecut=    30.00 Ry     beta=0.70
     Davidson diagonalization with overlap
     ethr =  7.29E-09,  avg # of iterations =  2.0

     total cpu time spent up to now is       32.2 secs

     total energy              =    -329.49077004 Ry
     Harris-Foulkes estimate   =    -329.49077032 Ry
     estimated scf accuracy    <       0.00000025 Ry

     iteration #  6     ecut=    30.00 Ry     beta=0.70
     Davidson diagonalization with overlap
     ethr =  4.47E-10,  avg # of iterations =  3.0

     total cpu time spent up to now is       32.4 secs

     total energy              =    -329.49077007 Ry
     Harris-Foulkes estimate   =    -329.49077012 Ry
     estimated scf accuracy    <       0.00000004 Ry

     iteration #  7     ecut=    30.00 Ry     beta=0.70
     Davidson diagonalization with overlap
     ethr =  6.50E-11,  avg # of iterations =  2.0

     total cpu time spent up to now is       32.6 secs

     total energy              =    -329.49077003 Ry
[...]
     NEW-OLD atomic charge density approx. for the potential
     Check: negative starting charge=   -0.006451

     negative rho (up, down):  3.986E-05 0.000E+00

     total cpu time spent up to now is       65.9 secs

     per-process dynamical memory:    50.7 Mb

     Self-consistent Calculation

     iteration #  1     ecut=    30.00 Ry     beta=0.70
     Davidson diagonalization with overlap
     ethr =  1.00E-06,  avg # of iterations =  4.0

     Threshold (ethr) on eigenvalues was too large:
     Diagonalizing with lowered threshold

     Davidson diagonalization with overlap
     ethr =  7.72E-08,  avg # of iterations =  1.0

     negative rho (up, down):  1.721E-07 0.000E+00

     total cpu time spent up to now is       66.4 secs

     total energy              =    -329.49129173 Ry
     Harris-Foulkes estimate   =    -329.49129208 Ry
     estimated scf accuracy    <       0.00004247 Ry

     iteration #  2     ecut=    30.00 Ry     beta=0.70
     Davidson diagonalization with overlap
     ethr =  7.72E-08,  avg # of iterations =  3.0

     total cpu time spent up to now is       66.6 secs

     total energy              =    -329.49129613 Ry
     Harris-Foulkes estimate   =    -329.49131544 Ry
     estimated scf accuracy    <       0.00004481 Ry

     iteration #  3     ecut=    30.00 Ry     beta=0.70
     Davidson diagonalization with overlap
     ethr =  7.72E-08,  avg # of iterations =  2.0

     total cpu time spent up to now is       66.8 secs

     total energy              =    -329.49130606 Ry
     Harris-Foulkes estimate   =    -329.49130976 Ry
     estimated scf accuracy    <       0.00001160 Ry

     iteration #  4     ecut=    30.00 Ry     beta=0.70
     Davidson diagonalization with overlap
     ethr =  2.11E-08,  avg # of iterations =  2.0

     total cpu time spent up to now is       67.0 secs

     total energy              =    -329.49130860 Ry
     Harris-Foulkes estimate   =    -329.49130936 Ry
     estimated scf accuracy    <       0.00000247 Ry

     iteration #  5     ecut=    30.00 Ry     beta=0.70
     Davidson diagonalization with overlap
     ethr =  4.49E-09,  avg # of iterations =  2.0

     total cpu time spent up to now is       67.2 secs

     total energy              =    -329.49130894 Ry
     Harris-Foulkes estimate   =    -329.49130919 Ry
     estimated scf accuracy    <       0.00000028 Ry

     iteration #  6     ecut=    30.00 Ry     beta=0.70
     Davidson diagonalization with overlap
     ethr =  5.09E-10,  avg # of iterations =  2.0

     total cpu time spent up to now is       67.4 secs

     total energy              =    -329.49130900 Ry
     Harris-Foulkes estimate   =    -329.49130901 Ry
     estimated scf accuracy    <       0.00000003 Ry

     iteration #  7     ecut=    30.00 Ry     beta=0.70
     Davidson diagonalization with overlap
     ethr =  5.86E-11,  avg # of iterations =  2.0

     total cpu time spent up to now is       67.6 secs

     total energy              =    -329.49130900 Ry
     Harris-Foulkes estimate   =    -329.49130901 Ry
     estimated scf accuracy    <          4.5E-09 Ry

     iteration #  8     ecut=    30.00 Ry     beta=0.70
     Davidson diagonalization with overlap
     ethr =  8.16E-12,  avg # of iterations =  2.0

     total cpu time spent up to now is       67.8 secs

     total energy              =    -329.49130901 Ry
     Harris-Foulkes estimate   =    -329.49130900 Ry
     estimated scf accuracy    <          5.0E-10 Ry

     iteration #  9     ecut=    30.00 Ry     beta=0.70
     Davidson diagonalization with overlap
     ethr =  9.03E-13,  avg # of iterations =  3.0

     total cpu time spent up to now is       68.1 secs

     total energy              =    -329.49130901 Ry
     Harris-Foulkes estimate   =    -329.49130901 Ry
     estimated scf accuracy    <          1.2E-10 Ry

     iteration # 10     ecut=    30.00 Ry     beta=0.70
     Davidson diagonalization with overlap
     ethr =  2.14E-13,  avg # of iterations =  2.0

     total cpu time spent up to now is       68.3 secs

     End of self-consistent calculation

          k = 0.0000 0.0000 0.0000 ( 22119 PWs)   bands (ev):

    -8.5057  -7.7867  -7.6460  -7.2370  -6.8605  -6.8086  -6.6333  -6.4823
    -6.2975  -6.0709  -5.9670  -5.7678  -5.7305  -5.6868  -5.4610  -5.3712
    -5.3159  -5.2489  -5.2008  -5.1870  -5.1734  -5.1231  -5.0031  -4.9298
    -4.8410  -4.7300  -4.4762  -3.7777  -2.5133  -2.1981  -0.5648  -0.1861
     0.5095   0.8958

     the Fermi energy is    -3.7454 ev

!    total energy              =    -329.49130901 Ry
     Harris-Foulkes estimate   =    -329.49130901 Ry
     estimated scf accuracy    <          3.9E-11 Ry

     The total energy is the sum of the following terms:

     one-electron contribution =    -609.51092946 Ry
     hartree contribution      =     326.18532417 Ry
     xc contribution           =     -51.40206176 Ry
     ewald contribution        =       5.24066402 Ry
     smearing contrib. (-TS)   =      -0.00430598 Ry

     convergence has been achieved in  10 iterations

     Forces acting on atoms (Ry/au):

     atom    1 type  1   force =     0.00196201   -0.00001115    0.00033993
     atom    2 type  1   force =     0.00072072    0.00024242    0.00020189
     atom    3 type  1   force =    -0.00181283    0.00014734   -0.00012858
     atom    4 type  1   force =    -0.00103572   -0.00051683   -0.00030919
     atom    5 type  1   force =     0.00016582    0.00013822   -0.00010406

     Total force =     0.003066     Total SCF correction =     0.000023

     number of scf cycles    =  27
     number of bfgs steps    =  26

     energy   old            =    -329.4912886322 Ry
     energy   new            =    -329.4913090134 Ry

     CASE: energy  _new < energy  _old

     new trust radius        =       0.0196040580 bohr
     new conv_thr            =            1.0E-10 Ry


ATOMIC_POSITIONS (bohr)
Au      -1.788602326   1.349854618  -0.590876667
Au      -0.758991387   3.103164023   4.151559491
Au       3.085139909   1.366277022   0.762523744
Au       4.185846006   3.572929697   5.638064040
Au       7.799926799   1.588610641   2.541974392



     Writing output data file pwscf.save
     Check: negative starting charge=   -0.006451
     NEW-OLD atomic charge density approx. for the potential
     Check: negative starting charge=   -0.006459

     negative rho (up, down):  4.249E-05 0.000E+00

     total cpu time spent up to now is       68.5 secs

     per-process dynamical memory:    50.7 Mb

     Self-consistent Calculation

     iteration #  1     ecut=    30.00 Ry     beta=0.70
     Davidson diagonalization with overlap
     ethr =  1.00E-06,  avg # of iterations =  4.0

     Threshold (ethr) on eigenvalues was too large:
     Diagonalizing with lowered threshold

     Davidson diagonalization with overlap
     ethr =  7.35E-08,  avg # of iterations =  1.0

     negative rho (up, down):  2.064E-07 0.000E+00

     total cpu time spent up to now is       69.0 secs

     total energy              =    -329.49131096 Ry
     Harris-Foulkes estimate   =    -329.49130629 Ry
     estimated scf accuracy    <       0.00004034 Ry

     iteration #  2     ecut=    30.00 Ry     beta=0.70
     Davidson diagonalization with overlap
     ethr =  7.33E-08,  avg # of iterations =  3.0

     negative rho (up, down):  1.278E-08 0.000E+00

     total cpu time spent up to now is       69.2 secs

     total energy              =    -329.49131297 Ry
     Harris-Foulkes estimate   =    -329.49133334 Ry
     estimated scf accuracy    <       0.00004690 Ry

     iteration #  3     ecut=    30.00 Ry     beta=0.70
     Davidson diagonalization with overlap
     ethr =  7.33E-08,  avg # of iterations =  2.0

     total cpu time spent up to now is       69.4 secs

     total energy              =    -329.49132356 Ry
     Harris-Foulkes estimate   =    -329.49132791 Ry
     estimated scf accuracy    <       0.00001378 Ry

     iteration #  4     ecut=    30.00 Ry     beta=0.70
     Davidson diagonalization with overlap
     ethr =  2.50E-08,  avg # of iterations =  2.0

     total cpu time spent up to now is       69.6 secs

     total energy              =    -329.49132618 Ry
     Harris-Foulkes estimate   =    -329.49132697 Ry
     estimated scf accuracy    <       0.00000191 Ry

     iteration #  5     ecut=    30.00 Ry     beta=0.70
     Davidson diagonalization with overlap
     ethr =  3.48E-09,  avg # of iterations =  2.0

     total cpu time spent up to now is       69.8 secs

     total energy              =    -329.49132644 Ry
     Harris-Foulkes estimate   =    -329.49132670 Ry
     estimated scf accuracy    <       0.00000029 Ry

     iteration #  6     ecut=    30.00 Ry     beta=0.70
     Davidson diagonalization with overlap
     ethr =  5.22E-10,  avg # of iterations =  2.0

     total cpu time spent up to now is       70.0 secs

     total energy              =    -329.49132644 Ry
     Harris-Foulkes estimate   =    -329.49132651 Ry
     estimated scf accuracy    <       0.00000003 Ry

     iteration #  7     ecut=    30.00 Ry     beta=0.70
     Davidson diagonalization with overlap
     ethr =  5.42E-11,  avg # of iterations =  2.0

     total cpu time spent up to now is       70.2 secs

     total energy              =    -329.49132637 Ry
     Harris-Foulkes estimate   =    -329.49132645 Ry
     estimated scf accuracy    <          4.4E-09 Ry

     iteration #  8     ecut=    30.00 Ry     beta=0.70
     Davidson diagonalization with overlap
     ethr =  8.03E-12,  avg # of iterations =  2.0

     total cpu time spent up to now is       70.5 secs

     total energy              =    -329.49132636 Ry
     Harris-Foulkes estimate   =    -329.49132637 Ry
     estimated scf accuracy    <          3.8E-10 Ry

     iteration #  9     ecut=    30.00 Ry     beta=0.70
     Davidson diagonalization with overlap
     ethr =  6.87E-13,  avg # of iterations =  2.0

     total cpu time spent up to now is       70.7 secs

     End of self-consistent calculation

          k = 0.0000 0.0000 0.0000 ( 22119 PWs)   bands (ev):

    -8.5067  -7.7837  -7.6461  -7.2325  -6.8605  -6.8095  -6.6279  -6.4805
    -6.2963  -6.0721  -5.9636  -5.7688  -5.7311  -5.6870  -5.4582  -5.3714
    -5.3163  -5.2485  -5.2013  -5.1854  -5.1742  -5.1230  -5.0010  -4.9301
    -4.8403  -4.7312  -4.4757  -3.7799  -2.5104  -2.1995  -0.5644  -0.1871
     0.5103   0.8970

     the Fermi energy is    -3.7479 ev

!    total energy              =    -329.49132634 Ry
     Harris-Foulkes estimate   =    -329.49132636 Ry
     estimated scf accuracy    <          6.1E-11 Ry

     The total energy is the sum of the following terms:

     one-electron contribution =    -609.43251730 Ry
     hartree contribution      =     326.14731626 Ry
     xc contribution           =     -51.40193107 Ry
     ewald contribution        =       5.20003176 Ry
     smearing contrib. (-TS)   =      -0.00422599 Ry

     convergence has been achieved in   9 iterations

     Forces acting on atoms (Ry/au):

     atom    1 type  1   force =     0.00140396   -0.00010004    0.00060449
     atom    2 type  1   force =     0.00065414    0.00025783   -0.00018385
     atom    3 type  1   force =    -0.00092774    0.00023304    0.00032523
     atom    4 type  1   force =    -0.00040755   -0.00078652   -0.00074069
     atom    5 type  1   force =    -0.00072280    0.00039570   -0.00000519

     Total force =     0.002431     Total SCF correction =     0.000041

     number of scf cycles    =  28
     number of bfgs steps    =  27

     energy   old            =    -329.4913090134 Ry
     energy   new            =    -329.4913263350 Ry

     CASE: energy  _new < energy  _old

     new trust radius        =       0.0124003019 bohr
     new conv_thr            =            1.0E-10 Ry


ATOMIC_POSITIONS (bohr)
Au      -1.777891927   1.347239542  -0.596552599
Au      -0.762092538   3.104152142   4.148912056
Au       3.085199769   1.367125474   0.763222391
Au       4.178917984   3.571597867   5.640767183
Au       7.799185712   1.590720975   2.546895968



     Writing output data file pwscf.save
     Check: negative starting charge=   -0.006459
     NEW-OLD atomic charge density approx. for the potential
     Check: negative starting charge=   -0.006465

     negative rho (up, down):  5.841E-06 0.000E+00

     total cpu time spent up to now is       70.9 secs

     per-process dynamical memory:    50.7 Mb

     Self-consistent Calculation

     iteration #  1     ecut=    30.00 Ry     beta=0.70
     Davidson diagonalization with overlap
     ethr =  1.00E-06,  avg # of iterations =  4.0

     Threshold (ethr) on eigenvalues was too large:
     Diagonalizing with lowered threshold

     Davidson diagonalization with overlap
     ethr =  2.13E-08,  avg # of iterations =  2.0

     total cpu time spent up to now is       71.4 secs

     total energy              =    -329.49133225 Ry
     Harris-Foulkes estimate   =    -329.49132806 Ry
     estimated scf accuracy    <       0.00001219 Ry

     iteration #  2     ecut=    30.00 Ry     beta=0.70
     Davidson diagonalization with overlap
     ethr =  2.22E-08,  avg # of iterations =  2.0

     total cpu time spent up to now is       71.6 secs

     total energy              =    -329.49133242 Ry
     Harris-Foulkes estimate   =    -329.49133835 Ry
     estimated scf accuracy    <       0.00001274 Ry

     iteration #  3     ecut=    30.00 Ry     beta=0.70
     Davidson diagonalization with overlap
     ethr =  2.22E-08,  avg # of iterations =  2.0

     total cpu time spent up to now is       71.8 secs

     total energy              =    -329.49133477 Ry
     Harris-Foulkes estimate   =    -329.49133688 Ry
     estimated scf accuracy    <       0.00000482 Ry

     iteration #  4     ecut=    30.00 Ry     beta=0.70
     Davidson diagonalization with overlap
     ethr =  8.76E-09,  avg # of iterations =  2.0

     total cpu time spent up to now is       72.0 secs

     total energy              =    -329.49133578 Ry
     Harris-Foulkes estimate   =    -329.49133588 Ry
     estimated scf accuracy    <       0.00000049 Ry

     iteration #  5     ecut=    30.00 Ry     beta=0.70
     Davidson diagonalization with overlap
     ethr =  8.92E-10,  avg # of iterations =  2.0

     total cpu time spent up to now is       72.2 secs

     total energy              =    -329.49133596 Ry
     Harris-Foulkes estimate   =    -329.49133592 Ry
     estimated scf accuracy    <       0.00000008 Ry

     iteration #  6     ecut=    30.00 Ry     beta=0.70
     Davidson diagonalization with overlap
     ethr =  1.47E-10,  avg # of iterations =  2.0

     total cpu time spent up to now is       72.4 secs

     total energy              =    -329.49133590 Ry
     Harris-Foulkes estimate   =    -329.49133598 Ry
     estimated scf accuracy    <          7.4E-09 Ry

     iteration #  7     ecut=    30.00 Ry     beta=0.70
     Davidson diagonalization with overlap
     ethr =  1.35E-11,  avg # of iterations =  3.0

     total cpu time spent up to now is       72.7 secs

     total energy              =    -329.49133592 Ry
     Harris-Foulkes estimate   =    -329.49133591 Ry
     estimated scf accuracy    <          1.8E-09 Ry

     iteration #  8     ecut=    30.00 Ry     beta=0.70
     Davidson diagonalization with overlap
     ethr =  3.35E-12,  avg # of iterations =  2.0

     total cpu time spent up to now is       72.9 secs

     total energy              =    -329.49133590 Ry
     Harris-Foulkes estimate   =    -329.49133592 Ry
     estimated scf accuracy    <          1.6E-10 Ry

     iteration #  9     ecut=    30.00 Ry     beta=0.70
     Davidson diagonalization with overlap
     ethr =  2.94E-13,  avg # of iterations =  3.0

     total cpu time spent up to now is       73.1 secs

     End of self-consistent calculation

          k = 0.0000 0.0000 0.0000 ( 22119 PWs)   bands (ev):

    -8.5117  -7.7855  -7.6488  -7.2318  -6.8627  -6.8129  -6.6261  -6.4811
    -6.2967  -6.0743  -5.9627  -5.7705  -5.7326  -5.6880  -5.4566  -5.3714
    -5.3165  -5.2482  -5.2016  -5.1845  -5.1748  -5.1228  -4.9987  -4.9297
    -4.8398  -4.7308  -4.4747  -3.7808  -2.5068  -2.1992  -0.5647  -0.1877
     0.5113   0.8980

     the Fermi energy is    -3.7490 ev

!    total energy              =    -329.49133589 Ry
     Harris-Foulkes estimate   =    -329.49133590 Ry
     estimated scf accuracy    <          4.4E-11 Ry

     The total energy is the sum of the following terms:

     one-electron contribution =    -609.57582687 Ry
     hartree contribution      =     326.21849713 Ry
     xc contribution           =     -51.40266568 Ry
     ewald contribution        =       5.27282939 Ry
     smearing contrib. (-TS)   =      -0.00416987 Ry

     convergence has been achieved in   9 iterations

     Forces acting on atoms (Ry/au):

     atom    1 type  1   force =     0.00057783   -0.00011515    0.00044487
     atom    2 type  1   force =     0.00038277    0.00025322   -0.00021418
     atom    3 type  1   force =     0.00005076    0.00017954    0.00056786
     atom    4 type  1   force =    -0.00004165   -0.00080252   -0.00083954
     atom    5 type  1   force =    -0.00096972    0.00048491    0.00004098

     Total force =     0.001920     Total SCF correction =     0.000029

     bfgs converged in  29 scf cycles and  28 bfgs steps
     (criteria: energy <  1.0E-04, force <  1.0E-03)

     End of BFGS Geometry Optimization

     Final energy   =    -329.4913358911 Ry
Begin final coordinates

ATOMIC_POSITIONS (bohr)
Au      -1.777891927   1.347239542  -0.596552599
Au      -0.762092538   3.104152142   4.148912056
Au       3.085199769   1.367125474   0.763222391
Au       4.178917984   3.571597867   5.640767183
Au       7.799185712   1.590720975   2.546895968
End final coordinates



     Writing output data file pwscf.save
 
     init_run     :      0.16s CPU      0.18s WALL (       1 calls)
     electrons    :     63.10s CPU     67.43s WALL (      29 calls)
     update_pot   :      1.87s CPU      2.32s WALL (      28 calls)
     forces       :      1.22s CPU      1.25s WALL (      29 calls)

     Called by init_run:
     wfcinit      :      0.07s CPU      0.08s WALL (       1 calls)
     potinit      :      0.03s CPU      0.03s WALL (       1 calls)

     Called by electrons:
     c_bands      :     47.98s CPU     48.53s WALL (     296 calls)
     sum_band     :      6.99s CPU      7.14s WALL (     296 calls)
     v_of_rho     :      5.40s CPU      5.47s WALL (     306 calls)
     mix_rho      :      2.00s CPU      4.39s WALL (     296 calls)

     Called by c_bands:
     init_us_2    :      0.92s CPU      0.96s WALL (     593 calls)
     cegterg      :     42.61s CPU     42.94s WALL (     296 calls)

     Called by sum_band:

     Called by *egterg:
     h_psi        :     33.47s CPU     33.70s WALL (    1006 calls)
     g_psi        :      0.33s CPU      0.33s WALL (     709 calls)
     cdiaghg      :      2.21s CPU      2.22s WALL (     958 calls)

     Called by h_psi:
     h_psi:pot    :     32.98s CPU     33.21s WALL (    1006 calls)
     h_psi:calbec :      1.81s CPU      1.81s WALL (    1006 calls)
     vloc_psi     :     29.12s CPU     29.34s WALL (    1006 calls)
     add_vuspsi   :      2.05s CPU      2.05s WALL (    1006 calls)

     General routines
     calbec       :      2.16s CPU      2.18s WALL (    1122 calls)
     fft          :      2.98s CPU      3.04s WALL (    3461 calls)
     fftw         :     30.70s CPU     31.17s WALL (   64724 calls)
     davcio       :      0.34s CPU      2.19s WALL (    2852 calls)
 
     Parallel routines
     fft_scatter  :      7.86s CPU      7.59s WALL (   68185 calls)
 
     PWSCF        :  1m 7.15s CPU     1m13.30s WALL

 
   This run was terminated on:  20:20:31   3Aug2017            

=------------------------------------------------------------------------------=
   JOB DONE.
=------------------------------------------------------------------------------=
