
     Program PWSCF v.6.0 (svn rev. 13079) starts on  4Aug2017 at  7: 0: 1 

     This program is part of the open-source Quantum ESPRESSO suite
     for quantum simulation of materials; please cite
         "P. Giannozzi et al., J. Phys.:Condens. Matter 21 395502 (2009);
          URL http://www.quantum-espresso.org", 
     in publications or presentations arising from this work. More details at
     http://www.quantum-espresso.org/quote

     Parallel version (MPI), running on    10 processors
     R & G space division:  proc/nbgrp/npool/nimage =      10
     Reading input from input/multi/minchecks-Gold5-803.in

     Current dimensions of program PWSCF are:
     Max number of different atomic species (ntypx) = 10
     Max number of k-points (npk) =  40000
     Max angular momentum in pseudopotentials (lmaxx) =  3
     Message from routine iosys:
     pot_extrapolation='second-order' not available, using 'atomic'
     Message from routine iosys:
     wfc_extrapolation='second-order' not available, using 'atomic'

     Subspace diagonalization in iterative solution of the eigenvalue problem:
     a serial algorithm will be used

 
     Parallelization info
     --------------------
     sticks:   dense  smooth     PW     G-vecs:    dense   smooth      PW
     Min         380     380     94                17748    17748    2208
     Max         381     381     95                17753    17753    2213
     Sum        3809    3809    949               177509   177509   22119
 


     bravais-lattice index     =            1
     lattice parameter (alat)  =      20.0000  a.u.
     unit-cell volume          =    8000.0000 (a.u.)^3
     number of atoms/cell      =            5
     number of atomic types    =            1
     number of electrons       =        55.00
     number of Kohn-Sham states=           34
     kinetic-energy cutoff     =      30.0000  Ry
     charge density cutoff     =     120.0000  Ry
     convergence threshold     =      1.0E-08
     mixing beta               =       0.7000
     number of iterations used =            8  plain     mixing
     Exchange-correlation      = BLYP ( 1  3  1  3 0 0)
     nstep                     =           50


     celldm(1)=  20.000000  celldm(2)=   0.000000  celldm(3)=   0.000000
     celldm(4)=   0.000000  celldm(5)=   0.000000  celldm(6)=   0.000000

     crystal axes: (cart. coord. in units of alat)
               a(1) = (   1.000000   0.000000   0.000000 )  
               a(2) = (   0.000000   1.000000   0.000000 )  
               a(3) = (   0.000000   0.000000   1.000000 )  

     reciprocal axes: (cart. coord. in units 2 pi/alat)
               b(1) = (  1.000000  0.000000  0.000000 )  
               b(2) = (  0.000000  1.000000  0.000000 )  
               b(3) = (  0.000000  0.000000  1.000000 )  


     PseudoPot. # 1 for Au read from file:
     ./Au.blyp-d-hgh.UPF
     MD5 check sum: c10d8bae01f806c36a1643a1c69a8479
     Pseudo is Norm-conserving, Zval = 11.0
     Generated in analytical, separable form
     Using radial grid of 1279 points,  6 beta functions with: 
                l(1) =   0
                l(2) =   0
                l(3) =   1
                l(4) =   1
                l(5) =   2
                l(6) =   2

     atomic species   valence    mass     pseudopotential
        Au            11.00    28.08600     Au( 1.00)

     No symmetry found



   Cartesian axes

     site n.     atom                  positions (alat units)
         1           Au  tau(   1) = (  -0.0928651   0.0115680   0.0041425  )
         2           Au  tau(   2) = (  -0.0131441   0.1729634   0.1921048  )
         3           Au  tau(   3) = (   0.0892456   0.1939531  -0.0326094  )
         4           Au  tau(   4) = (   0.2562646   0.2356330   0.1839022  )
         5           Au  tau(   5) = (   0.3579549   0.0010268   0.2341661  )

     number of k points=     1  Marzari-Vanderbilt smearing, width (Ry)=  0.0250
                       cart. coord. in units 2pi/alat
        k(    1) = (   0.0000000   0.0000000   0.0000000), wk =   2.0000000

     Dense  grid:   177509 G-vectors     FFT dimensions: (  72,  72,  72)

     Estimated max dynamical RAM per process >      15.04Mb

     Estimated total allocated dynamical RAM >     150.39Mb

     Initial potential from superposition of free atoms
     Check: negative starting charge=   -0.005583

     starting charge   54.99940, renormalised to   55.00000

     negative rho (up, down):  5.583E-03 0.000E+00
     Starting wfc are   45 randomized atomic wfcs

     total cpu time spent up to now is        0.3 secs

     per-process dynamical memory:    41.0 Mb

     Self-consistent Calculation

     iteration #  1     ecut=    30.00 Ry     beta=0.70
     Davidson diagonalization with overlap
     ethr =  1.00E-02,  avg # of iterations =  3.0

     Threshold (ethr) on eigenvalues was too large:
     Diagonalizing with lowered threshold

     Davidson diagonalization with overlap
     ethr =  4.33E-04,  avg # of iterations =  3.0

     negative rho (up, down):  6.481E-04 0.000E+00

     total cpu time spent up to now is        0.7 secs

     total energy              =    -329.29283894 Ry
     Harris-Foulkes estimate   =    -329.47285029 Ry
     estimated scf accuracy    <       0.28949493 Ry

     iteration #  2     ecut=    30.00 Ry     beta=0.70
     Davidson diagonalization with overlap
     ethr =  5.26E-04,  avg # of iterations =  7.0

     negative rho (up, down):  3.157E-04 0.000E+00

     total cpu time spent up to now is        1.0 secs

     total energy              =    -329.28575215 Ry
     Harris-Foulkes estimate   =    -329.49404771 Ry
     estimated scf accuracy    <       0.47071697 Ry

     iteration #  3     ecut=    30.00 Ry     beta=0.70
     Davidson diagonalization with overlap
     ethr =  5.26E-04,  avg # of iterations =  2.0

     negative rho (up, down):  1.230E-04 0.000E+00

     total cpu time spent up to now is        1.2 secs

     total energy              =    -329.39616105 Ry
     Harris-Foulkes estimate   =    -329.42859238 Ry
     estimated scf accuracy    <       0.09226810 Ry

     iteration #  4     ecut=    30.00 Ry     beta=0.70
     Davidson diagonalization with overlap
     ethr =  1.68E-04,  avg # of iterations =  2.0

     negative rho (up, down):  2.448E-05 0.000E+00

     total cpu time spent up to now is        1.4 secs

     total energy              =    -329.40793434 Ry
     Harris-Foulkes estimate   =    -329.41084538 Ry
     estimated scf accuracy    <       0.00808350 Ry

     iteration #  5     ecut=    30.00 Ry     beta=0.70
     Davidson diagonalization with overlap
     ethr =  1.47E-05,  avg # of iterations =  3.0

     negative rho (up, down):  1.226E-07 0.000E+00

     total cpu time spent up to now is        1.7 secs

     total energy              =    -329.40893330 Ry
     Harris-Foulkes estimate   =    -329.40991473 Ry
     estimated scf accuracy    <       0.00272237 Ry

     iteration #  6     ecut=    30.00 Ry     beta=0.70
     Davidson diagonalization with overlap
     ethr =  4.95E-06,  avg # of iterations =  2.0

     total cpu time spent up to now is        1.9 secs

     total energy              =    -329.40927741 Ry
     Harris-Foulkes estimate   =    -329.40978050 Ry
     estimated scf accuracy    <       0.00134368 Ry

     iteration #  7     ecut=    30.00 Ry     beta=0.70
     Davidson diagonalization with overlap
     ethr =  2.44E-06,  avg # of iterations =  2.0

     total cpu time spent up to now is        2.1 secs

     total energy              =    -329.40951510 Ry
     Harris-Foulkes estimate   =    -329.40962332 Ry
     estimated scf accuracy    <       0.00030627 Ry

     iteration #  8     ecut=    30.00 Ry     beta=0.70
     Davidson diagonalization with overlap
     ethr =  5.57E-07,  avg # of iterations =  2.0

     total cpu time spent up to now is        2.3 secs

     total energy              =    -329.40955964 Ry
     Harris-Foulkes estimate   =    -329.40956992 Ry
     estimated scf accuracy    <       0.00002071 Ry

     iteration #  9     ecut=    30.00 Ry     beta=0.70
     Davidson diagonalization with overlap
     ethr =  3.77E-08,  avg # of iterations =  2.0

     total cpu time spent up to now is        2.5 secs

     total energy              =    -329.40956423 Ry
     Harris-Foulkes estimate   =    -329.40956839 Ry
     estimated scf accuracy    <       0.00000944 Ry

     iteration # 10     ecut=    30.00 Ry     beta=0.70
     Davidson diagonalization with overlap
     ethr =  1.72E-08,  avg # of iterations =  2.0

     total cpu time spent up to now is        2.7 secs

     total energy              =    -329.40956573 Ry
     Harris-Foulkes estimate   =    -329.40956653 Ry
     estimated scf accuracy    <       0.00000161 Ry

     iteration # 11     ecut=    30.00 Ry     beta=0.70
     Davidson diagonalization with overlap
     ethr =  2.93E-09,  avg # of iterations =  2.0

     total cpu time spent up to now is        2.9 secs

     total energy              =    -329.40956593 Ry
     Harris-Foulkes estimate   =    -329.40956610 Ry
     estimated scf accuracy    <       0.00000016 Ry

     iteration # 12     ecut=    30.00 Ry     beta=0.70
     Davidson diagonalization with overlap
     ethr =  2.99E-10,  avg # of iterations =  3.0

     total cpu time spent up to now is        3.2 secs

     total energy              =    -329.40956592 Ry
     Harris-Foulkes estimate   =    -329.40956597 Ry
     estimated scf accuracy    <       0.00000003 Ry

     iteration # 13     ecut=    30.00 Ry     beta=0.70
     Davidson diagonalization with overlap
     ethr =  4.77E-11,  avg # of iterations =  3.0

     total cpu time spent up to now is        3.4 secs

     End of self-consistent calculation

          k = 0.0000 0.0000 0.0000 ( 22119 PWs)   bands (ev):

    -8.3336  -7.6940  -7.1407  -6.9832  -6.9009  -6.7759  -6.4942  -6.4159
    -6.0432  -6.0354  -5.7898  -5.7760  -5.5795  -5.5168  -5.4125  -5.3787
    -5.2965  -5.2494  -5.1535  -5.0343  -4.8617  -4.8066  -4.7600  -4.7597
    -4.6706  -4.6217  -4.4389  -3.5026  -3.2268  -2.2457  -0.4579   0.0411
     0.1791   0.2821

     the Fermi energy is    -3.4873 ev

!    total energy              =    -329.40956591 Ry
     Harris-Foulkes estimate   =    -329.40956593 Ry
     estimated scf accuracy    <          7.8E-09 Ry

     The total energy is the sum of the following terms:

     one-electron contribution =    -570.60319791 Ry
     hartree contribution      =     306.96227846 Ry
     xc contribution           =     -51.33931290 Ry
     ewald contribution        =     -14.41807937 Ry
     smearing contrib. (-TS)   =      -0.01125419 Ry

     convergence has been achieved in  13 iterations

     Forces acting on atoms (Ry/au):

     atom    1 type  1   force =    -0.00482420    0.00529628   -0.00137932
     atom    2 type  1   force =     0.00391434   -0.00445192    0.01748018
     atom    3 type  1   force =     0.01616484    0.00174904   -0.00870748
     atom    4 type  1   force =    -0.00835675   -0.02755893   -0.00476369
     atom    5 type  1   force =    -0.00689823    0.02496554   -0.00262969

     Total force =     0.047581     Total SCF correction =     0.000306

     BFGS Geometry Optimization

     number of scf cycles    =   1
     number of bfgs steps    =   0

     energy   new            =    -329.4095659092 Ry

     new trust radius        =       0.0291894250 bohr
     new conv_thr            =       0.0000000100 Ry


ATOMIC_POSITIONS (bohr)
Au      -1.862126198   0.236657278   0.081469680
Au      -0.258968658   3.454815076   3.859577181
Au       1.801077835   3.880812039  -0.660896484
Au       5.116936254   4.685101071   3.673280308
Au       7.152199766   0.045500535   4.680693315



     Writing output data file pwscf.save
     Check: negative starting charge=   -0.005583
     NEW-OLD atomic charge density approx. for the potential
     Check: negative starting charge=   -0.005585

     negative rho (up, down):  1.484E-04 0.000E+00

     total cpu time spent up to now is        3.6 secs

     per-process dynamical memory:    42.9 Mb

     Self-consistent Calculation

     iteration #  1     ecut=    30.00 Ry     beta=0.70
     Davidson diagonalization with overlap
     ethr =  1.00E-06,  avg # of iterations =  4.0

     negative rho (up, down):  2.457E-06 0.000E+00

     total cpu time spent up to now is        4.0 secs

     total energy              =    -329.41148253 Ry
     Harris-Foulkes estimate   =    -329.41161772 Ry
     estimated scf accuracy    <       0.00030150 Ry

     iteration #  2     ecut=    30.00 Ry     beta=0.70
     Davidson diagonalization with overlap
     ethr =  5.48E-07,  avg # of iterations =  3.0

     negative rho (up, down):  8.562E-07 0.000E+00

     total cpu time spent up to now is        4.2 secs

     total energy              =    -329.41134213 Ry
     Harris-Foulkes estimate   =    -329.41195516 Ry
     estimated scf accuracy    <       0.00198301 Ry

     iteration #  3     ecut=    30.00 Ry     beta=0.70
     Davidson diagonalization with overlap
     ethr =  5.48E-07,  avg # of iterations =  3.0

     negative rho (up, down):  1.535E-08 0.000E+00

     total cpu time spent up to now is        4.5 secs

     total energy              =    -329.41163637 Ry
     Harris-Foulkes estimate   =    -329.41165005 Ry
     estimated scf accuracy    <       0.00004472 Ry

     iteration #  4     ecut=    30.00 Ry     beta=0.70
     Davidson diagonalization with overlap
     ethr =  8.13E-08,  avg # of iterations =  2.0

     total cpu time spent up to now is        4.7 secs

     total energy              =    -329.41164869 Ry
     Harris-Foulkes estimate   =    -329.41164739 Ry
     estimated scf accuracy    <       0.00000641 Ry

     iteration #  5     ecut=    30.00 Ry     beta=0.70
     Davidson diagonalization with overlap
     ethr =  1.17E-08,  avg # of iterations =  2.0

     total cpu time spent up to now is        4.9 secs

     total energy              =    -329.41165044 Ry
     Harris-Foulkes estimate   =    -329.41165065 Ry
     estimated scf accuracy    <       0.00000224 Ry

     iteration #  6     ecut=    30.00 Ry     beta=0.70
     Davidson diagonalization with overlap
     ethr =  4.07E-09,  avg # of iterations =  2.0

     total cpu time spent up to now is        5.1 secs

     total energy              =    -329.41165110 Ry
     Harris-Foulkes estimate   =    -329.41165101 Ry
     estimated scf accuracy    <       0.00000043 Ry

     iteration #  7     ecut=    30.00 Ry     beta=0.70
     Davidson diagonalization with overlap
     ethr =  7.75E-10,  avg # of iterations =  2.0

     total cpu time spent up to now is        5.3 secs

     total energy              =    -329.41165121 Ry
     Harris-Foulkes estimate   =    -329.41165122 Ry
     estimated scf accuracy    <       0.00000006 Ry

     iteration #  8     ecut=    30.00 Ry     beta=0.70
     Davidson diagonalization with overlap
     ethr =  1.17E-10,  avg # of iterations =  2.0

     total cpu time spent up to now is        5.5 secs

     End of self-consistent calculation

          k = 0.0000 0.0000 0.0000 ( 22119 PWs)   bands (ev):

    -8.2930  -7.6763  -7.1224  -6.9751  -6.9038  -6.8107  -6.4921  -6.4313
    -6.0787  -6.0442  -5.7900  -5.7800  -5.5942  -5.5188  -5.4119  -5.3800
    -5.2914  -5.2443  -5.1501  -5.0303  -4.8715  -4.8100  -4.7734  -4.7719
    -4.6743  -4.6186  -4.4416  -3.5006  -3.2335  -2.2297  -0.4562   0.0327
     0.1781   0.2836

     the Fermi energy is    -3.4873 ev

!    total energy              =    -329.41165130 Ry
     Harris-Foulkes estimate   =    -329.41165122 Ry
     estimated scf accuracy    <          5.9E-09 Ry

     The total energy is the sum of the following terms:

     one-electron contribution =    -571.25750604 Ry
     hartree contribution      =     307.28486499 Ry
     xc contribution           =     -51.33889067 Ry
     ewald contribution        =     -14.08868631 Ry
     smearing contrib. (-TS)   =      -0.01143327 Ry

     convergence has been achieved in   8 iterations

     Forces acting on atoms (Ry/au):

     atom    1 type  1   force =    -0.00379195    0.00665238   -0.00067771
     atom    2 type  1   force =     0.00427208   -0.00500764    0.01255453
     atom    3 type  1   force =     0.01355654    0.00058442   -0.00554287
     atom    4 type  1   force =    -0.00898295   -0.02371576   -0.00482335
     atom    5 type  1   force =    -0.00505372    0.02148660   -0.00151060

     Total force =     0.040383     Total SCF correction =     0.000308

     number of scf cycles    =   2
     number of bfgs steps    =   1

     energy   old            =    -329.4095659092 Ry
     energy   new            =    -329.4116512951 Ry

     CASE: energy  _new < energy  _old


     WARNING: bfgs curvature condition failed, Theta= 0.949
     new trust radius        =       0.0321083675 bohr
     new conv_thr            =       0.0000000021 Ry


ATOMIC_POSITIONS (bohr)
Au      -1.866907846   0.244667796   0.080553347
Au      -0.253763127   3.448729553   3.875588492
Au       1.818043434   3.881669050  -0.668083728
Au       5.105975488   4.655507458   3.667361952
Au       7.145771051   0.072312143   4.678703937



     Writing output data file pwscf.save
     Check: negative starting charge=   -0.005585
     NEW-OLD atomic charge density approx. for the potential
     Check: negative starting charge=   -0.005596

     negative rho (up, down):  1.759E-04 0.000E+00

     total cpu time spent up to now is        5.7 secs

     per-process dynamical memory:    50.7 Mb

     Self-consistent Calculation

     iteration #  1     ecut=    30.00 Ry     beta=0.70
     Davidson diagonalization with overlap
     ethr =  1.00E-06,  avg # of iterations =  4.0

     negative rho (up, down):  3.284E-06 0.000E+00

     total cpu time spent up to now is        6.1 secs

     total energy              =    -329.41333066 Ry
     Harris-Foulkes estimate   =    -329.41346395 Ry
     estimated scf accuracy    <       0.00032583 Ry

     iteration #  2     ecut=    30.00 Ry     beta=0.70
     Davidson diagonalization with overlap
     ethr =  5.92E-07,  avg # of iterations =  3.0

     negative rho (up, down):  1.181E-06 0.000E+00

     total cpu time spent up to now is        6.4 secs

     total energy              =    -329.41318576 Ry
     Harris-Foulkes estimate   =    -329.41382252 Ry
     estimated scf accuracy    <       0.00203508 Ry

     iteration #  3     ecut=    30.00 Ry     beta=0.70
     Davidson diagonalization with overlap
     ethr =  5.92E-07,  avg # of iterations =  3.0

     negative rho (up, down):  2.646E-08 0.000E+00

     total cpu time spent up to now is        6.6 secs

     total energy              =    -329.41349152 Ry
     Harris-Foulkes estimate   =    -329.41351022 Ry
     estimated scf accuracy    <       0.00005848 Ry

     iteration #  4     ecut=    30.00 Ry     beta=0.70
     Davidson diagonalization with overlap
     ethr =  1.06E-07,  avg # of iterations =  2.0

     total cpu time spent up to now is        6.8 secs

     total energy              =    -329.41350653 Ry
     Harris-Foulkes estimate   =    -329.41350514 Ry
     estimated scf accuracy    <       0.00000693 Ry

     iteration #  5     ecut=    30.00 Ry     beta=0.70
     Davidson diagonalization with overlap
     ethr =  1.26E-08,  avg # of iterations =  2.0

     total cpu time spent up to now is        7.0 secs

     total energy              =    -329.41350800 Ry
     Harris-Foulkes estimate   =    -329.41350872 Ry
     estimated scf accuracy    <       0.00000256 Ry

     iteration #  6     ecut=    30.00 Ry     beta=0.70
     Davidson diagonalization with overlap
     ethr =  4.66E-09,  avg # of iterations =  2.0

     total cpu time spent up to now is        7.3 secs

     total energy              =    -329.41350885 Ry
     Harris-Foulkes estimate   =    -329.41350862 Ry
     estimated scf accuracy    <       0.00000039 Ry

     iteration #  7     ecut=    30.00 Ry     beta=0.70
     Davidson diagonalization with overlap
     ethr =  7.13E-10,  avg # of iterations =  2.0

     total cpu time spent up to now is        7.5 secs

     total energy              =    -329.41350907 Ry
     Harris-Foulkes estimate   =    -329.41350897 Ry
     estimated scf accuracy    <       0.00000009 Ry

     iteration #  8     ecut=    30.00 Ry     beta=0.70
     Davidson diagonalization with overlap
     ethr =  1.63E-10,  avg # of iterations =  2.0

     total cpu time spent up to now is        7.7 secs

     total energy              =    -329.41350910 Ry
     Harris-Foulkes estimate   =    -329.41350909 Ry
     estimated scf accuracy    <       0.00000001 Ry

     iteration #  9     ecut=    30.00 Ry     beta=0.70
     Davidson diagonalization with overlap
     ethr =  2.02E-11,  avg # of iterations =  3.0

     total cpu time spent up to now is        7.9 secs

     End of self-consistent calculation

          k = 0.0000 0.0000 0.0000 ( 22119 PWs)   bands (ev):

    -8.2610  -7.6678  -7.1150  -6.9791  -6.9370  -6.8148  -6.4963  -6.4494
    -6.1228  -6.0521  -5.7914  -5.7833  -5.6109  -5.5209  -5.4118  -5.3809
    -5.2868  -5.2397  -5.1472  -5.0259  -4.8807  -4.8123  -4.7870  -4.7840
    -4.6761  -4.6161  -4.4432  -3.4983  -3.2389  -2.2102  -0.4555   0.0242
     0.1772   0.2866

     the Fermi energy is    -3.4867 ev

!    total energy              =    -329.41350922 Ry
     Harris-Foulkes estimate   =    -329.41350911 Ry
     estimated scf accuracy    <          1.3E-09 Ry

     The total energy is the sum of the following terms:

     one-electron contribution =    -572.26263896 Ry
     hartree contribution      =     307.78023001 Ry
     xc contribution           =     -51.34000823 Ry
     ewald contribution        =     -13.57949962 Ry
     smearing contrib. (-TS)   =      -0.01159241 Ry

     convergence has been achieved in   9 iterations

     Forces acting on atoms (Ry/au):

     atom    1 type  1   force =    -0.00295921    0.00765753   -0.00008778
     atom    2 type  1   force =     0.00425405   -0.00540413    0.00857568
     atom    3 type  1   force =     0.01144724   -0.00024103   -0.00327675
     atom    4 type  1   force =    -0.00969561   -0.01947199   -0.00487235
     atom    5 type  1   force =    -0.00304646    0.01745961   -0.00033880

     Total force =     0.033782     Total SCF correction =     0.000128

     number of scf cycles    =   3
     number of bfgs steps    =   2

     energy   old            =    -329.4116512951 Ry
     energy   new            =    -329.4135092188 Ry

     CASE: energy  _new < energy  _old

     new trust radius        =       0.0481625513 bohr
     new conv_thr            =       0.0000000019 Ry


ATOMIC_POSITIONS (bohr)
Au      -1.873612989   0.259702319   0.079952653
Au      -0.245074414   3.437889283   3.896151863
Au       1.843174324   3.881805699  -0.676571939
Au       5.086433229   4.612641470   3.657350032
Au       7.138198850   0.110847229   4.677241391



     Writing output data file pwscf.save
     Check: negative starting charge=   -0.005596
     NEW-OLD atomic charge density approx. for the potential
     Check: negative starting charge=   -0.005631

     negative rho (up, down):  4.100E-04 0.000E+00

     total cpu time spent up to now is        8.1 secs

     per-process dynamical memory:    50.7 Mb

     Self-consistent Calculation

     iteration #  1     ecut=    30.00 Ry     beta=0.70
     Davidson diagonalization with overlap
     ethr =  1.00E-06,  avg # of iterations =  5.0

     negative rho (up, down):  1.514E-05 0.000E+00

     total cpu time spent up to now is        8.4 secs

     total energy              =    -329.41531643 Ry
     Harris-Foulkes estimate   =    -329.41543363 Ry
     estimated scf accuracy    <       0.00067356 Ry

     iteration #  2     ecut=    30.00 Ry     beta=0.70
     Davidson diagonalization with overlap
     ethr =  1.22E-06,  avg # of iterations =  4.0

     negative rho (up, down):  6.604E-06 0.000E+00

     total cpu time spent up to now is        8.7 secs

     total energy              =    -329.41504421 Ry
     Harris-Foulkes estimate   =    -329.41628792 Ry
     estimated scf accuracy    <       0.00390413 Ry

     iteration #  3     ecut=    30.00 Ry     beta=0.70
     Davidson diagonalization with overlap
     ethr =  1.22E-06,  avg # of iterations =  3.0

     negative rho (up, down):  3.897E-07 0.000E+00

     total cpu time spent up to now is        9.0 secs

     total energy              =    -329.41563592 Ry
     Harris-Foulkes estimate   =    -329.41568665 Ry
     estimated scf accuracy    <       0.00014626 Ry

     iteration #  4     ecut=    30.00 Ry     beta=0.70
     Davidson diagonalization with overlap
     ethr =  2.66E-07,  avg # of iterations =  2.0

     total cpu time spent up to now is        9.2 secs

     total energy              =    -329.41566819 Ry
     Harris-Foulkes estimate   =    -329.41566826 Ry
     estimated scf accuracy    <       0.00001414 Ry

     iteration #  5     ecut=    30.00 Ry     beta=0.70
     Davidson diagonalization with overlap
     ethr =  2.57E-08,  avg # of iterations =  3.0

     total cpu time spent up to now is        9.4 secs

     total energy              =    -329.41567107 Ry
     Harris-Foulkes estimate   =    -329.41567280 Ry
     estimated scf accuracy    <       0.00000539 Ry

     iteration #  6     ecut=    30.00 Ry     beta=0.70
     Davidson diagonalization with overlap
     ethr =  9.81E-09,  avg # of iterations =  2.0

     total cpu time spent up to now is        9.6 secs

     total energy              =    -329.41567210 Ry
     Harris-Foulkes estimate   =    -329.41567236 Ry
     estimated scf accuracy    <       0.00000084 Ry

     iteration #  7     ecut=    30.00 Ry     beta=0.70
     Davidson diagonalization with overlap
     ethr =  1.52E-09,  avg # of iterations =  2.0

     total cpu time spent up to now is        9.8 secs

     total energy              =    -329.41567234 Ry
     Harris-Foulkes estimate   =    -329.41567235 Ry
     estimated scf accuracy    <       0.00000019 Ry

     iteration #  8     ecut=    30.00 Ry     beta=0.70
     Davidson diagonalization with overlap
     ethr =  3.51E-10,  avg # of iterations =  2.0

     total cpu time spent up to now is       10.0 secs

     total energy              =    -329.41567262 Ry
     Harris-Foulkes estimate   =    -329.41567238 Ry
     estimated scf accuracy    <       0.00000002 Ry

     iteration #  9     ecut=    30.00 Ry     beta=0.70
     Davidson diagonalization with overlap
     ethr =  3.04E-11,  avg # of iterations =  3.0

     total cpu time spent up to now is       10.2 secs

     total energy              =    -329.41567265 Ry
     Harris-Foulkes estimate   =    -329.41567263 Ry
     estimated scf accuracy    <          5.4E-09 Ry

     iteration # 10     ecut=    30.00 Ry     beta=0.70
     Davidson diagonalization with overlap
     ethr =  9.75E-12,  avg # of iterations =  2.0

     total cpu time spent up to now is       10.4 secs

     End of self-consistent calculation

          k = 0.0000 0.0000 0.0000 ( 22119 PWs)   bands (ev):

    -8.2281  -7.6675  -7.1383  -7.0154  -6.9608  -6.8050  -6.5148  -6.4744
    -6.1880  -6.0672  -5.7960  -5.7849  -5.6363  -5.5239  -5.4123  -5.3819
    -5.2808  -5.2338  -5.1434  -5.0195  -4.8934  -4.8157  -4.8050  -4.8006
    -4.6766  -4.6146  -4.4430  -3.4948  -3.2450  -2.1789  -0.4557   0.0120
     0.1758   0.2934

     the Fermi energy is    -3.4855 ev

!    total energy              =    -329.41567267 Ry
     Harris-Foulkes estimate   =    -329.41567265 Ry
     estimated scf accuracy    <          5.9E-10 Ry

     The total energy is the sum of the following terms:

     one-electron contribution =    -574.05782982 Ry
     hartree contribution      =     308.66374380 Ry
     xc contribution           =     -51.34341515 Ry
     ewald contribution        =     -12.66639378 Ry
     smearing contrib. (-TS)   =      -0.01177771 Ry

     convergence has been achieved in  10 iterations

     Forces acting on atoms (Ry/au):

     atom    1 type  1   force =    -0.00196198    0.00853975    0.00063470
     atom    2 type  1   force =     0.00380947   -0.00583575    0.00425320
     atom    3 type  1   force =     0.00893837   -0.00104707   -0.00114631
     atom    4 type  1   force =    -0.01066814   -0.01347700   -0.00501105
     atom    5 type  1   force =    -0.00011772    0.01182008    0.00126945

     Total force =     0.026230     Total SCF correction =     0.000089

     number of scf cycles    =   4
     number of bfgs steps    =   3

     energy   old            =    -329.4135092188 Ry
     energy   new            =    -329.4156726673 Ry

     CASE: energy  _new < energy  _old

     new trust radius        =       0.0722438269 bohr
     new conv_thr            =       0.0000000013 Ry


ATOMIC_POSITIONS (bohr)
Au      -1.883095964   0.286428219   0.080221270
Au      -0.231345476   3.418964351   3.923040495
Au       1.880882086   3.880636297  -0.687110988
Au       5.051938759   4.551492711   3.640316791
Au       7.130739595   0.165364422   4.677656432



     Writing output data file pwscf.save
     Check: negative starting charge=   -0.005631
     NEW-OLD atomic charge density approx. for the potential
     Check: negative starting charge=   -0.005718

     negative rho (up, down):  8.623E-04 0.000E+00

     total cpu time spent up to now is       10.6 secs

     per-process dynamical memory:    50.7 Mb

     Self-consistent Calculation

     iteration #  1     ecut=    30.00 Ry     beta=0.70
     Davidson diagonalization with overlap
     ethr =  1.00E-06,  avg # of iterations =  8.0

     negative rho (up, down):  5.138E-05 0.000E+00

     total cpu time spent up to now is       11.1 secs

     total energy              =    -329.41712126 Ry
     Harris-Foulkes estimate   =    -329.41709701 Ry
     estimated scf accuracy    <       0.00140817 Ry

     iteration #  2     ecut=    30.00 Ry     beta=0.70
     Davidson diagonalization with overlap
     ethr =  2.56E-06,  avg # of iterations =  4.0

     negative rho (up, down):  2.603E-05 0.000E+00

     total cpu time spent up to now is       11.3 secs

     total energy              =    -329.41661117 Ry
     Harris-Foulkes estimate   =    -329.41902909 Ry
     estimated scf accuracy    <       0.00743076 Ry

     iteration #  3     ecut=    30.00 Ry     beta=0.70
     Davidson diagonalization with overlap
     ethr =  2.56E-06,  avg # of iterations =  3.0

     negative rho (up, down):  2.785E-06 0.000E+00

     total cpu time spent up to now is       11.6 secs

     total energy              =    -329.41776325 Ry
     Harris-Foulkes estimate   =    -329.41788650 Ry
     estimated scf accuracy    <       0.00036611 Ry

     iteration #  4     ecut=    30.00 Ry     beta=0.70
     Davidson diagonalization with overlap
     ethr =  6.66E-07,  avg # of iterations =  2.0

     total cpu time spent up to now is       11.8 secs

     total energy              =    -329.41783693 Ry
     Harris-Foulkes estimate   =    -329.41784162 Ry
     estimated scf accuracy    <       0.00003148 Ry

     iteration #  5     ecut=    30.00 Ry     beta=0.70
     Davidson diagonalization with overlap
     ethr =  5.72E-08,  avg # of iterations =  2.0

     total cpu time spent up to now is       12.0 secs

     total energy              =    -329.41784338 Ry
     Harris-Foulkes estimate   =    -329.41784718 Ry
     estimated scf accuracy    <       0.00001179 Ry

     iteration #  6     ecut=    30.00 Ry     beta=0.70
     Davidson diagonalization with overlap
     ethr =  2.14E-08,  avg # of iterations =  2.0

     total cpu time spent up to now is       12.2 secs

     total energy              =    -329.41784577 Ry
     Harris-Foulkes estimate   =    -329.41784623 Ry
     estimated scf accuracy    <       0.00000196 Ry

     iteration #  7     ecut=    30.00 Ry     beta=0.70
     Davidson diagonalization with overlap
     ethr =  3.56E-09,  avg # of iterations =  2.0

     total cpu time spent up to now is       12.4 secs

     total energy              =    -329.41784662 Ry
     Harris-Foulkes estimate   =    -329.41784632 Ry
     estimated scf accuracy    <       0.00000041 Ry

     iteration #  8     ecut=    30.00 Ry     beta=0.70
     Davidson diagonalization with overlap
     ethr =  7.53E-10,  avg # of iterations =  2.0

     total cpu time spent up to now is       12.6 secs

     total energy              =    -329.41784685 Ry
     Harris-Foulkes estimate   =    -329.41784671 Ry
     estimated scf accuracy    <       0.00000004 Ry

     iteration #  9     ecut=    30.00 Ry     beta=0.70
     Davidson diagonalization with overlap
     ethr =  6.56E-11,  avg # of iterations =  3.0

     total cpu time spent up to now is       12.9 secs

     total energy              =    -329.41784693 Ry
     Harris-Foulkes estimate   =    -329.41784686 Ry
     estimated scf accuracy    <       0.00000001 Ry

     iteration # 10     ecut=    30.00 Ry     beta=0.70
     Davidson diagonalization with overlap
     ethr =  2.52E-11,  avg # of iterations =  2.0

     total cpu time spent up to now is       13.1 secs

     End of self-consistent calculation

          k = 0.0000 0.0000 0.0000 ( 22119 PWs)   bands (ev):

    -8.2009  -7.6832  -7.2486  -7.0393  -6.9784  -6.7964  -6.5640  -6.5037
    -6.2820  -6.0909  -5.8060  -5.7832  -5.6737  -5.5295  -5.4145  -5.3836
    -5.2739  -5.2273  -5.1394  -5.0120  -4.9109  -4.8365  -4.8222  -4.8117
    -4.6755  -4.6172  -4.4370  -3.4905  -3.2524  -2.1298  -0.4579  -0.0061
     0.1728   0.3071

     the Fermi energy is    -3.4842 ev

!    total energy              =    -329.41784695 Ry
     Harris-Foulkes estimate   =    -329.41784694 Ry
     estimated scf accuracy    <          1.3E-09 Ry

     The total energy is the sum of the following terms:

     one-electron contribution =    -577.04107601 Ry
     hartree contribution      =     310.13019775 Ry
     xc contribution           =     -51.35089752 Ry
     ewald contribution        =     -11.14409905 Ry
     smearing contrib. (-TS)   =      -0.01197211 Ry

     convergence has been achieved in  10 iterations

     Forces acting on atoms (Ry/au):

     atom    1 type  1   force =    -0.00089716    0.00920322    0.00138261
     atom    2 type  1   force =     0.00252336   -0.00632783   -0.00015896
     atom    3 type  1   force =     0.00527147   -0.00175463    0.00028586
     atom    4 type  1   force =    -0.01178310   -0.00439596   -0.00546469
     atom    5 type  1   force =     0.00488544    0.00327520    0.00395518

     Total force =     0.020076     Total SCF correction =     0.000129

     number of scf cycles    =   5
     number of bfgs steps    =   4

     energy   old            =    -329.4156726673 Ry
     energy   new            =    -329.4178469473 Ry

     CASE: energy  _new < energy  _old

     new trust radius        =       0.1001067474 bohr
     new conv_thr            =       0.0000000012 Ry


ATOMIC_POSITIONS (bohr)
Au      -1.895719941   0.330891094   0.082465454
Au      -0.212311375   3.387466235   3.955454053
Au       1.932680322   3.877038240  -0.700401279
Au       4.993972205   4.474947878   3.611994925
Au       7.130497789   0.232542553   4.684610848



     Writing output data file pwscf.save
     Check: negative starting charge=   -0.005718
     NEW-OLD atomic charge density approx. for the potential
     Check: negative starting charge=   -0.005825

     negative rho (up, down):  1.460E-03 0.000E+00

     total cpu time spent up to now is       13.3 secs

     per-process dynamical memory:    50.7 Mb

     Self-consistent Calculation

     iteration #  1     ecut=    30.00 Ry     beta=0.70
     Davidson diagonalization with overlap
     ethr =  1.00E-06,  avg # of iterations =  8.0

     negative rho (up, down):  1.133E-04 0.000E+00

     total cpu time spent up to now is       13.7 secs

     total energy              =    -329.41768680 Ry
     Harris-Foulkes estimate   =    -329.41746441 Ry
     estimated scf accuracy    <       0.00246147 Ry

     iteration #  2     ecut=    30.00 Ry     beta=0.70
     Davidson diagonalization with overlap
     ethr =  4.48E-06,  avg # of iterations =  5.0

     negative rho (up, down):  6.041E-05 0.000E+00

     total cpu time spent up to now is       14.0 secs

     total energy              =    -329.41696232 Ry
     Harris-Foulkes estimate   =    -329.42062771 Ry
     estimated scf accuracy    <       0.01077443 Ry

     iteration #  3     ecut=    30.00 Ry     beta=0.70
     Davidson diagonalization with overlap
     ethr =  4.48E-06,  avg # of iterations =  3.0

     negative rho (up, down):  1.035E-05 0.000E+00

     total cpu time spent up to now is       14.3 secs

     total energy              =    -329.41871044 Ry
     Harris-Foulkes estimate   =    -329.41900393 Ry
     estimated scf accuracy    <       0.00091222 Ry

     iteration #  4     ecut=    30.00 Ry     beta=0.70
     Davidson diagonalization with overlap
     ethr =  1.66E-06,  avg # of iterations =  2.0

     total cpu time spent up to now is       14.5 secs

     total energy              =    -329.41887733 Ry
     Harris-Foulkes estimate   =    -329.41889037 Ry
     estimated scf accuracy    <       0.00006110 Ry

     iteration #  5     ecut=    30.00 Ry     beta=0.70
     Davidson diagonalization with overlap
     ethr =  1.11E-07,  avg # of iterations =  3.0

     total cpu time spent up to now is       14.7 secs

     total energy              =    -329.41888897 Ry
     Harris-Foulkes estimate   =    -329.41889863 Ry
     estimated scf accuracy    <       0.00002726 Ry

     iteration #  6     ecut=    30.00 Ry     beta=0.70
     Davidson diagonalization with overlap
     ethr =  4.96E-08,  avg # of iterations =  2.0

     total cpu time spent up to now is       14.9 secs

     total energy              =    -329.41889441 Ry
     Harris-Foulkes estimate   =    -329.41889544 Ry
     estimated scf accuracy    <       0.00000484 Ry

     iteration #  7     ecut=    30.00 Ry     beta=0.70
     Davidson diagonalization with overlap
     ethr =  8.80E-09,  avg # of iterations =  2.0

     total cpu time spent up to now is       15.1 secs

     total energy              =    -329.41889569 Ry
     Harris-Foulkes estimate   =    -329.41889558 Ry
     estimated scf accuracy    <       0.00000063 Ry

     iteration #  8     ecut=    30.00 Ry     beta=0.70
     Davidson diagonalization with overlap
     ethr =  1.15E-09,  avg # of iterations =  2.0

     total cpu time spent up to now is       15.3 secs

     total energy              =    -329.41889597 Ry
     Harris-Foulkes estimate   =    -329.41889584 Ry
     estimated scf accuracy    <       0.00000006 Ry

     iteration #  9     ecut=    30.00 Ry     beta=0.70
     Davidson diagonalization with overlap
     ethr =  1.11E-10,  avg # of iterations =  3.0

     total cpu time spent up to now is       15.6 secs

     total energy              =    -329.41889604 Ry
     Harris-Foulkes estimate   =    -329.41889599 Ry
     estimated scf accuracy    <       0.00000001 Ry

     iteration # 10     ecut=    30.00 Ry     beta=0.70
     Davidson diagonalization with overlap
     ethr =  2.19E-11,  avg # of iterations =  3.0

     total cpu time spent up to now is       15.8 secs

     total energy              =    -329.41889607 Ry
     Harris-Foulkes estimate   =    -329.41889604 Ry
     estimated scf accuracy    <          2.4E-09 Ry

     iteration # 11     ecut=    30.00 Ry     beta=0.70
     Davidson diagonalization with overlap
     ethr =  4.40E-12,  avg # of iterations =  3.0

     total cpu time spent up to now is       16.0 secs

     End of self-consistent calculation

          k = 0.0000 0.0000 0.0000 ( 22119 PWs)   bands (ev):

    -8.2032  -7.7227  -7.4112  -7.0892  -7.0010  -6.8056  -6.6437  -6.5425
    -6.3928  -6.1166  -5.8265  -5.7825  -5.7173  -5.5408  -5.4215  -5.3887
    -5.2685  -5.2232  -5.1372  -5.0096  -4.9302  -4.8691  -4.8430  -4.8103
    -4.6746  -4.6254  -4.4201  -3.4873  -3.2614  -2.0610  -0.4638  -0.0314
     0.1657   0.3320

     the Fermi energy is    -3.4846 ev

!    total energy              =    -329.41889607 Ry
     Harris-Foulkes estimate   =    -329.41889607 Ry
     estimated scf accuracy    <          9.0E-10 Ry

     The total energy is the sum of the following terms:

     one-electron contribution =    -581.31524816 Ry
     hartree contribution      =     312.22706635 Ry
     xc contribution           =     -51.36328547 Ry
     ewald contribution        =      -8.95533731 Ry
     smearing contrib. (-TS)   =      -0.01209148 Ry

     convergence has been achieved in  11 iterations

     Forces acting on atoms (Ry/au):

     atom    1 type  1   force =    -0.00018886    0.00886158    0.00143979
     atom    2 type  1   force =    -0.00031049   -0.00710128   -0.00365358
     atom    3 type  1   force =    -0.00024461   -0.00253629   -0.00013079
     atom    4 type  1   force =    -0.01168840    0.01173830   -0.00558375
     atom    5 type  1   force =     0.01243235   -0.01096231    0.00792833

     Total force =     0.028182     Total SCF correction =     0.000112

     number of scf cycles    =   6
     number of bfgs steps    =   5

     energy   old            =    -329.4178469473 Ry
     energy   new            =    -329.4188960690 Ry

     CASE: energy  _new < energy  _old

     new trust radius        =       0.0157416013 bohr
     new conv_thr            =       0.0000000010 Ry


ATOMIC_POSITIONS (bohr)
Au      -1.896859073   0.340832237   0.083665861
Au      -0.211641142   3.379563132   3.955311305
Au       1.935928107   3.874881188  -0.702095837
Au       4.980626643   4.480182231   3.605491422
Au       7.141064465   0.227427212   4.691751249



     Writing output data file pwscf.save
     Check: negative starting charge=   -0.005825
     NEW-OLD atomic charge density approx. for the potential
     Check: negative starting charge=   -0.005813

     negative rho (up, down):  2.237E-05 0.000E+00

     total cpu time spent up to now is       16.2 secs

     per-process dynamical memory:    50.7 Mb

     Self-consistent Calculation

     iteration #  1     ecut=    30.00 Ry     beta=0.70
     Davidson diagonalization with overlap
     ethr =  1.00E-06,  avg # of iterations =  4.0

     negative rho (up, down):  3.592E-08 0.000E+00

     total cpu time spent up to now is       16.5 secs

     total energy              =    -329.41946149 Ry
     Harris-Foulkes estimate   =    -329.41948243 Ry
     estimated scf accuracy    <       0.00005597 Ry

     iteration #  2     ecut=    30.00 Ry     beta=0.70
     Davidson diagonalization with overlap
     ethr =  1.02E-07,  avg # of iterations =  3.0

     total cpu time spent up to now is       16.8 secs

     total energy              =    -329.41944745 Ry
     Harris-Foulkes estimate   =    -329.41951735 Ry
     estimated scf accuracy    <       0.00018870 Ry

     iteration #  3     ecut=    30.00 Ry     beta=0.70
     Davidson diagonalization with overlap
     ethr =  1.02E-07,  avg # of iterations =  3.0

     total cpu time spent up to now is       17.0 secs

     total energy              =    -329.41948016 Ry
     Harris-Foulkes estimate   =    -329.41948901 Ry
     estimated scf accuracy    <       0.00002552 Ry

     iteration #  4     ecut=    30.00 Ry     beta=0.70
     Davidson diagonalization with overlap
     ethr =  4.64E-08,  avg # of iterations =  2.0

     total cpu time spent up to now is       17.2 secs

     total energy              =    -329.41948425 Ry
     Harris-Foulkes estimate   =    -329.41948611 Ry
     estimated scf accuracy    <       0.00000490 Ry

     iteration #  5     ecut=    30.00 Ry     beta=0.70
     Davidson diagonalization with overlap
     ethr =  8.91E-09,  avg # of iterations =  2.0

     total cpu time spent up to now is       17.4 secs

     total energy              =    -329.41948503 Ry
     Harris-Foulkes estimate   =    -329.41948557 Ry
     estimated scf accuracy    <       0.00000115 Ry

     iteration #  6     ecut=    30.00 Ry     beta=0.70
     Davidson diagonalization with overlap
     ethr =  2.10E-09,  avg # of iterations =  2.0

     total cpu time spent up to now is       17.6 secs

     total energy              =    -329.41948534 Ry
     Harris-Foulkes estimate   =    -329.41948527 Ry
     estimated scf accuracy    <       0.00000012 Ry

     iteration #  7     ecut=    30.00 Ry     beta=0.70
     Davidson diagonalization with overlap
     ethr =  2.10E-10,  avg # of iterations =  2.0

     total cpu time spent up to now is       17.8 secs

     total energy              =    -329.41948537 Ry
     Harris-Foulkes estimate   =    -329.41948539 Ry
     estimated scf accuracy    <       0.00000005 Ry

     iteration #  8     ecut=    30.00 Ry     beta=0.70
     Davidson diagonalization with overlap
     ethr =  9.94E-11,  avg # of iterations =  2.0

     total cpu time spent up to now is       18.0 secs

     total energy              =    -329.41948539 Ry
     Harris-Foulkes estimate   =    -329.41948538 Ry
     estimated scf accuracy    <          3.5E-09 Ry

     iteration #  9     ecut=    30.00 Ry     beta=0.70
     Davidson diagonalization with overlap
     ethr =  6.29E-12,  avg # of iterations =  3.0

     total cpu time spent up to now is       18.2 secs

     End of self-consistent calculation

          k = 0.0000 0.0000 0.0000 ( 22119 PWs)   bands (ev):

    -8.2143  -7.7336  -7.3825  -7.1063  -7.0070  -6.8059  -6.6574  -6.5449
    -6.3811  -6.1083  -5.8343  -5.7830  -5.7185  -5.5409  -5.4245  -5.3920
    -5.2713  -5.2264  -5.1397  -5.0052  -4.9320  -4.8638  -4.8396  -4.8124
    -4.6770  -4.6256  -4.4166  -3.4904  -3.2631  -2.0587  -0.4655  -0.0332
     0.1628   0.3353

     the Fermi energy is    -3.4874 ev

!    total energy              =    -329.41948540 Ry
     Harris-Foulkes estimate   =    -329.41948539 Ry
     estimated scf accuracy    <          4.6E-10 Ry

     The total energy is the sum of the following terms:

     one-electron contribution =    -581.37968654 Ry
     hartree contribution      =     312.25681876 Ry
     xc contribution           =     -51.36285167 Ry
     ewald contribution        =      -8.92174769 Ry
     smearing contrib. (-TS)   =      -0.01201825 Ry

     convergence has been achieved in   9 iterations

     Forces acting on atoms (Ry/au):

     atom    1 type  1   force =    -0.00066670    0.00810092    0.00101536
     atom    2 type  1   force =    -0.00040927   -0.00677571   -0.00299100
     atom    3 type  1   force =    -0.00030197   -0.00227258   -0.00060428
     atom    4 type  1   force =    -0.00907018    0.00823877   -0.00427540
     atom    5 type  1   force =     0.01044811   -0.00729139    0.00685533

     Total force =     0.022483     Total SCF correction =     0.000115

     number of scf cycles    =   7
     number of bfgs steps    =   6

     energy   old            =    -329.4188960690 Ry
     energy   new            =    -329.4194853999 Ry

     CASE: energy  _new < energy  _old


     WARNING: bfgs curvature condition failed, Theta= 0.980
     new trust radius        =       0.0173157615 bohr
     new conv_thr            =       0.0000000006 Ry


ATOMIC_POSITIONS (bohr)
Au      -1.899191423   0.353405910   0.084726644
Au      -0.209880558   3.369567066   3.957586956
Au       1.942363580   3.872573171  -0.705042412
Au       4.965123796   4.478534286   3.597956066
Au       7.150703605   0.228805568   4.698896746



     Writing output data file pwscf.save
     Check: negative starting charge=   -0.005813
     NEW-OLD atomic charge density approx. for the potential
     Check: negative starting charge=   -0.005805

     negative rho (up, down):  3.389E-05 0.000E+00

     total cpu time spent up to now is       18.4 secs

     per-process dynamical memory:    50.7 Mb

     Self-consistent Calculation

     iteration #  1     ecut=    30.00 Ry     beta=0.70
     Davidson diagonalization with overlap
     ethr =  1.00E-06,  avg # of iterations =  4.0

     negative rho (up, down):  1.075E-07 0.000E+00

     total cpu time spent up to now is       18.8 secs

     total energy              =    -329.41989737 Ry
     Harris-Foulkes estimate   =    -329.41992248 Ry
     estimated scf accuracy    <       0.00006506 Ry

     iteration #  2     ecut=    30.00 Ry     beta=0.70
     Davidson diagonalization with overlap
     ethr =  1.18E-07,  avg # of iterations =  3.0

     total cpu time spent up to now is       19.0 secs

     total energy              =    -329.41989881 Ry
     Harris-Foulkes estimate   =    -329.41994124 Ry
     estimated scf accuracy    <       0.00009302 Ry

     iteration #  3     ecut=    30.00 Ry     beta=0.70
     Davidson diagonalization with overlap
     ethr =  1.18E-07,  avg # of iterations =  2.0

     total cpu time spent up to now is       19.2 secs

     total energy              =    -329.41991662 Ry
     Harris-Foulkes estimate   =    -329.41992456 Ry
     estimated scf accuracy    <       0.00002058 Ry

     iteration #  4     ecut=    30.00 Ry     beta=0.70
     Davidson diagonalization with overlap
     ethr =  3.74E-08,  avg # of iterations =  2.0

     total cpu time spent up to now is       19.4 secs

     total energy              =    -329.41992123 Ry
     Harris-Foulkes estimate   =    -329.41992273 Ry
     estimated scf accuracy    <       0.00000635 Ry

     iteration #  5     ecut=    30.00 Ry     beta=0.70
     Davidson diagonalization with overlap
     ethr =  1.16E-08,  avg # of iterations =  2.0

     total cpu time spent up to now is       19.6 secs

     total energy              =    -329.41992211 Ry
     Harris-Foulkes estimate   =    -329.41992289 Ry
     estimated scf accuracy    <       0.00000188 Ry

     iteration #  6     ecut=    30.00 Ry     beta=0.70
     Davidson diagonalization with overlap
     ethr =  3.41E-09,  avg # of iterations =  2.0

     total cpu time spent up to now is       19.8 secs

     total energy              =    -329.41992259 Ry
     Harris-Foulkes estimate   =    -329.41992248 Ry
     estimated scf accuracy    <       0.00000018 Ry

     iteration #  7     ecut=    30.00 Ry     beta=0.70
     Davidson diagonalization with overlap
     ethr =  3.23E-10,  avg # of iterations =  3.0

     total cpu time spent up to now is       20.0 secs

     total energy              =    -329.41992259 Ry
     Harris-Foulkes estimate   =    -329.41992265 Ry
     estimated scf accuracy    <       0.00000006 Ry

     iteration #  8     ecut=    30.00 Ry     beta=0.70
     Davidson diagonalization with overlap
     ethr =  1.04E-10,  avg # of iterations =  2.0

     total cpu time spent up to now is       20.2 secs

     total energy              =    -329.41992259 Ry
     Harris-Foulkes estimate   =    -329.41992260 Ry
     estimated scf accuracy    <          6.0E-09 Ry

     iteration #  9     ecut=    30.00 Ry     beta=0.70
     Davidson diagonalization with overlap
     ethr =  1.09E-11,  avg # of iterations =  3.0

     total cpu time spent up to now is       20.5 secs

     total energy              =    -329.41992260 Ry
     Harris-Foulkes estimate   =    -329.41992259 Ry
     estimated scf accuracy    <          1.0E-09 Ry

     iteration # 10     ecut=    30.00 Ry     beta=0.70
     Davidson diagonalization with overlap
     ethr =  1.89E-12,  avg # of iterations =  2.0

     total cpu time spent up to now is       20.7 secs

     End of self-consistent calculation

          k = 0.0000 0.0000 0.0000 ( 22119 PWs)   bands (ev):

    -8.2249  -7.7457  -7.3714  -7.1268  -7.0129  -6.8070  -6.6749  -6.5500
    -6.3797  -6.1034  -5.8430  -5.7842  -5.7217  -5.5419  -5.4276  -5.3952
    -5.2734  -5.2290  -5.1418  -5.0021  -4.9345  -4.8620  -4.8380  -4.8139
    -4.6791  -4.6264  -4.4125  -3.4926  -3.2652  -2.0514  -0.4674  -0.0368
     0.1594   0.3406

     the Fermi energy is    -3.4897 ev

!    total energy              =    -329.41992259 Ry
     Harris-Foulkes estimate   =    -329.41992260 Ry
     estimated scf accuracy    <          1.0E-10 Ry

     The total energy is the sum of the following terms:

     one-electron contribution =    -581.75397354 Ry
     hartree contribution      =     312.43860106 Ry
     xc contribution           =     -51.36356165 Ry
     ewald contribution        =      -8.72902173 Ry
     smearing contrib. (-TS)   =      -0.01196673 Ry

     convergence has been achieved in  10 iterations

     Forces acting on atoms (Ry/au):

     atom    1 type  1   force =    -0.00096369    0.00752843    0.00063600
     atom    2 type  1   force =    -0.00065731   -0.00639047   -0.00258322
     atom    3 type  1   force =    -0.00070644   -0.00200655   -0.00107252
     atom    4 type  1   force =    -0.00699720    0.00650229   -0.00326445
     atom    5 type  1   force =     0.00932465   -0.00563371    0.00628419

     Total force =     0.019280     Total SCF correction =     0.000053

     number of scf cycles    =   8
     number of bfgs steps    =   7

     energy   old            =    -329.4194853999 Ry
     energy   new            =    -329.4199225923 Ry

     CASE: energy  _new < energy  _old

     new trust radius        =       0.0259736422 bohr
     new conv_thr            =       0.0000000004 Ry


ATOMIC_POSITIONS (bohr)
Au      -1.903476381   0.373778628   0.085983933
Au      -0.207358812   3.353289236   3.961614533
Au       1.952259536   3.869009510  -0.710526186
Au       4.942140071   4.473834148   3.586807650
Au       7.165554586   0.232974478   4.710244071



     Writing output data file pwscf.save
     Check: negative starting charge=   -0.005805
     NEW-OLD atomic charge density approx. for the potential
     Check: negative starting charge=   -0.005793

     negative rho (up, down):  1.242E-04 0.000E+00

     total cpu time spent up to now is       20.9 secs

     per-process dynamical memory:    50.7 Mb

     Self-consistent Calculation

     iteration #  1     ecut=    30.00 Ry     beta=0.70
     Davidson diagonalization with overlap
     ethr =  1.00E-06,  avg # of iterations =  4.0

     negative rho (up, down):  1.599E-06 0.000E+00

     total cpu time spent up to now is       21.3 secs

     total energy              =    -329.42040095 Ry
     Harris-Foulkes estimate   =    -329.42044303 Ry
     estimated scf accuracy    <       0.00016440 Ry

     iteration #  2     ecut=    30.00 Ry     beta=0.70
     Davidson diagonalization with overlap
     ethr =  2.99E-07,  avg # of iterations =  3.0

     negative rho (up, down):  1.893E-07 0.000E+00

     total cpu time spent up to now is       21.5 secs

     total energy              =    -329.42040603 Ry
     Harris-Foulkes estimate   =    -329.42051325 Ry
     estimated scf accuracy    <       0.00023590 Ry

     iteration #  3     ecut=    30.00 Ry     beta=0.70
     Davidson diagonalization with overlap
     ethr =  2.99E-07,  avg # of iterations =  2.0

     total cpu time spent up to now is       21.7 secs

     total energy              =    -329.42045149 Ry
     Harris-Foulkes estimate   =    -329.42047023 Ry
     estimated scf accuracy    <       0.00005037 Ry

     iteration #  4     ecut=    30.00 Ry     beta=0.70
     Davidson diagonalization with overlap
     ethr =  9.16E-08,  avg # of iterations =  2.0

     total cpu time spent up to now is       21.9 secs

     total energy              =    -329.42046210 Ry
     Harris-Foulkes estimate   =    -329.42046584 Ry
     estimated scf accuracy    <       0.00001299 Ry

     iteration #  5     ecut=    30.00 Ry     beta=0.70
     Davidson diagonalization with overlap
     ethr =  2.36E-08,  avg # of iterations =  2.0

     total cpu time spent up to now is       22.1 secs

     total energy              =    -329.42046424 Ry
     Harris-Foulkes estimate   =    -329.42046534 Ry
     estimated scf accuracy    <       0.00000310 Ry

     iteration #  6     ecut=    30.00 Ry     beta=0.70
     Davidson diagonalization with overlap
     ethr =  5.64E-09,  avg # of iterations =  2.0

     total cpu time spent up to now is       22.3 secs

     total energy              =    -329.42046499 Ry
     Harris-Foulkes estimate   =    -329.42046487 Ry
     estimated scf accuracy    <       0.00000013 Ry

     iteration #  7     ecut=    30.00 Ry     beta=0.70
     Davidson diagonalization with overlap
     ethr =  2.37E-10,  avg # of iterations =  3.0

     total cpu time spent up to now is       22.6 secs

     total energy              =    -329.42046504 Ry
     Harris-Foulkes estimate   =    -329.42046506 Ry
     estimated scf accuracy    <       0.00000013 Ry

     iteration #  8     ecut=    30.00 Ry     beta=0.70
     Davidson diagonalization with overlap
     ethr =  2.37E-10,  avg # of iterations =  2.0

     total cpu time spent up to now is       22.7 secs

     total energy              =    -329.42046505 Ry
     Harris-Foulkes estimate   =    -329.42046507 Ry
     estimated scf accuracy    <       0.00000003 Ry

     iteration #  9     ecut=    30.00 Ry     beta=0.70
     Davidson diagonalization with overlap
     ethr =  4.87E-11,  avg # of iterations =  2.0

     total cpu time spent up to now is       22.9 secs

     total energy              =    -329.42046499 Ry
     Harris-Foulkes estimate   =    -329.42046505 Ry
     estimated scf accuracy    <          2.3E-09 Ry

     iteration # 10     ecut=    30.00 Ry     beta=0.70
     Davidson diagonalization with overlap
     ethr =  4.13E-12,  avg # of iterations =  2.0

     total cpu time spent up to now is       23.2 secs

     End of self-consistent calculation

          k = 0.0000 0.0000 0.0000 ( 22119 PWs)   bands (ev):

    -8.2401  -7.7632  -7.3600  -7.1584  -7.0213  -6.8080  -6.7018  -6.5583
    -6.3805  -6.0970  -5.8565  -5.7868  -5.7257  -5.5434  -5.4321  -5.3996
    -5.2765  -5.2330  -5.1451  -4.9983  -4.9378  -4.8603  -4.8363  -4.8157
    -4.6825  -4.6277  -4.4067  -3.4953  -3.2684  -2.0392  -0.4703  -0.0430
     0.1540   0.3495

     the Fermi energy is    -3.4927 ev

!    total energy              =    -329.42046501 Ry
     Harris-Foulkes estimate   =    -329.42046499 Ry
     estimated scf accuracy    <          1.5E-10 Ry

     The total energy is the sum of the following terms:

     one-electron contribution =    -582.35667375 Ry
     hartree contribution      =     312.73133923 Ry
     xc contribution           =     -51.36489397 Ry
     ewald contribution        =      -8.41833404 Ry
     smearing contrib. (-TS)   =      -0.01190249 Ry

     convergence has been achieved in  10 iterations

     Forces acting on atoms (Ry/au):

     atom    1 type  1   force =    -0.00142672    0.00685998   -0.00000643
     atom    2 type  1   force =    -0.00111234   -0.00568907   -0.00207620
     atom    3 type  1   force =    -0.00141382   -0.00158840   -0.00182225
     atom    4 type  1   force =    -0.00375274    0.00430978   -0.00167548
     atom    5 type  1   force =     0.00770561   -0.00389229    0.00558037

     Total force =     0.015362     Total SCF correction =     0.000056

     number of scf cycles    =   9
     number of bfgs steps    =   8

     energy   old            =    -329.4199225923 Ry
     energy   new            =    -329.4204650150 Ry

     CASE: energy  _new < energy  _old

     new trust radius        =       0.0389604633 bohr
     new conv_thr            =       0.0000000005 Ry


ATOMIC_POSITIONS (bohr)
Au      -1.911645459   0.408902284   0.087126449
Au      -0.204498219   3.325402331   3.967691690
Au       1.966424906   3.863089803  -0.721209502
Au       4.907830436   4.465660565   3.570255937
Au       7.191007336   0.239831018   4.730259427



     Writing output data file pwscf.save
     Check: negative starting charge=   -0.005793
     NEW-OLD atomic charge density approx. for the potential
     Check: negative starting charge=   -0.005774

     negative rho (up, down):  3.887E-04 0.000E+00

     total cpu time spent up to now is       23.4 secs

     per-process dynamical memory:    50.7 Mb

     Self-consistent Calculation

     iteration #  1     ecut=    30.00 Ry     beta=0.70
     Davidson diagonalization with overlap
     ethr =  1.00E-06,  avg # of iterations =  5.0

     negative rho (up, down):  1.364E-05 0.000E+00

     total cpu time spent up to now is       23.8 secs

     total energy              =    -329.42092975 Ry
     Harris-Foulkes estimate   =    -329.42089884 Ry
     estimated scf accuracy    <       0.00045405 Ry

     iteration #  2     ecut=    30.00 Ry     beta=0.70
     Davidson diagonalization with overlap
     ethr =  8.26E-07,  avg # of iterations =  4.0

     negative rho (up, down):  3.015E-06 0.000E+00

     total cpu time spent up to now is       24.0 secs

     total energy              =    -329.42093839 Ry
     Harris-Foulkes estimate   =    -329.42125769 Ry
     estimated scf accuracy    <       0.00071769 Ry

     iteration #  3     ecut=    30.00 Ry     beta=0.70
     Davidson diagonalization with overlap
     ethr =  8.26E-07,  avg # of iterations =  2.0

     negative rho (up, down):  1.739E-07 0.000E+00

     total cpu time spent up to now is       24.2 secs

     total energy              =    -329.42107259 Ry
     Harris-Foulkes estimate   =    -329.42112910 Ry
     estimated scf accuracy    <       0.00014919 Ry

     iteration #  4     ecut=    30.00 Ry     beta=0.70
     Davidson diagonalization with overlap
     ethr =  2.71E-07,  avg # of iterations =  2.0

     total cpu time spent up to now is       24.4 secs

     total energy              =    -329.42110182 Ry
     Harris-Foulkes estimate   =    -329.42111247 Ry
     estimated scf accuracy    <       0.00003085 Ry

     iteration #  5     ecut=    30.00 Ry     beta=0.70
     Davidson diagonalization with overlap
     ethr =  5.61E-08,  avg # of iterations =  2.0

     total cpu time spent up to now is       24.6 secs

     total energy              =    -329.42110683 Ry
     Harris-Foulkes estimate   =    -329.42110987 Ry
     estimated scf accuracy    <       0.00000818 Ry

     iteration #  6     ecut=    30.00 Ry     beta=0.70
     Davidson diagonalization with overlap
     ethr =  1.49E-08,  avg # of iterations =  2.0

     total cpu time spent up to now is       24.8 secs

     total energy              =    -329.42110866 Ry
     Harris-Foulkes estimate   =    -329.42110845 Ry
     estimated scf accuracy    <       0.00000033 Ry

     iteration #  7     ecut=    30.00 Ry     beta=0.70
     Davidson diagonalization with overlap
     ethr =  6.05E-10,  avg # of iterations =  3.0

     total cpu time spent up to now is       25.1 secs

     total energy              =    -329.42110870 Ry
     Harris-Foulkes estimate   =    -329.42110884 Ry
     estimated scf accuracy    <       0.00000032 Ry

     iteration #  8     ecut=    30.00 Ry     beta=0.70
     Davidson diagonalization with overlap
     ethr =  5.86E-10,  avg # of iterations =  2.0

     total cpu time spent up to now is       25.3 secs

     total energy              =    -329.42110877 Ry
     Harris-Foulkes estimate   =    -329.42110878 Ry
     estimated scf accuracy    <       0.00000008 Ry

     iteration #  9     ecut=    30.00 Ry     beta=0.70
     Davidson diagonalization with overlap
     ethr =  1.49E-10,  avg # of iterations =  2.0

     total cpu time spent up to now is       25.5 secs

     total energy              =    -329.42110877 Ry
     Harris-Foulkes estimate   =    -329.42110878 Ry
     estimated scf accuracy    <          6.1E-09 Ry

     iteration # 10     ecut=    30.00 Ry     beta=0.70
     Davidson diagonalization with overlap
     ethr =  1.10E-11,  avg # of iterations =  2.0

     total cpu time spent up to now is       25.7 secs

     End of self-consistent calculation

          k = 0.0000 0.0000 0.0000 ( 22119 PWs)   bands (ev):

    -8.2626  -7.7888  -7.3422  -7.2081  -7.0331  -6.8071  -6.7436  -6.5713
    -6.3814  -6.0869  -5.8785  -5.7932  -5.7289  -5.5450  -5.4386  -5.4063
    -5.2814  -5.2400  -5.1509  -4.9937  -4.9413  -4.8572  -4.8334  -4.8183
    -4.6888  -4.6295  -4.3985  -3.4988  -3.2733  -2.0205  -0.4749  -0.0534
     0.1447   0.3646

     the Fermi energy is    -3.4969 ev

!    total energy              =    -329.42110878 Ry
     Harris-Foulkes estimate   =    -329.42110877 Ry
     estimated scf accuracy    <          5.0E-10 Ry

     The total energy is the sum of the following terms:

     one-electron contribution =    -583.18812038 Ry
     hartree contribution      =     313.13394381 Ry
     xc contribution           =     -51.36687532 Ry
     ewald contribution        =      -7.98823992 Ry
     smearing contrib. (-TS)   =      -0.01181698 Ry

     convergence has been achieved in  10 iterations

     Forces acting on atoms (Ry/au):

     atom    1 type  1   force =    -0.00256029    0.00592631   -0.00140338
     atom    2 type  1   force =    -0.00198643   -0.00453561   -0.00133772
     atom    3 type  1   force =    -0.00256009   -0.00116740   -0.00314571
     atom    4 type  1   force =     0.00153076    0.00098881    0.00105658
     atom    5 type  1   force =     0.00557606   -0.00121211    0.00483023

     Total force =     0.012169     Total SCF correction =     0.000101

     number of scf cycles    =  10
     number of bfgs steps    =   9

     energy   old            =    -329.4204650150 Ry
     energy   new            =    -329.4211087824 Ry

     CASE: energy  _new < energy  _old

     new trust radius        =       0.0584406950 bohr
     new conv_thr            =       0.0000000006 Ry


ATOMIC_POSITIONS (bohr)
Au      -1.927070296   0.465261323   0.086102752
Au      -0.203369391   3.281265485   3.975235923
Au       1.982877672   3.853508945  -0.740972629
Au       4.864030986   4.453513640   3.549654867
Au       7.232650030   0.249336608   4.764103087



     Writing output data file pwscf.save
     Check: negative starting charge=   -0.005774
     NEW-OLD atomic charge density approx. for the potential
     Check: negative starting charge=   -0.005765

     negative rho (up, down):  8.711E-04 0.000E+00

     total cpu time spent up to now is       25.9 secs

     per-process dynamical memory:    50.7 Mb

     Self-consistent Calculation

     iteration #  1     ecut=    30.00 Ry     beta=0.70
     Davidson diagonalization with overlap
     ethr =  1.00E-06,  avg # of iterations =  9.0

     negative rho (up, down):  5.238E-05 0.000E+00

     total cpu time spent up to now is       26.3 secs

     total energy              =    -329.42133737 Ry
     Harris-Foulkes estimate   =    -329.42101159 Ry
     estimated scf accuracy    <       0.00106767 Ry

     iteration #  2     ecut=    30.00 Ry     beta=0.70
     Davidson diagonalization with overlap
     ethr =  1.94E-06,  avg # of iterations =  5.0

     negative rho (up, down):  1.714E-05 0.000E+00

     total cpu time spent up to now is       26.6 secs

     total energy              =    -329.42134080 Ry
     Harris-Foulkes estimate   =    -329.42213778 Ry
     estimated scf accuracy    <       0.00184593 Ry

     iteration #  3     ecut=    30.00 Ry     beta=0.70
     Davidson diagonalization with overlap
     ethr =  1.94E-06,  avg # of iterations =  3.0

     negative rho (up, down):  1.963E-06 0.000E+00

     total cpu time spent up to now is       26.8 secs

     total energy              =    -329.42168365 Ry
     Harris-Foulkes estimate   =    -329.42182423 Ry
     estimated scf accuracy    <       0.00037888 Ry

     iteration #  4     ecut=    30.00 Ry     beta=0.70
     Davidson diagonalization with overlap
     ethr =  6.89E-07,  avg # of iterations =  2.0

     total cpu time spent up to now is       27.0 secs

     total energy              =    -329.42175608 Ry
     Harris-Foulkes estimate   =    -329.42177892 Ry
     estimated scf accuracy    <       0.00006435 Ry

     iteration #  5     ecut=    30.00 Ry     beta=0.70
     Davidson diagonalization with overlap
     ethr =  1.17E-07,  avg # of iterations =  2.0

     total cpu time spent up to now is       27.2 secs

     total energy              =    -329.42176585 Ry
     Harris-Foulkes estimate   =    -329.42177423 Ry
     estimated scf accuracy    <       0.00002235 Ry

     iteration #  6     ecut=    30.00 Ry     beta=0.70
     Davidson diagonalization with overlap
     ethr =  4.06E-08,  avg # of iterations =  2.0

     total cpu time spent up to now is       27.4 secs

     total energy              =    -329.42176954 Ry
     Harris-Foulkes estimate   =    -329.42177034 Ry
     estimated scf accuracy    <       0.00000198 Ry

     iteration #  7     ecut=    30.00 Ry     beta=0.70
     Davidson diagonalization with overlap
     ethr =  3.59E-09,  avg # of iterations =  2.0

     total cpu time spent up to now is       27.6 secs

     total energy              =    -329.42176983 Ry
     Harris-Foulkes estimate   =    -329.42177022 Ry
     estimated scf accuracy    <       0.00000087 Ry

     iteration #  8     ecut=    30.00 Ry     beta=0.70
     Davidson diagonalization with overlap
     ethr =  1.59E-09,  avg # of iterations =  2.0

     total cpu time spent up to now is       27.8 secs

     total energy              =    -329.42177004 Ry
     Harris-Foulkes estimate   =    -329.42177002 Ry
     estimated scf accuracy    <       0.00000009 Ry

     iteration #  9     ecut=    30.00 Ry     beta=0.70
     Davidson diagonalization with overlap
     ethr =  1.65E-10,  avg # of iterations =  2.0

     total cpu time spent up to now is       28.0 secs

     total energy              =    -329.42177013 Ry
     Harris-Foulkes estimate   =    -329.42177006 Ry
     estimated scf accuracy    <          9.3E-09 Ry

     iteration # 10     ecut=    30.00 Ry     beta=0.70
     Davidson diagonalization with overlap
     ethr =  1.70E-11,  avg # of iterations =  2.0

     total cpu time spent up to now is       28.3 secs

     total energy              =    -329.42177013 Ry
     Harris-Foulkes estimate   =    -329.42177013 Ry
     estimated scf accuracy    <          1.9E-09 Ry

     iteration # 11     ecut=    30.00 Ry     beta=0.70
     Davidson diagonalization with overlap
     ethr =  3.37E-12,  avg # of iterations =  3.0

     total cpu time spent up to now is       28.5 secs

     End of self-consistent calculation

          k = 0.0000 0.0000 0.0000 ( 22119 PWs)   bands (ev):

    -8.2890  -7.8204  -7.3143  -7.2748  -7.0457  -6.8040  -6.7966  -6.5894
    -6.3795  -6.0722  -5.9106  -5.8053  -5.7279  -5.5454  -5.4453  -5.4148
    -5.2890  -5.2513  -5.1601  -4.9910  -4.9420  -4.8523  -4.8289  -4.8217
    -4.7001  -4.6317  -4.3896  -3.5027  -3.2805  -1.9962  -0.4813  -0.0692
     0.1304   0.3876

     the Fermi energy is    -3.5020 ev

!    total energy              =    -329.42177015 Ry
     Harris-Foulkes estimate   =    -329.42177013 Ry
     estimated scf accuracy    <          5.6E-10 Ry

     The total energy is the sum of the following terms:

     one-electron contribution =    -583.98350665 Ry
     hartree contribution      =     313.51520300 Ry
     xc contribution           =     -51.36914808 Ry
     ewald contribution        =      -7.57258344 Ry
     smearing contrib. (-TS)   =      -0.01173497 Ry

     convergence has been achieved in  11 iterations

     Forces acting on atoms (Ry/au):

     atom    1 type  1   force =    -0.00442942    0.00385937   -0.00392134
     atom    2 type  1   force =    -0.00235575   -0.00284673    0.00029142
     atom    3 type  1   force =    -0.00328515   -0.00089416   -0.00451852
     atom    4 type  1   force =     0.00650408   -0.00323310    0.00397388
     atom    5 type  1   force =     0.00356624    0.00311462    0.00417456

     Total force =     0.014284     Total SCF correction =     0.000104

     number of scf cycles    =  11
     number of bfgs steps    =  10

     energy   old            =    -329.4211087824 Ry
     energy   new            =    -329.4217701460 Ry

     CASE: energy  _new < energy  _old

     new trust radius        =       0.0843242541 bohr
     new conv_thr            =       0.0000000007 Ry


ATOMIC_POSITIONS (bohr)
Au      -1.953868797   0.544902478   0.079052465
Au      -0.203245564   3.219359509   3.987854331
Au       2.003633900   3.839530360  -0.772819085
Au       4.811041913   4.429568853   3.526116992
Au       7.291557548   0.269524799   4.813919297



     Writing output data file pwscf.save
     Check: negative starting charge=   -0.005765
     NEW-OLD atomic charge density approx. for the potential
     Check: negative starting charge=   -0.005787

     negative rho (up, down):  1.560E-03 0.000E+00

     total cpu time spent up to now is       28.7 secs

     per-process dynamical memory:    50.7 Mb

     Self-consistent Calculation

     iteration #  1     ecut=    30.00 Ry     beta=0.70
     Davidson diagonalization with overlap
     ethr =  1.00E-06,  avg # of iterations = 10.0

     negative rho (up, down):  1.251E-04 0.000E+00

     total cpu time spent up to now is       29.2 secs

     total energy              =    -329.42130989 Ry
     Harris-Foulkes estimate   =    -329.42064250 Ry
     estimated scf accuracy    <       0.00214653 Ry

     iteration #  2     ecut=    30.00 Ry     beta=0.70
     Davidson diagonalization with overlap
     ethr =  3.90E-06,  avg # of iterations =  5.0

     negative rho (up, down):  4.773E-05 0.000E+00

     total cpu time spent up to now is       29.5 secs

     total energy              =    -329.42137065 Ry
     Harris-Foulkes estimate   =    -329.42288266 Ry
     estimated scf accuracy    <       0.00353280 Ry

     iteration #  3     ecut=    30.00 Ry     beta=0.70
     Davidson diagonalization with overlap
     ethr =  3.90E-06,  avg # of iterations =  3.0

     negative rho (up, down):  8.601E-06 0.000E+00

     total cpu time spent up to now is       29.7 secs

     total energy              =    -329.42202760 Ry
     Harris-Foulkes estimate   =    -329.42230121 Ry
     estimated scf accuracy    <       0.00075851 Ry

     iteration #  4     ecut=    30.00 Ry     beta=0.70
     Davidson diagonalization with overlap
     ethr =  1.38E-06,  avg # of iterations =  2.0

     total cpu time spent up to now is       29.9 secs

     total energy              =    -329.42217541 Ry
     Harris-Foulkes estimate   =    -329.42221508 Ry
     estimated scf accuracy    <       0.00011767 Ry

     iteration #  5     ecut=    30.00 Ry     beta=0.70
     Davidson diagonalization with overlap
     ethr =  2.14E-07,  avg # of iterations =  2.0

     total cpu time spent up to now is       30.1 secs

     total energy              =    -329.42219346 Ry
     Harris-Foulkes estimate   =    -329.42220575 Ry
     estimated scf accuracy    <       0.00003286 Ry

     iteration #  6     ecut=    30.00 Ry     beta=0.70
     Davidson diagonalization with overlap
     ethr =  5.98E-08,  avg # of iterations =  2.0

     total cpu time spent up to now is       30.3 secs

     total energy              =    -329.42219901 Ry
     Harris-Foulkes estimate   =    -329.42220023 Ry
     estimated scf accuracy    <       0.00000285 Ry

     iteration #  7     ecut=    30.00 Ry     beta=0.70
     Davidson diagonalization with overlap
     ethr =  5.17E-09,  avg # of iterations =  2.0

     total cpu time spent up to now is       30.5 secs

     total energy              =    -329.42219918 Ry
     Harris-Foulkes estimate   =    -329.42220013 Ry
     estimated scf accuracy    <       0.00000187 Ry

     iteration #  8     ecut=    30.00 Ry     beta=0.70
     Davidson diagonalization with overlap
     ethr =  3.40E-09,  avg # of iterations =  2.0

     total cpu time spent up to now is       30.7 secs

     total energy              =    -329.42219944 Ry
     Harris-Foulkes estimate   =    -329.42219957 Ry
     estimated scf accuracy    <       0.00000021 Ry

     iteration #  9     ecut=    30.00 Ry     beta=0.70
     Davidson diagonalization with overlap
     ethr =  3.80E-10,  avg # of iterations =  2.0

     total cpu time spent up to now is       30.9 secs

     total energy              =    -329.42219943 Ry
     Harris-Foulkes estimate   =    -329.42219949 Ry
     estimated scf accuracy    <       0.00000001 Ry

     iteration # 10     ecut=    30.00 Ry     beta=0.70
     Davidson diagonalization with overlap
     ethr =  2.60E-11,  avg # of iterations =  2.0

     total cpu time spent up to now is       31.2 secs

     total energy              =    -329.42219944 Ry
     Harris-Foulkes estimate   =    -329.42219943 Ry
     estimated scf accuracy    <          3.0E-09 Ry

     iteration # 11     ecut=    30.00 Ry     beta=0.70
     Davidson diagonalization with overlap
     ethr =  5.42E-12,  avg # of iterations =  3.0

     total cpu time spent up to now is       31.4 secs

     total energy              =    -329.42219942 Ry
     Harris-Foulkes estimate   =    -329.42219945 Ry
     estimated scf accuracy    <          8.4E-10 Ry

     iteration # 12     ecut=    30.00 Ry     beta=0.70
     Davidson diagonalization with overlap
     ethr =  1.52E-12,  avg # of iterations =  2.0

     total cpu time spent up to now is       31.6 secs

     End of self-consistent calculation

          k = 0.0000 0.0000 0.0000 ( 22119 PWs)   bands (ev):

    -8.3133  -7.8510  -7.3561  -7.2917  -7.0586  -6.8706  -6.7857  -6.6122
    -6.3827  -6.0559  -5.9478  -5.8246  -5.7214  -5.5455  -5.4491  -5.4248
    -5.2970  -5.2665  -5.1706  -4.9966  -4.9374  -4.8500  -4.8265  -4.8252
    -4.7190  -4.6356  -4.3814  -3.5069  -3.2910  -1.9641  -0.4893  -0.0926
     0.1107   0.4202

     the Fermi energy is    -3.5084 ev

!    total energy              =    -329.42219940 Ry
     Harris-Foulkes estimate   =    -329.42219942 Ry
     estimated scf accuracy    <          1.1E-10 Ry

     The total energy is the sum of the following terms:

     one-electron contribution =    -584.68070843 Ry
     hartree contribution      =     313.84325425 Ry
     xc contribution           =     -51.37173623 Ry
     ewald contribution        =      -7.20132123 Ry
     smearing contrib. (-TS)   =      -0.01168775 Ry

     convergence has been achieved in  12 iterations

     Forces acting on atoms (Ry/au):

     atom    1 type  1   force =    -0.00644511   -0.00071557   -0.00584113
     atom    2 type  1   force =    -0.00169817   -0.00135836    0.00328382
     atom    3 type  1   force =    -0.00348086    0.00004004   -0.00536705
     atom    4 type  1   force =     0.01172280   -0.00608412    0.00641110
     atom    5 type  1   force =    -0.00009866    0.00811802    0.00151326

     Total force =     0.020405     Total SCF correction =     0.000043

     number of scf cycles    =  12
     number of bfgs steps    =  11

     energy   old            =    -329.4217701460 Ry
     energy   new            =    -329.4221993989 Ry

     CASE: energy  _new < energy  _old

     new trust radius        =       0.0146050741 bohr
     new conv_thr            =       0.0000000004 Ry


ATOMIC_POSITIONS (bohr)
Au      -1.962931409   0.554636944   0.073017780
Au      -0.204576560   3.210059963   3.991580692
Au       2.002864436   3.837493585  -0.781049138
Au       4.813745636   4.423096288   3.528411939
Au       7.300016896   0.277599221   4.822162727



     Writing output data file pwscf.save
     Check: negative starting charge=   -0.005787
     NEW-OLD atomic charge density approx. for the potential
     Check: negative starting charge=   -0.005801

     negative rho (up, down):  2.557E-05 0.000E+00

     total cpu time spent up to now is       31.8 secs

     per-process dynamical memory:    50.7 Mb

     Self-consistent Calculation

     iteration #  1     ecut=    30.00 Ry     beta=0.70
     Davidson diagonalization with overlap
     ethr =  1.00E-06,  avg # of iterations =  4.0

     negative rho (up, down):  4.681E-08 0.000E+00

     total cpu time spent up to now is       32.2 secs

[...]

     negative rho (up, down):  3.199E-07 0.000E+00

     total cpu time spent up to now is      138.1 secs

     total energy              =    -329.45386345 Ry
     Harris-Foulkes estimate   =    -329.45389982 Ry
     estimated scf accuracy    <       0.00010370 Ry

     iteration #  2     ecut=    30.00 Ry     beta=0.70
     Davidson diagonalization with overlap
     ethr =  1.89E-07,  avg # of iterations =  3.0

     negative rho (up, down):  1.955E-08 0.000E+00

     total cpu time spent up to now is      138.4 secs

     total energy              =    -329.45387680 Ry
     Harris-Foulkes estimate   =    -329.45392717 Ry
     estimated scf accuracy    <       0.00010722 Ry

     iteration #  3     ecut=    30.00 Ry     beta=0.70
     Davidson diagonalization with overlap
     ethr =  1.89E-07,  avg # of iterations =  2.0

     total cpu time spent up to now is      138.6 secs

     total energy              =    -329.45389772 Ry
     Harris-Foulkes estimate   =    -329.45390640 Ry
     estimated scf accuracy    <       0.00002156 Ry

     iteration #  4     ecut=    30.00 Ry     beta=0.70
     Davidson diagonalization with overlap
     ethr =  3.92E-08,  avg # of iterations =  2.0

     total cpu time spent up to now is      138.8 secs

     total energy              =    -329.45390321 Ry
     Harris-Foulkes estimate   =    -329.45390460 Ry
     estimated scf accuracy    <       0.00000607 Ry

     iteration #  5     ecut=    30.00 Ry     beta=0.70
     Davidson diagonalization with overlap
     ethr =  1.10E-08,  avg # of iterations =  2.0

     total cpu time spent up to now is      139.0 secs

     total energy              =    -329.45390389 Ry
     Harris-Foulkes estimate   =    -329.45390454 Ry
     estimated scf accuracy    <       0.00000095 Ry

     iteration #  6     ecut=    30.00 Ry     beta=0.70
     Davidson diagonalization with overlap
     ethr =  1.72E-09,  avg # of iterations =  2.0

     total cpu time spent up to now is      139.2 secs

     total energy              =    -329.45390414 Ry
     Harris-Foulkes estimate   =    -329.45390411 Ry
     estimated scf accuracy    <       0.00000010 Ry

     iteration #  7     ecut=    30.00 Ry     beta=0.70
     Davidson diagonalization with overlap
     ethr =  1.77E-10,  avg # of iterations =  2.0

     total cpu time spent up to now is      139.4 secs

     total energy              =    -329.45390419 Ry
     Harris-Foulkes estimate   =    -329.45390417 Ry
     estimated scf accuracy    <       0.00000002 Ry

     iteration #  8     ecut=    30.00 Ry     beta=0.70
     Davidson diagonalization with overlap
     ethr =  3.55E-11,  avg # of iterations =  2.0

     total cpu time spent up to now is      139.6 secs

     total energy              =    -329.45390422 Ry
     Harris-Foulkes estimate   =    -329.45390419 Ry
     estimated scf accuracy    <          2.8E-09 Ry

     iteration #  9     ecut=    30.00 Ry     beta=0.70
     Davidson diagonalization with overlap
     ethr =  5.05E-12,  avg # of iterations =  3.0

     total cpu time spent up to now is      139.9 secs

     total energy              =    -329.45390425 Ry
     Harris-Foulkes estimate   =    -329.45390422 Ry
     estimated scf accuracy    <          2.3E-10 Ry

     iteration # 10     ecut=    30.00 Ry     beta=0.70
     Davidson diagonalization with overlap
     ethr =  4.14E-13,  avg # of iterations =  3.0

     total cpu time spent up to now is      140.1 secs

     End of self-consistent calculation

          k = 0.0000 0.0000 0.0000 ( 22119 PWs)   bands (ev):

    -8.6596  -8.1231  -7.6812  -7.3450  -6.9650  -6.8718  -6.8156  -6.4297
    -6.3913  -5.9335  -5.9133  -5.8937  -5.8116  -5.7408  -5.5631  -5.5428
    -5.4690  -5.4168  -5.3388  -5.2764  -5.1652  -5.0675  -4.8393  -4.8379
    -4.7506  -4.7047  -4.5085  -3.6959  -3.3201  -1.7150  -0.5851  -0.2314
     0.0684   0.6929

     the Fermi energy is    -3.6676 ev

!    total energy              =    -329.45390423 Ry
     Harris-Foulkes estimate   =    -329.45390425 Ry
     estimated scf accuracy    <          3.5E-11 Ry

     The total energy is the sum of the following terms:

     one-electron contribution =    -572.93998779 Ry
     hartree contribution      =     307.75905867 Ry
     xc contribution           =     -51.35476176 Ry
     ewald contribution        =     -12.90996789 Ry
     smearing contrib. (-TS)   =      -0.00824545 Ry

     convergence has been achieved in  10 iterations

     Forces acting on atoms (Ry/au):

     atom    1 type  1   force =     0.00118602    0.00143433    0.00078386
     atom    2 type  1   force =    -0.00200337   -0.00042852    0.00065669
     atom    3 type  1   force =    -0.00005804   -0.00010652   -0.00069250
     atom    4 type  1   force =     0.00311732   -0.00035038   -0.00170548
     atom    5 type  1   force =    -0.00224193   -0.00054891    0.00095743

     Total force =     0.005310     Total SCF correction =     0.000026

     number of scf cycles    =  48
     number of bfgs steps    =  46

     energy   old            =    -329.4538596593 Ry
     energy   new            =    -329.4539042258 Ry

     CASE: energy  _new < energy  _old

     new trust radius        =       0.0119410232 bohr
     new conv_thr            =            1.0E-10 Ry


ATOMIC_POSITIONS (bohr)
Au      -3.133367049   2.159010445  -0.645559298
Au      -0.164796175   1.641937626   3.399849339
Au       2.037992706   3.442282789  -1.031124450
Au       4.803704991   2.793508470   3.304204406
Au       8.405584527   2.266146670   6.606754004



     Writing output data file pwscf.save
     Check: negative starting charge=   -0.006068
     NEW-OLD atomic charge density approx. for the potential
     Check: negative starting charge=   -0.006068

     negative rho (up, down):  1.100E-05 0.000E+00

     total cpu time spent up to now is      140.3 secs

     per-process dynamical memory:    50.7 Mb

     Self-consistent Calculation

     iteration #  1     ecut=    30.00 Ry     beta=0.70
     Davidson diagonalization with overlap
     ethr =  1.00E-06,  avg # of iterations =  4.0

     Threshold (ethr) on eigenvalues was too large:
     Diagonalizing with lowered threshold

     Davidson diagonalization with overlap
     ethr =  7.18E-08,  avg # of iterations =  1.0

     total cpu time spent up to now is      140.8 secs

     total energy              =    -329.45391909 Ry
     Harris-Foulkes estimate   =    -329.45393456 Ry
     estimated scf accuracy    <       0.00003988 Ry

     iteration #  2     ecut=    30.00 Ry     beta=0.70
     Davidson diagonalization with overlap
     ethr =  7.25E-08,  avg # of iterations =  3.0

     total cpu time spent up to now is      141.0 secs

     total energy              =    -329.45392490 Ry
     Harris-Foulkes estimate   =    -329.45394280 Ry
     estimated scf accuracy    <       0.00003845 Ry

     iteration #  3     ecut=    30.00 Ry     beta=0.70
     Davidson diagonalization with overlap
     ethr =  6.99E-08,  avg # of iterations =  2.0

     total cpu time spent up to now is      141.2 secs

     total energy              =    -329.45393206 Ry
     Harris-Foulkes estimate   =    -329.45393525 Ry
     estimated scf accuracy    <       0.00000732 Ry

     iteration #  4     ecut=    30.00 Ry     beta=0.70
     Davidson diagonalization with overlap
     ethr =  1.33E-08,  avg # of iterations =  2.0

     total cpu time spent up to now is      141.4 secs

     total energy              =    -329.45393344 Ry
     Harris-Foulkes estimate   =    -329.45393466 Ry
     estimated scf accuracy    <       0.00000296 Ry

     iteration #  5     ecut=    30.00 Ry     beta=0.70
     Davidson diagonalization with overlap
     ethr =  5.39E-09,  avg # of iterations =  2.0

     total cpu time spent up to now is      141.6 secs

     total energy              =    -329.45393388 Ry
     Harris-Foulkes estimate   =    -329.45393401 Ry
     estimated scf accuracy    <       0.00000026 Ry

     iteration #  6     ecut=    30.00 Ry     beta=0.70
     Davidson diagonalization with overlap
     ethr =  4.69E-10,  avg # of iterations =  2.0

     total cpu time spent up to now is      141.8 secs

     total energy              =    -329.45393394 Ry
     Harris-Foulkes estimate   =    -329.45393395 Ry
     estimated scf accuracy    <       0.00000003 Ry

     iteration #  7     ecut=    30.00 Ry     beta=0.70
     Davidson diagonalization with overlap
     ethr =  5.55E-11,  avg # of iterations =  2.0

     total cpu time spent up to now is      142.0 secs

     total energy              =    -329.45393396 Ry
     Harris-Foulkes estimate   =    -329.45393395 Ry
     estimated scf accuracy    <          7.5E-09 Ry

     iteration #  8     ecut=    30.00 Ry     beta=0.70
     Davidson diagonalization with overlap
     ethr =  1.36E-11,  avg # of iterations =  2.0

     total cpu time spent up to now is      142.2 secs

     total energy              =    -329.45393391 Ry
     Harris-Foulkes estimate   =    -329.45393397 Ry
     estimated scf accuracy    <          1.0E-09 Ry

     iteration #  9     ecut=    30.00 Ry     beta=0.70
     Davidson diagonalization with overlap
     ethr =  1.83E-12,  avg # of iterations =  2.0

     total cpu time spent up to now is      142.4 secs

     End of self-consistent calculation

          k = 0.0000 0.0000 0.0000 ( 22119 PWs)   bands (ev):

    -8.6579  -8.1194  -7.6833  -7.3401  -6.9629  -6.8710  -6.8136  -6.4306
    -6.3899  -5.9335  -5.9145  -5.8930  -5.8116  -5.7418  -5.5617  -5.5423
    -5.4691  -5.4158  -5.3382  -5.2756  -5.1668  -5.0666  -4.8418  -4.8401
    -4.7521  -4.7053  -4.5104  -3.6956  -3.3196  -1.7162  -0.5841  -0.2306
     0.0686   0.6934

     the Fermi energy is    -3.6672 ev

!    total energy              =    -329.45393391 Ry
     Harris-Foulkes estimate   =    -329.45393391 Ry
     estimated scf accuracy    <          9.2E-11 Ry

     The total energy is the sum of the following terms:

     one-electron contribution =    -572.84444398 Ry
     hartree contribution      =     307.71165840 Ry
     xc contribution           =     -51.35445849 Ry
     ewald contribution        =     -12.95840941 Ry
     smearing contrib. (-TS)   =      -0.00828043 Ry

     convergence has been achieved in   9 iterations

     Forces acting on atoms (Ry/au):

     atom    1 type  1   force =     0.00130794    0.00139323    0.00095371
     atom    2 type  1   force =    -0.00229999   -0.00052111    0.00041569
     atom    3 type  1   force =     0.00004184   -0.00024346   -0.00010921
     atom    4 type  1   force =     0.00278741    0.00002857   -0.00229122
     atom    5 type  1   force =    -0.00183720   -0.00065723    0.00103102

     Total force =     0.005316     Total SCF correction =     0.000045

     number of scf cycles    =  49
     number of bfgs steps    =  47

     energy   old            =    -329.4539042258 Ry
     energy   new            =    -329.4539339057 Ry

     CASE: energy  _new < energy  _old

     new trust radius        =       0.0131351255 bohr
     new conv_thr            =            1.0E-10 Ry


ATOMIC_POSITIONS (bohr)
Au      -3.132692414   2.160514640  -0.642756806
Au      -0.160233585   1.641774880   3.400003719
Au       2.037811978   3.448369814  -1.036885969
Au       4.808367847   2.784796168   3.298267343
Au       8.395865174   2.267430498   6.615495713



     Writing output data file pwscf.save
     Check: negative starting charge=   -0.006068
     NEW-OLD atomic charge density approx. for the potential
     Check: negative starting charge=   -0.006068

     negative rho (up, down):  1.156E-05 0.000E+00

     total cpu time spent up to now is      142.7 secs

     per-process dynamical memory:    50.7 Mb

     Self-consistent Calculation

     iteration #  1     ecut=    30.00 Ry     beta=0.70
     Davidson diagonalization with overlap
     ethr =  1.00E-06,  avg # of iterations =  4.0

     Threshold (ethr) on eigenvalues was too large:
     Diagonalizing with lowered threshold

     Davidson diagonalization with overlap
     ethr =  7.75E-08,  avg # of iterations =  1.0

     total cpu time spent up to now is      143.1 secs

     total energy              =    -329.45395825 Ry
     Harris-Foulkes estimate   =    -329.45397588 Ry
     estimated scf accuracy    <       0.00004336 Ry

     iteration #  2     ecut=    30.00 Ry     beta=0.70
     Davidson diagonalization with overlap
     ethr =  7.88E-08,  avg # of iterations =  3.0

     total cpu time spent up to now is      143.4 secs

     total energy              =    -329.45396285 Ry
     Harris-Foulkes estimate   =    -329.45398519 Ry
     estimated scf accuracy    <       0.00004804 Ry

     iteration #  3     ecut=    30.00 Ry     beta=0.70
     Davidson diagonalization with overlap
     ethr =  7.88E-08,  avg # of iterations =  2.0

     total cpu time spent up to now is      143.6 secs

     total energy              =    -329.45397224 Ry
     Harris-Foulkes estimate   =    -329.45397616 Ry
     estimated scf accuracy    <       0.00001138 Ry

     iteration #  4     ecut=    30.00 Ry     beta=0.70
     Davidson diagonalization with overlap
     ethr =  2.07E-08,  avg # of iterations =  2.0

     total cpu time spent up to now is      143.8 secs

     total energy              =    -329.45397463 Ry
     Harris-Foulkes estimate   =    -329.45397553 Ry
     estimated scf accuracy    <       0.00000268 Ry

     iteration #  5     ecut=    30.00 Ry     beta=0.70
     Davidson diagonalization with overlap
     ethr =  4.88E-09,  avg # of iterations =  2.0

     total cpu time spent up to now is      144.0 secs

     total energy              =    -329.45397492 Ry
     Harris-Foulkes estimate   =    -329.45397516 Ry
     estimated scf accuracy    <       0.00000021 Ry

     iteration #  6     ecut=    30.00 Ry     beta=0.70
     Davidson diagonalization with overlap
     ethr =  3.90E-10,  avg # of iterations =  2.0

     total cpu time spent up to now is      144.2 secs

     total energy              =    -329.45397491 Ry
     Harris-Foulkes estimate   =    -329.45397498 Ry
     estimated scf accuracy    <       0.00000002 Ry

     iteration #  7     ecut=    30.00 Ry     beta=0.70
     Davidson diagonalization with overlap
     ethr =  3.33E-11,  avg # of iterations =  3.0

     total cpu time spent up to now is      144.4 secs

     total energy              =    -329.45397495 Ry
     Harris-Foulkes estimate   =    -329.45397492 Ry
     estimated scf accuracy    <          9.5E-09 Ry

     iteration #  8     ecut=    30.00 Ry     beta=0.70
     Davidson diagonalization with overlap
     ethr =  1.73E-11,  avg # of iterations =  2.0

     total cpu time spent up to now is      144.7 secs

     total energy              =    -329.45397496 Ry
     Harris-Foulkes estimate   =    -329.45397495 Ry
     estimated scf accuracy    <          1.5E-09 Ry

     iteration #  9     ecut=    30.00 Ry     beta=0.70
     Davidson diagonalization with overlap
     ethr =  2.70E-12,  avg # of iterations =  2.0

     total cpu time spent up to now is      144.9 secs

     total energy              =    -329.45397495 Ry
     Harris-Foulkes estimate   =    -329.45397497 Ry
     estimated scf accuracy    <          1.0E-10 Ry

     iteration # 10     ecut=    30.00 Ry     beta=0.70
     Davidson diagonalization with overlap
     ethr =  1.83E-13,  avg # of iterations =  3.0

     total cpu time spent up to now is      145.1 secs

     End of self-consistent calculation

          k = 0.0000 0.0000 0.0000 ( 22119 PWs)   bands (ev):

    -8.6539  -8.1150  -7.6832  -7.3360  -6.9593  -6.8720  -6.8112  -6.4295
    -6.3892  -5.9329  -5.9170  -5.8916  -5.8116  -5.7429  -5.5603  -5.5419
    -5.4687  -5.4149  -5.3377  -5.2752  -5.1675  -5.0658  -4.8438  -4.8420
    -4.7533  -4.7066  -4.5119  -3.6954  -3.3195  -1.7175  -0.5831  -0.2306
     0.0685   0.6943

     the Fermi energy is    -3.6668 ev

!    total energy              =    -329.45397495 Ry
     Harris-Foulkes estimate   =    -329.45397495 Ry
     estimated scf accuracy    <          2.3E-11 Ry

     The total energy is the sum of the following terms:

     one-electron contribution =    -572.73068579 Ry
     hartree contribution      =     307.65542402 Ry
     xc contribution           =     -51.35397829 Ry
     ewald contribution        =     -13.01641809 Ry
     smearing contrib. (-TS)   =      -0.00831679 Ry

     convergence has been achieved in  10 iterations

     Forces acting on atoms (Ry/au):

     atom    1 type  1   force =     0.00137796    0.00128827    0.00112371
     atom    2 type  1   force =    -0.00229945   -0.00054145    0.00008517
     atom    3 type  1   force =     0.00006567   -0.00040102    0.00043079
     atom    4 type  1   force =     0.00219408    0.00028153   -0.00255263
     atom    5 type  1   force =    -0.00133826   -0.00062732    0.00091296

     Total force =     0.005019     Total SCF correction =     0.000022

     number of scf cycles    =  50
     number of bfgs steps    =  48

     energy   old            =    -329.4539339057 Ry
     energy   new            =    -329.4539749533 Ry

     CASE: energy  _new < energy  _old

     new trust radius        =       0.0197026883 bohr
     new conv_thr            =            1.0E-10 Ry


ATOMIC_POSITIONS (bohr)
Au      -3.129394971   2.165157225  -0.637936864
Au      -0.156654110   1.640472327   3.402543120
Au       2.039201851   3.455548224  -1.044194561
Au       4.815448691   2.774320262   3.285861663
Au       8.380517540   2.267387963   6.627850642



     Writing output data file pwscf.save
     Check: negative starting charge=   -0.006068
     NEW-OLD atomic charge density approx. for the potential
     Check: negative starting charge=   -0.006071

     negative rho (up, down):  4.329E-05 0.000E+00

     Writing output data file pwscf.save
 
     init_run     :      0.16s CPU      0.18s WALL (       1 calls)
     electrons    :    127.04s CPU    135.94s WALL (      50 calls)
     update_pot   :      3.31s CPU      3.98s WALL (      50 calls)
     forces       :      2.08s CPU      2.11s WALL (      50 calls)

     Called by init_run:
     wfcinit      :      0.07s CPU      0.08s WALL (       1 calls)
     potinit      :      0.03s CPU      0.03s WALL (       1 calls)

     Called by electrons:
     c_bands      :     97.40s CPU     98.48s WALL (     569 calls)
     sum_band     :     13.20s CPU     13.52s WALL (     569 calls)
     v_of_rho     :     10.96s CPU     11.11s WALL (     612 calls)
     mix_rho      :      4.73s CPU     10.13s WALL (     569 calls)

     Called by c_bands:
     init_us_2    :      1.70s CPU      1.79s WALL (    1139 calls)
     cegterg      :     87.13s CPU     87.80s WALL (     569 calls)

     Called by sum_band:

     Called by *egterg:
     h_psi        :     66.57s CPU     67.09s WALL (    2273 calls)
     g_psi        :      0.66s CPU      0.67s WALL (    1703 calls)
     cdiaghg      :      5.45s CPU      5.47s WALL (    2215 calls)

     Called by h_psi:
     h_psi:pot    :     65.54s CPU     66.04s WALL (    2273 calls)
     h_psi:calbec :      3.77s CPU      3.78s WALL (    2273 calls)
     vloc_psi     :     57.50s CPU     57.98s WALL (    2273 calls)
     add_vuspsi   :      4.26s CPU      4.26s WALL (    2273 calls)

     General routines
     calbec       :      4.37s CPU      4.41s WALL (    2473 calls)
     fft          :      5.98s CPU      6.12s WALL (    6848 calls)
     fftw         :     60.17s CPU     61.12s WALL (  128144 calls)
     davcio       :      0.78s CPU      5.04s WALL (    6574 calls)
 
     Parallel routines
     fft_scatter  :     15.38s CPU     14.84s WALL (  134992 calls)
 
     PWSCF        :  2m13.96s CPU     2m25.41s WALL

 
   This run was terminated on:   7: 2:27   4Aug2017            

=------------------------------------------------------------------------------=
   JOB DONE.
=------------------------------------------------------------------------------=
