
     Program PWSCF v.6.0 (svn rev. 13079) starts on  3Aug2017 at 19:53:28 

     This program is part of the open-source Quantum ESPRESSO suite
     for quantum simulation of materials; please cite
         "P. Giannozzi et al., J. Phys.:Condens. Matter 21 395502 (2009);
          URL http://www.quantum-espresso.org", 
     in publications or presentations arising from this work. More details at
     http://www.quantum-espresso.org/quote

     Parallel version (MPI), running on    10 processors
     R & G space division:  proc/nbgrp/npool/nimage =      10
     Reading input from input/multi/minchecks-Gold5-414.in

     Current dimensions of program PWSCF are:
     Max number of different atomic species (ntypx) = 10
     Max number of k-points (npk) =  40000
     Max angular momentum in pseudopotentials (lmaxx) =  3
     Message from routine iosys:
     pot_extrapolation='second-order' not available, using 'atomic'
     Message from routine iosys:
     wfc_extrapolation='second-order' not available, using 'atomic'

     Subspace diagonalization in iterative solution of the eigenvalue problem:
     a serial algorithm will be used

 
     Parallelization info
     --------------------
     sticks:   dense  smooth     PW     G-vecs:    dense   smooth      PW
     Min         380     380     94                17748    17748    2208
     Max         381     381     95                17753    17753    2213
     Sum        3809    3809    949               177509   177509   22119
 


     bravais-lattice index     =            1
     lattice parameter (alat)  =      20.0000  a.u.
     unit-cell volume          =    8000.0000 (a.u.)^3
     number of atoms/cell      =            5
     number of atomic types    =            1
     number of electrons       =        55.00
     number of Kohn-Sham states=           34
     kinetic-energy cutoff     =      30.0000  Ry
     charge density cutoff     =     120.0000  Ry
     convergence threshold     =      1.0E-08
     mixing beta               =       0.7000
     number of iterations used =            8  plain     mixing
     Exchange-correlation      = BLYP ( 1  3  1  3 0 0)
     nstep                     =           50


     celldm(1)=  20.000000  celldm(2)=   0.000000  celldm(3)=   0.000000
     celldm(4)=   0.000000  celldm(5)=   0.000000  celldm(6)=   0.000000

     crystal axes: (cart. coord. in units of alat)
               a(1) = (   1.000000   0.000000   0.000000 )  
               a(2) = (   0.000000   1.000000   0.000000 )  
               a(3) = (   0.000000   0.000000   1.000000 )  

     reciprocal axes: (cart. coord. in units 2 pi/alat)
               b(1) = (  1.000000  0.000000  0.000000 )  
               b(2) = (  0.000000  1.000000  0.000000 )  
               b(3) = (  0.000000  0.000000  1.000000 )  


     PseudoPot. # 1 for Au read from file:
     ./Au.blyp-d-hgh.UPF
     MD5 check sum: c10d8bae01f806c36a1643a1c69a8479
     Pseudo is Norm-conserving, Zval = 11.0
     Generated in analytical, separable form
     Using radial grid of 1279 points,  6 beta functions with: 
                l(1) =   0
                l(2) =   0
                l(3) =   1
                l(4) =   1
                l(5) =   2
                l(6) =   2

     atomic species   valence    mass     pseudopotential
        Au            11.00    28.08600     Au( 1.00)

     No symmetry found



   Cartesian axes

     site n.     atom                  positions (alat units)
         1           Au  tau(   1) = (  -0.0901771   0.0720198  -0.0342107  )
         2           Au  tau(   2) = (  -0.0357022   0.1265558   0.2081806  )
         3           Au  tau(   3) = (   0.1582070   0.0824614   0.0166848  )
         4           Au  tau(   4) = (   0.2034550   0.1648012   0.2867108  )
         5           Au  tau(   5) = (   0.3870204   0.1077557   0.1192359  )

     number of k points=     1  Marzari-Vanderbilt smearing, width (Ry)=  0.0250
                       cart. coord. in units 2pi/alat
        k(    1) = (   0.0000000   0.0000000   0.0000000), wk =   2.0000000

     Dense  grid:   177509 G-vectors     FFT dimensions: (  72,  72,  72)

     Estimated max dynamical RAM per process >      15.04Mb

     Estimated total allocated dynamical RAM >     150.39Mb

     Initial potential from superposition of free atoms
     Check: negative starting charge=   -0.006503

     starting charge   54.99940, renormalised to   55.00000

     negative rho (up, down):  6.503E-03 0.000E+00
     Starting wfc are   45 randomized atomic wfcs

     total cpu time spent up to now is        0.3 secs

     per-process dynamical memory:    41.0 Mb

     Self-consistent Calculation

     iteration #  1     ecut=    30.00 Ry     beta=0.70
     Davidson diagonalization with overlap
     ethr =  1.00E-02,  avg # of iterations =  3.0

     Threshold (ethr) on eigenvalues was too large:
     Diagonalizing with lowered threshold

     Davidson diagonalization with overlap
     ethr =  4.05E-04,  avg # of iterations =  3.0

     negative rho (up, down):  9.077E-04 0.000E+00

     total cpu time spent up to now is        0.7 secs

     total energy              =    -329.37787934 Ry
     Harris-Foulkes estimate   =    -329.54558411 Ry
     estimated scf accuracy    <       0.27864635 Ry

     iteration #  2     ecut=    30.00 Ry     beta=0.70
     Davidson diagonalization with overlap
     ethr =  5.07E-04,  avg # of iterations =  2.0

     negative rho (up, down):  4.003E-04 0.000E+00

     total cpu time spent up to now is        0.9 secs

     total energy              =    -329.41635173 Ry
     Harris-Foulkes estimate   =    -329.55811210 Ry
     estimated scf accuracy    <       0.28846457 Ry

     iteration #  3     ecut=    30.00 Ry     beta=0.70
     Davidson diagonalization with overlap
     ethr =  5.07E-04,  avg # of iterations =  2.0

     negative rho (up, down):  1.556E-04 0.000E+00

     total cpu time spent up to now is        1.2 secs

     total energy              =    -329.47502030 Ry
     Harris-Foulkes estimate   =    -329.50095690 Ry
     estimated scf accuracy    <       0.06803491 Ry

     iteration #  4     ecut=    30.00 Ry     beta=0.70
     Davidson diagonalization with overlap
     ethr =  1.24E-04,  avg # of iterations =  2.0

     negative rho (up, down):  6.747E-06 0.000E+00

     total cpu time spent up to now is        1.3 secs

     total energy              =    -329.48706348 Ry
     Harris-Foulkes estimate   =    -329.48832281 Ry
     estimated scf accuracy    <       0.00308098 Ry

     iteration #  5     ecut=    30.00 Ry     beta=0.70
     Davidson diagonalization with overlap
     ethr =  5.60E-06,  avg # of iterations =  6.0

     total cpu time spent up to now is        1.6 secs

     total energy              =    -329.48776241 Ry
     Harris-Foulkes estimate   =    -329.48882354 Ry
     estimated scf accuracy    <       0.00292224 Ry

     iteration #  6     ecut=    30.00 Ry     beta=0.70
     Davidson diagonalization with overlap
     ethr =  5.31E-06,  avg # of iterations =  2.0

     total cpu time spent up to now is        1.8 secs

     total energy              =    -329.48820939 Ry
     Harris-Foulkes estimate   =    -329.48837507 Ry
     estimated scf accuracy    <       0.00041409 Ry

     iteration #  7     ecut=    30.00 Ry     beta=0.70
     Davidson diagonalization with overlap
     ethr =  7.53E-07,  avg # of iterations =  2.0

     total cpu time spent up to now is        2.0 secs

     total energy              =    -329.48828978 Ry
     Harris-Foulkes estimate   =    -329.48830712 Ry
     estimated scf accuracy    <       0.00004289 Ry

     iteration #  8     ecut=    30.00 Ry     beta=0.70
     Davidson diagonalization with overlap
     ethr =  7.80E-08,  avg # of iterations =  2.0

     total cpu time spent up to now is        2.3 secs

     total energy              =    -329.48829825 Ry
     Harris-Foulkes estimate   =    -329.48830502 Ry
     estimated scf accuracy    <       0.00001503 Ry

     iteration #  9     ecut=    30.00 Ry     beta=0.70
     Davidson diagonalization with overlap
     ethr =  2.73E-08,  avg # of iterations =  2.0

     total cpu time spent up to now is        2.5 secs

     total energy              =    -329.48830114 Ry
     Harris-Foulkes estimate   =    -329.48830198 Ry
     estimated scf accuracy    <       0.00000155 Ry

     iteration # 10     ecut=    30.00 Ry     beta=0.70
     Davidson diagonalization with overlap
     ethr =  2.82E-09,  avg # of iterations =  2.0

     total cpu time spent up to now is        2.7 secs

     total energy              =    -329.48830124 Ry
     Harris-Foulkes estimate   =    -329.48830166 Ry
     estimated scf accuracy    <       0.00000040 Ry

     iteration # 11     ecut=    30.00 Ry     beta=0.70
     Davidson diagonalization with overlap
     ethr =  7.33E-10,  avg # of iterations =  2.0

     total cpu time spent up to now is        3.0 secs

     total energy              =    -329.48830128 Ry
     Harris-Foulkes estimate   =    -329.48830133 Ry
     estimated scf accuracy    <       0.00000004 Ry

     iteration # 12     ecut=    30.00 Ry     beta=0.70
     Davidson diagonalization with overlap
     ethr =  8.00E-11,  avg # of iterations =  3.0

     total cpu time spent up to now is        3.2 secs

     total energy              =    -329.48830127 Ry
     Harris-Foulkes estimate   =    -329.48830129 Ry
     estimated scf accuracy    <       0.00000001 Ry

     iteration # 13     ecut=    30.00 Ry     beta=0.70
     Davidson diagonalization with overlap
     ethr =  1.86E-11,  avg # of iterations =  2.0

     total cpu time spent up to now is        3.4 secs

     End of self-consistent calculation

          k = 0.0000 0.0000 0.0000 ( 22119 PWs)   bands (ev):

    -8.3951  -7.7170  -7.6424  -7.1904  -6.9747  -6.7542  -6.7066  -6.4540
    -6.2954  -6.0381  -5.9894  -5.7539  -5.7120  -5.6674  -5.4082  -5.3565
    -5.3346  -5.2189  -5.1900  -5.1741  -5.1647  -5.1388  -5.0023  -4.8811
    -4.8493  -4.7079  -4.3945  -3.8070  -2.5373  -2.1435  -0.5654  -0.2533
     0.4913   0.9133

     the Fermi energy is    -3.7922 ev

!    total energy              =    -329.48830126 Ry
     Harris-Foulkes estimate   =    -329.48830128 Ry
     estimated scf accuracy    <          3.1E-09 Ry

     The total energy is the sum of the following terms:

     one-electron contribution =    -609.19764604 Ry
     hartree contribution      =     326.06422268 Ry
     xc contribution           =     -51.41265655 Ry
     ewald contribution        =       5.05841554 Ry
     smearing contrib. (-TS)   =      -0.00063690 Ry

     convergence has been achieved in  13 iterations

     Forces acting on atoms (Ry/au):

     atom    1 type  1   force =     0.00067270   -0.00350840   -0.00699204
     atom    2 type  1   force =    -0.00294602   -0.00143709   -0.00249185
     atom    3 type  1   force =    -0.00783102    0.00365152    0.01083995
     atom    4 type  1   force =     0.00672228    0.00028419    0.00077681
     atom    5 type  1   force =     0.00338207    0.00100978   -0.00213287

     Total force =     0.018266     Total SCF correction =     0.000259

     BFGS Geometry Optimization

     number of scf cycles    =   1
     number of bfgs steps    =   0

     energy   new            =    -329.4883012638 Ry

     new trust radius        =       0.0138622899 bohr
     new conv_thr            =       0.0000000100 Ry


ATOMIC_POSITIONS (bohr)
Au      -1.802869304   1.436888598  -0.691207044
Au      -0.716989023   2.529679911   4.161120149
Au       3.156309979   1.652879522   0.344534953
Au       4.075822277   3.296308185   5.734991810
Au       7.743789072   2.156123784   2.382585131



     Writing output data file pwscf.save
     Check: negative starting charge=   -0.006503
     NEW-OLD atomic charge density approx. for the potential
     Check: negative starting charge=   -0.006500

     negative rho (up, down):  1.062E-05 0.000E+00

     total cpu time spent up to now is        3.6 secs

     per-process dynamical memory:    42.9 Mb

     Self-consistent Calculation

     iteration #  1     ecut=    30.00 Ry     beta=0.70
     Davidson diagonalization with overlap
     ethr =  1.00E-06,  avg # of iterations =  4.0

     Threshold (ethr) on eigenvalues was too large:
     Diagonalizing with lowered threshold

     Davidson diagonalization with overlap
     ethr =  3.56E-08,  avg # of iterations =  1.0

     negative rho (up, down):  1.151E-08 0.000E+00

     total cpu time spent up to now is        4.1 secs

     total energy              =    -329.48861188 Ry
     Harris-Foulkes estimate   =    -329.48861062 Ry
     estimated scf accuracy    <       0.00001995 Ry

     iteration #  2     ecut=    30.00 Ry     beta=0.70
     Davidson diagonalization with overlap
     ethr =  3.63E-08,  avg # of iterations =  3.0

     total cpu time spent up to now is        4.3 secs

     total energy              =    -329.48861558 Ry
     Harris-Foulkes estimate   =    -329.48862061 Ry
     estimated scf accuracy    <       0.00001192 Ry

     iteration #  3     ecut=    30.00 Ry     beta=0.70
     Davidson diagonalization with overlap
     ethr =  2.17E-08,  avg # of iterations =  2.0

     total cpu time spent up to now is        4.5 secs

     total energy              =    -329.48861832 Ry
     Harris-Foulkes estimate   =    -329.48861976 Ry
     estimated scf accuracy    <       0.00000479 Ry

     iteration #  4     ecut=    30.00 Ry     beta=0.70
     Davidson diagonalization with overlap
     ethr =  8.71E-09,  avg # of iterations =  2.0

     total cpu time spent up to now is        4.7 secs

     total energy              =    -329.48861977 Ry
     Harris-Foulkes estimate   =    -329.48861981 Ry
     estimated scf accuracy    <       0.00000140 Ry

     iteration #  5     ecut=    30.00 Ry     beta=0.70
     Davidson diagonalization with overlap
     ethr =  2.54E-09,  avg # of iterations =  2.0

     total cpu time spent up to now is        4.9 secs

     total energy              =    -329.48862020 Ry
     Harris-Foulkes estimate   =    -329.48862008 Ry
     estimated scf accuracy    <       0.00000020 Ry

     iteration #  6     ecut=    30.00 Ry     beta=0.70
     Davidson diagonalization with overlap
     ethr =  3.60E-10,  avg # of iterations =  2.0

     total cpu time spent up to now is        5.1 secs

     total energy              =    -329.48862033 Ry
     Harris-Foulkes estimate   =    -329.48862025 Ry
     estimated scf accuracy    <       0.00000002 Ry

     iteration #  7     ecut=    30.00 Ry     beta=0.70
     Davidson diagonalization with overlap
     ethr =  3.16E-11,  avg # of iterations =  2.0

     total cpu time spent up to now is        5.3 secs

     End of self-consistent calculation

          k = 0.0000 0.0000 0.0000 ( 22119 PWs)   bands (ev):

    -8.4023  -7.7221  -7.6387  -7.1945  -6.9694  -6.7580  -6.7038  -6.4552
    -6.2953  -6.0367  -5.9936  -5.7553  -5.7146  -5.6688  -5.4062  -5.3635
    -5.3338  -5.2191  -5.1908  -5.1791  -5.1658  -5.1399  -5.0035  -4.8852
    -4.8555  -4.7072  -4.4027  -3.8032  -2.5368  -2.1493  -0.5661  -0.2500
     0.4885   0.9118

     the Fermi energy is    -3.7864 ev

!    total energy              =    -329.48862029 Ry
     Harris-Foulkes estimate   =    -329.48862033 Ry
     estimated scf accuracy    <          5.0E-09 Ry

     The total energy is the sum of the following terms:

     one-electron contribution =    -609.17984213 Ry
     hartree contribution      =     326.05127176 Ry
     xc contribution           =     -51.41117000 Ry
     ewald contribution        =       5.05216575 Ry
     smearing contrib. (-TS)   =      -0.00104567 Ry

     convergence has been achieved in   7 iterations

     Forces acting on atoms (Ry/au):

     atom    1 type  1   force =     0.00036672   -0.00340321   -0.00691251
     atom    2 type  1   force =    -0.00211248   -0.00114322   -0.00186482
     atom    3 type  1   force =    -0.00663882    0.00338930    0.01039229
     atom    4 type  1   force =     0.00555613    0.00018785    0.00076010
     atom    5 type  1   force =     0.00282845    0.00096927   -0.00237507

     Total force =     0.016684     Total SCF correction =     0.000215

     number of scf cycles    =   2
     number of bfgs steps    =   1

     energy   old            =    -329.4883012638 Ry
     energy   new            =    -329.4886202894 Ry

     CASE: energy  _new < energy  _old


     WARNING: bfgs curvature condition failed, Theta= 0.879
     new trust radius        =       0.0152485189 bohr
     new conv_thr            =       0.0000000003 Ry


ATOMIC_POSITIONS (bohr)
Au      -1.802355851   1.432879642  -0.699312856
Au      -0.719689901   2.528261734   4.158765993
Au       3.148216632   1.656915623   0.356811962
Au       4.082642272   3.296554502   5.735885332
Au       7.747249848   2.157268499   2.379874569



     Writing output data file pwscf.save
     Check: negative starting charge=   -0.006500
     NEW-OLD atomic charge density approx. for the potential
     Check: negative starting charge=   -0.006497

     negative rho (up, down):  1.499E-05 0.000E+00

     total cpu time spent up to now is        5.6 secs

     per-process dynamical memory:    50.6 Mb

     Self-consistent Calculation

     iteration #  1     ecut=    30.00 Ry     beta=0.70
     Davidson diagonalization with overlap
     ethr =  1.00E-06,  avg # of iterations =  4.0

     Threshold (ethr) on eigenvalues was too large:
     Diagonalizing with lowered threshold

     Davidson diagonalization with overlap
     ethr =  4.52E-08,  avg # of iterations =  1.0

     negative rho (up, down):  2.257E-08 0.000E+00

     total cpu time spent up to now is        6.0 secs

     total energy              =    -329.48892795 Ry
     Harris-Foulkes estimate   =    -329.48892776 Ry
     estimated scf accuracy    <       0.00002524 Ry

     iteration #  2     ecut=    30.00 Ry     beta=0.70
     Davidson diagonalization with overlap
     ethr =  4.59E-08,  avg # of iterations =  3.0

     total cpu time spent up to now is        6.3 secs

     total energy              =    -329.48893105 Ry
     Harris-Foulkes estimate   =    -329.48894021 Ry
     estimated scf accuracy    <       0.00001967 Ry

     iteration #  3     ecut=    30.00 Ry     beta=0.70
     Davidson diagonalization with overlap
     ethr =  3.58E-08,  avg # of iterations =  2.0

     total cpu time spent up to now is        6.5 secs

     total energy              =    -329.48893534 Ry
     Harris-Foulkes estimate   =    -329.48893810 Ry
     estimated scf accuracy    <       0.00000807 Ry

     iteration #  4     ecut=    30.00 Ry     beta=0.70
     Davidson diagonalization with overlap
     ethr =  1.47E-08,  avg # of iterations =  2.0

     total cpu time spent up to now is        6.7 secs

     total energy              =    -329.48893785 Ry
     Harris-Foulkes estimate   =    -329.48893733 Ry
     estimated scf accuracy    <       0.00000104 Ry

     iteration #  5     ecut=    30.00 Ry     beta=0.70
     Davidson diagonalization with overlap
     ethr =  1.88E-09,  avg # of iterations =  2.0

     total cpu time spent up to now is        6.9 secs

     total energy              =    -329.48893799 Ry
     Harris-Foulkes estimate   =    -329.48893812 Ry
     estimated scf accuracy    <       0.00000019 Ry

     iteration #  6     ecut=    30.00 Ry     beta=0.70
     Davidson diagonalization with overlap
     ethr =  3.52E-10,  avg # of iterations =  2.0

     total cpu time spent up to now is        7.1 secs

     total energy              =    -329.48893806 Ry
     Harris-Foulkes estimate   =    -329.48893804 Ry
     estimated scf accuracy    <       0.00000002 Ry

     iteration #  7     ecut=    30.00 Ry     beta=0.70
     Davidson diagonalization with overlap
     ethr =  3.80E-11,  avg # of iterations =  2.0

     total cpu time spent up to now is        7.3 secs

     total energy              =    -329.48893809 Ry
     Harris-Foulkes estimate   =    -329.48893806 Ry
     estimated scf accuracy    <          6.6E-09 Ry

     iteration #  8     ecut=    30.00 Ry     beta=0.70
     Davidson diagonalization with overlap
     ethr =  1.20E-11,  avg # of iterations =  2.0

     total cpu time spent up to now is        7.5 secs

     total energy              =    -329.48893813 Ry
     Harris-Foulkes estimate   =    -329.48893809 Ry
     estimated scf accuracy    <          7.7E-10 Ry

     iteration #  9     ecut=    30.00 Ry     beta=0.70
     Davidson diagonalization with overlap
     ethr =  1.40E-12,  avg # of iterations =  2.0

     total cpu time spent up to now is        7.7 secs

     End of self-consistent calculation

          k = 0.0000 0.0000 0.0000 ( 22119 PWs)   bands (ev):

    -8.4101  -7.7274  -7.6353  -7.1994  -6.9637  -6.7621  -6.6998  -6.4564
    -6.2957  -6.0344  -5.9984  -5.7566  -5.7172  -5.6703  -5.4040  -5.3714
    -5.3327  -5.2192  -5.1924  -5.1839  -5.1671  -5.1407  -5.0046  -4.8896
    -4.8616  -4.7065  -4.4114  -3.7995  -2.5360  -2.1556  -0.5669  -0.2466
     0.4855   0.9104

     the Fermi energy is    -3.7806 ev

!    total energy              =    -329.48893814 Ry
     Harris-Foulkes estimate   =    -329.48893813 Ry
     estimated scf accuracy    <          1.3E-10 Ry

     The total energy is the sum of the following terms:

     one-electron contribution =    -609.16362786 Ry
     hartree contribution      =     326.03870382 Ry
     xc contribution           =     -51.40964226 Ry
     ewald contribution        =       5.04709900 Ry
     smearing contrib. (-TS)   =      -0.00147085 Ry

     convergence has been achieved in   9 iterations

     Forces acting on atoms (Ry/au):

     atom    1 type  1   force =     0.00013300   -0.00327552   -0.00675955
     atom    2 type  1   force =    -0.00136800   -0.00087522   -0.00134701
     atom    3 type  1   force =    -0.00553025    0.00309647    0.00991173
     atom    4 type  1   force =     0.00444479    0.00010036    0.00077005
     atom    5 type  1   force =     0.00232045    0.00095391   -0.00257522

     Total force =     0.015251     Total SCF correction =     0.000051

     number of scf cycles    =   3
     number of bfgs steps    =   2

     energy   old            =    -329.4886202894 Ry
     energy   new            =    -329.4889381353 Ry

     CASE: energy  _new < energy  _old

     new trust radius        =       0.0228727783 bohr
     new conv_thr            =       0.0000000003 Ry


ATOMIC_POSITIONS (bohr)
Au      -1.801883480   1.426647587  -0.712071583
Au      -0.722897672   2.526392484   4.155771081
Au       3.136915675   1.662941612   0.375762947
Au       4.091897215   3.296817476   5.737333322
Au       7.752031261   2.159080842   2.375229233



     Writing output data file pwscf.save
     Check: negative starting charge=   -0.006497
     NEW-OLD atomic charge density approx. for the potential
     Check: negative starting charge=   -0.006494

     negative rho (up, down):  5.672E-05 0.000E+00

     total cpu time spent up to now is        7.9 secs

     per-process dynamical memory:    50.6 Mb

     Self-consistent Calculation

     iteration #  1     ecut=    30.00 Ry     beta=0.70
     Davidson diagonalization with overlap
     ethr =  1.00E-06,  avg # of iterations =  4.0

     negative rho (up, down):  2.961E-07 0.000E+00

     total cpu time spent up to now is        8.3 secs

     total energy              =    -329.48933999 Ry
     Harris-Foulkes estimate   =    -329.48934024 Ry
     estimated scf accuracy    <       0.00005769 Ry

     iteration #  2     ecut=    30.00 Ry     beta=0.70
     Davidson diagonalization with overlap
     ethr =  1.05E-07,  avg # of iterations =  3.0

     negative rho (up, down):  1.449E-08 0.000E+00

     total cpu time spent up to now is        8.5 secs

     total energy              =    -329.48934676 Ry
     Harris-Foulkes estimate   =    -329.48936938 Ry
     estimated scf accuracy    <       0.00004732 Ry

     iteration #  3     ecut=    30.00 Ry     beta=0.70
     Davidson diagonalization with overlap
     ethr =  8.60E-08,  avg # of iterations =  2.0

     total cpu time spent up to now is        8.7 secs

     total energy              =    -329.48935736 Ry
     Harris-Foulkes estimate   =    -329.48936335 Ry
     estimated scf accuracy    <       0.00001834 Ry

     iteration #  4     ecut=    30.00 Ry     beta=0.70
     Davidson diagonalization with overlap
     ethr =  3.33E-08,  avg # of iterations =  2.0

     total cpu time spent up to now is        8.9 secs

     total energy              =    -329.48936176 Ry
     Harris-Foulkes estimate   =    -329.48936183 Ry
     estimated scf accuracy    <       0.00000228 Ry

     iteration #  5     ecut=    30.00 Ry     beta=0.70
     Davidson diagonalization with overlap
     ethr =  4.15E-09,  avg # of iterations =  2.0

     total cpu time spent up to now is        9.1 secs

     total energy              =    -329.48936251 Ry
     Harris-Foulkes estimate   =    -329.48936235 Ry
     estimated scf accuracy    <       0.00000044 Ry

     iteration #  6     ecut=    30.00 Ry     beta=0.70
     Davidson diagonalization with overlap
     ethr =  8.07E-10,  avg # of iterations =  2.0

     total cpu time spent up to now is        9.3 secs

     total energy              =    -329.48936281 Ry
     Harris-Foulkes estimate   =    -329.48936261 Ry
     estimated scf accuracy    <       0.00000005 Ry

     iteration #  7     ecut=    30.00 Ry     beta=0.70
     Davidson diagonalization with overlap
     ethr =  8.32E-11,  avg # of iterations =  2.0

     total cpu time spent up to now is        9.6 secs

     total energy              =    -329.48936287 Ry
     Harris-Foulkes estimate   =    -329.48936282 Ry
     estimated scf accuracy    <       0.00000001 Ry

     iteration #  8     ecut=    30.00 Ry     beta=0.70
     Davidson diagonalization with overlap
     ethr =  2.68E-11,  avg # of iterations =  2.0

     total cpu time spent up to now is        9.8 secs

     total energy              =    -329.48936290 Ry
     Harris-Foulkes estimate   =    -329.48936287 Ry
     estimated scf accuracy    <          1.5E-09 Ry

     iteration #  9     ecut=    30.00 Ry     beta=0.70
     Davidson diagonalization with overlap
     ethr =  2.77E-12,  avg # of iterations =  2.0

     total cpu time spent up to now is       10.0 secs

     End of self-consistent calculation

          k = 0.0000 0.0000 0.0000 ( 22119 PWs)   bands (ev):

    -8.4216  -7.7347  -7.6311  -7.2069  -6.9552  -6.7682  -6.6921  -6.4583
    -6.2970  -6.0300  -6.0055  -5.7582  -5.7205  -5.6726  -5.4009  -5.3832
    -5.3311  -5.2189  -5.1968  -5.1888  -5.1685  -5.1412  -5.0060  -4.8958
    -4.8693  -4.7056  -4.4236  -3.7948  -2.5345  -2.1644  -0.5681  -0.2416
     0.4812   0.9091

     the Fermi energy is    -3.7729 ev

!    total energy              =    -329.48936290 Ry
     Harris-Foulkes estimate   =    -329.48936290 Ry
     estimated scf accuracy    <          2.9E-10 Ry

     The total energy is the sum of the following terms:

     one-electron contribution =    -609.14728916 Ry
     hartree contribution      =     326.02444686 Ry
     xc contribution           =     -51.40756502 Ry
     ewald contribution        =       5.04309752 Ry
     smearing contrib. (-TS)   =      -0.00205310 Ry

     convergence has been achieved in   9 iterations

     Forces acting on atoms (Ry/au):

     atom    1 type  1   force =    -0.00001930   -0.00303587   -0.00639701
     atom    2 type  1   force =    -0.00053554   -0.00055801   -0.00082337
     atom    3 type  1   force =    -0.00415018    0.00264138    0.00921242
     atom    4 type  1   force =     0.00301454   -0.00000222    0.00080275
     atom    5 type  1   force =     0.00169047    0.00095472   -0.00279479

     Total force =     0.013483     Total SCF correction =     0.000075

     number of scf cycles    =   4
     number of bfgs steps    =   3

     energy   old            =    -329.4889381353 Ry
     energy   new            =    -329.4893629006 Ry

     CASE: energy  _new < energy  _old

     new trust radius        =       0.0343091675 bohr
     new conv_thr            =       0.0000000004 Ry


ATOMIC_POSITIONS (bohr)
Au      -1.801355759   1.417097860  -0.731820583
Au      -0.726722347   2.523906027   4.151802502
Au       3.121055803   1.671826839   0.404859960
Au       4.104415013   3.297077532   5.739693411
Au       7.758670290   2.161971742   2.367489709



     Writing output data file pwscf.save
     Check: negative starting charge=   -0.006494
     NEW-OLD atomic charge density approx. for the potential
     Check: negative starting charge=   -0.006489

     negative rho (up, down):  1.657E-04 0.000E+00

     total cpu time spent up to now is       10.2 secs

     per-process dynamical memory:    50.6 Mb

     Self-consistent Calculation

     iteration #  1     ecut=    30.00 Ry     beta=0.70
     Davidson diagonalization with overlap
     ethr =  1.00E-06,  avg # of iterations =  4.0

     negative rho (up, down):  2.568E-06 0.000E+00

     total cpu time spent up to now is       10.5 secs

     total energy              =    -329.48985108 Ry
     Harris-Foulkes estimate   =    -329.48984512 Ry
     estimated scf accuracy    <       0.00013216 Ry

     iteration #  2     ecut=    30.00 Ry     beta=0.70
     Davidson diagonalization with overlap
     ethr =  2.40E-07,  avg # of iterations =  3.0

     negative rho (up, down):  2.404E-07 0.000E+00

     total cpu time spent up to now is       10.8 secs

     total energy              =    -329.48986398 Ry
     Harris-Foulkes estimate   =    -329.48992249 Ry
     estimated scf accuracy    <       0.00012272 Ry

     iteration #  3     ecut=    30.00 Ry     beta=0.70
     Davidson diagonalization with overlap
     ethr =  2.23E-07,  avg # of iterations =  2.0

     total cpu time spent up to now is       11.0 secs

     total energy              =    -329.48989166 Ry
     Harris-Foulkes estimate   =    -329.48990624 Ry
     estimated scf accuracy    <       0.00004491 Ry

     iteration #  4     ecut=    30.00 Ry     beta=0.70
     Davidson diagonalization with overlap
     ethr =  8.16E-08,  avg # of iterations =  2.0

     total cpu time spent up to now is       11.2 secs

     total energy              =    -329.48990206 Ry
     Harris-Foulkes estimate   =    -329.48990196 Ry
     estimated scf accuracy    <       0.00000434 Ry

     iteration #  5     ecut=    30.00 Ry     beta=0.70
     Davidson diagonalization with overlap
     ethr =  7.89E-09,  avg # of iterations =  2.0

     total cpu time spent up to now is       11.4 secs

     total energy              =    -329.48990261 Ry
     Harris-Foulkes estimate   =    -329.48990326 Ry
     estimated scf accuracy    <       0.00000094 Ry

     iteration #  6     ecut=    30.00 Ry     beta=0.70
     Davidson diagonalization with overlap
     ethr =  1.71E-09,  avg # of iterations =  2.0

     total cpu time spent up to now is       11.6 secs

     total energy              =    -329.48990292 Ry
     Harris-Foulkes estimate   =    -329.48990283 Ry
     estimated scf accuracy    <       0.00000009 Ry

     iteration #  7     ecut=    30.00 Ry     beta=0.70
     Davidson diagonalization with overlap
     ethr =  1.55E-10,  avg # of iterations =  2.0

     total cpu time spent up to now is       11.8 secs

     total energy              =    -329.48990297 Ry
     Harris-Foulkes estimate   =    -329.48990295 Ry
     estimated scf accuracy    <       0.00000003 Ry

     iteration #  8     ecut=    30.00 Ry     beta=0.70
     Davidson diagonalization with overlap
     ethr =  5.61E-11,  avg # of iterations =  2.0

     total cpu time spent up to now is       12.0 secs

     total energy              =    -329.48990303 Ry
     Harris-Foulkes estimate   =    -329.48990298 Ry
     estimated scf accuracy    <          3.6E-09 Ry

     iteration #  9     ecut=    30.00 Ry     beta=0.70
     Davidson diagonalization with overlap
     ethr =  6.63E-12,  avg # of iterations =  2.0

     total cpu time spent up to now is       12.2 secs

     total energy              =    -329.48990306 Ry
     Harris-Foulkes estimate   =    -329.48990303 Ry
     estimated scf accuracy    <          5.9E-10 Ry

     iteration # 10     ecut=    30.00 Ry     beta=0.70
     Davidson diagonalization with overlap
     ethr =  1.08E-12,  avg # of iterations =  2.0

     total cpu time spent up to now is       12.4 secs

     End of self-consistent calculation

          k = 0.0000 0.0000 0.0000 ( 22119 PWs)   bands (ev):

    -8.4385  -7.7452  -7.6270  -7.2178  -6.9427  -6.7769  -6.6785  -6.4617
    -6.2992  -6.0236  -6.0148  -5.7602  -5.7245  -5.6760  -5.4016  -5.3951
    -5.3286  -5.2187  -5.2056  -5.1922  -5.1702  -5.1407  -5.0077  -4.9046
    -4.8779  -4.7041  -4.4407  -3.7885  -2.5315  -2.1768  -0.5699  -0.2344
     0.4751   0.9079

     the Fermi energy is    -3.7629 ev

!    total energy              =    -329.48990304 Ry
     Harris-Foulkes estimate   =    -329.48990306 Ry
     estimated scf accuracy    <          4.7E-11 Ry

     The total energy is the sum of the following terms:

     one-electron contribution =    -609.13941186 Ry
     hartree contribution      =     326.01241556 Ry
     xc contribution           =     -51.40490018 Ry
     ewald contribution        =       5.04481898 Ry
     smearing contrib. (-TS)   =      -0.00282553 Ry

     convergence has been achieved in  10 iterations

     Forces acting on atoms (Ry/au):

     atom    1 type  1   force =    -0.00004796   -0.00262565   -0.00573222
     atom    2 type  1   force =     0.00029078   -0.00017836   -0.00034288
     atom    3 type  1   force =    -0.00231116    0.00193608    0.00834450
     atom    4 type  1   force =     0.00119469   -0.00012327    0.00080013
     atom    5 type  1   force =     0.00087365    0.00099120   -0.00306953

     Total force =     0.011487     Total SCF correction =     0.000034

     number of scf cycles    =   5
     number of bfgs steps    =   4

     energy   old            =    -329.4893629006 Ry
     energy   new            =    -329.4899030369 Ry

     CASE: energy  _new < energy  _old

     new trust radius        =       0.0514637513 bohr
     new conv_thr            =       0.0000000005 Ry


ATOMIC_POSITIONS (bohr)
Au      -1.800552521   1.402648724  -0.762019053
Au      -0.731377051   2.520612690   4.146317598
Au       3.099052200   1.684707585   0.449563936
Au       4.121140061   3.297281529   5.743439230
Au       7.767800311   2.166629472   2.354723289



     Writing output data file pwscf.save
     Check: negative starting charge=   -0.006489
     NEW-OLD atomic charge density approx. for the potential
     Check: negative starting charge=   -0.006489

     negative rho (up, down):  4.027E-04 0.000E+00

     total cpu time spent up to now is       12.7 secs

     per-process dynamical memory:    50.7 Mb

     Self-consistent Calculation

     iteration #  1     ecut=    30.00 Ry     beta=0.70
     Davidson diagonalization with overlap
     ethr =  1.00E-06,  avg # of iterations =  5.0

     negative rho (up, down):  1.363E-05 0.000E+00

     total cpu time spent up to now is       13.1 secs

     total energy              =    -329.49040538 Ry
     Harris-Foulkes estimate   =    -329.49033247 Ry
     estimated scf accuracy    <       0.00029980 Ry

     iteration #  2     ecut=    30.00 Ry     beta=0.70
     Davidson diagonalization with overlap
     ethr =  5.45E-07,  avg # of iterations =  4.0

     negative rho (up, down):  2.210E-06 0.000E+00

     total cpu time spent up to now is       13.4 secs

     total energy              =    -329.49042781 Ry
     Harris-Foulkes estimate   =    -329.49057666 Ry
     estimated scf accuracy    <       0.00031236 Ry

     iteration #  3     ecut=    30.00 Ry     beta=0.70
     Davidson diagonalization with overlap
     ethr =  5.45E-07,  avg # of iterations =  2.0

     negative rho (up, down):  7.226E-08 0.000E+00

     total cpu time spent up to now is       13.6 secs

     total energy              =    -329.49049758 Ry
     Harris-Foulkes estimate   =    -329.49053234 Ry
     estimated scf accuracy    <       0.00010421 Ry

     iteration #  4     ecut=    30.00 Ry     beta=0.70
     Davidson diagonalization with overlap
     ethr =  1.89E-07,  avg # of iterations =  2.0

     total cpu time spent up to now is       13.8 secs

     total energy              =    -329.49052115 Ry
     Harris-Foulkes estimate   =    -329.49052060 Ry
     estimated scf accuracy    <       0.00000827 Ry

     iteration #  5     ecut=    30.00 Ry     beta=0.70
     Davidson diagonalization with overlap
     ethr =  1.50E-08,  avg # of iterations =  3.0

     total cpu time spent up to now is       14.0 secs

     total energy              =    -329.49052283 Ry
     Harris-Foulkes estimate   =    -329.49052364 Ry
     estimated scf accuracy    <       0.00000214 Ry

     iteration #  6     ecut=    30.00 Ry     beta=0.70
     Davidson diagonalization with overlap
     ethr =  3.89E-09,  avg # of iterations =  2.0

     total cpu time spent up to now is       14.2 secs

     total energy              =    -329.49052317 Ry
     Harris-Foulkes estimate   =    -329.49052331 Ry
     estimated scf accuracy    <       0.00000018 Ry

     iteration #  7     ecut=    30.00 Ry     beta=0.70
     Davidson diagonalization with overlap
     ethr =  3.34E-10,  avg # of iterations =  2.0

     total cpu time spent up to now is       14.4 secs

     total energy              =    -329.49052320 Ry
     Harris-Foulkes estimate   =    -329.49052323 Ry
     estimated scf accuracy    <       0.00000006 Ry

     iteration #  8     ecut=    30.00 Ry     beta=0.70
     Davidson diagonalization with overlap
     ethr =  1.05E-10,  avg # of iterations =  2.0

     total cpu time spent up to now is       14.6 secs

     total energy              =    -329.49052325 Ry
     Harris-Foulkes estimate   =    -329.49052321 Ry
     estimated scf accuracy    <       0.00000001 Ry

     iteration #  9     ecut=    30.00 Ry     beta=0.70
     Davidson diagonalization with overlap
     ethr =  1.87E-11,  avg # of iterations =  2.0

     total cpu time spent up to now is       14.8 secs

     total energy              =    -329.49052327 Ry
     Harris-Foulkes estimate   =    -329.49052325 Ry
     estimated scf accuracy    <          1.4E-09 Ry

     iteration # 10     ecut=    30.00 Ry     beta=0.70
     Davidson diagonalization with overlap
     ethr =  2.61E-12,  avg # of iterations =  3.0

     total cpu time spent up to now is       15.0 secs

     End of self-consistent calculation

          k = 0.0000 0.0000 0.0000 ( 22119 PWs)   bands (ev):

    -8.4628  -7.7604  -7.6263  -7.2311  -6.9235  -6.7893  -6.6557  -6.4695
    -6.3015  -6.0366  -6.0049  -5.7623  -5.7290  -5.6806  -5.4257  -5.3880
    -5.3247  -5.2257  -5.2112  -5.1950  -5.1716  -5.1377  -5.0094  -4.9176
    -4.8843  -4.7017  -4.4640  -3.7805  -2.5257  -2.1939  -0.5725  -0.2239
     0.4672   0.9074

     the Fermi energy is    -3.7504 ev

!    total energy              =    -329.49052329 Ry
     Harris-Foulkes estimate   =    -329.49052327 Ry
     estimated scf accuracy    <          1.4E-10 Ry

     The total energy is the sum of the following terms:

     one-electron contribution =    -609.16396103 Ry
     hartree contribution      =     326.01490732 Ry
     xc contribution           =     -51.40190979 Ry
     ewald contribution        =       5.06422130 Ry
     smearing contrib. (-TS)   =      -0.00378108 Ry

     convergence has been achieved in  10 iterations

     Forces acting on atoms (Ry/au):

     atom    1 type  1   force =     0.00014257   -0.00191534   -0.00427403
     atom    2 type  1   force =     0.00082612    0.00026227    0.00013928
     atom    3 type  1   force =     0.00030566    0.00087075    0.00672395
     atom    4 type  1   force =    -0.00107191   -0.00028229    0.00075026
     atom    5 type  1   force =    -0.00020244    0.00106461   -0.00333946

     Total force =     0.009105     Total SCF correction =     0.000058

     number of scf cycles    =   6
     number of bfgs steps    =   5

     energy   old            =    -329.4899030369 Ry
     energy   new            =    -329.4905232946 Ry

     CASE: energy  _new < energy  _old

     new trust radius        =       0.0771956269 bohr
     new conv_thr            =       0.0000000006 Ry


ATOMIC_POSITIONS (bohr)
Au      -1.798859097   1.380805604  -0.807818102
Au      -0.737396013   2.516375698   4.138659278
Au       3.069682359   1.703089218   0.518547216
Au       4.142655861   3.297212746   5.749443799
Au       7.779979890   2.174396734   2.333192810



     Writing output data file pwscf.save
     Check: negative starting charge=   -0.006489
     NEW-OLD atomic charge density approx. for the potential
     Check: negative starting charge=   -0.006495

     negative rho (up, down):  8.500E-04 0.000E+00

     total cpu time spent up to now is       15.3 secs

     per-process dynamical memory:    50.7 Mb

     Self-consistent Calculation

     iteration #  1     ecut=    30.00 Ry     beta=0.70
     Davidson diagonalization with overlap
     ethr =  1.00E-06,  avg # of iterations = 11.0

     negative rho (up, down):  4.965E-05 0.000E+00

     total cpu time spent up to now is       15.7 secs

     total energy              =    -329.49062580 Ry
     Harris-Foulkes estimate   =    -329.49024089 Ry
     estimated scf accuracy    <       0.00067836 Ry

     iteration #  2     ecut=    30.00 Ry     beta=0.70
     Davidson diagonalization with overlap
     ethr =  1.23E-06,  avg # of iterations =  6.0

     negative rho (up, down):  1.244E-05 0.000E+00

     total cpu time spent up to now is       16.0 secs

     total energy              =    -329.49066323 Ry
     Harris-Foulkes estimate   =    -329.49103024 Ry
     estimated scf accuracy    <       0.00078270 Ry

     iteration #  3     ecut=    30.00 Ry     beta=0.70
     Davidson diagonalization with overlap
     ethr =  1.23E-06,  avg # of iterations =  2.0

     negative rho (up, down):  7.666E-07 0.000E+00

     total cpu time spent up to now is       16.2 secs

     total energy              =    -329.49083755 Ry
     Harris-Foulkes estimate   =    -329.49091621 Ry
     estimated scf accuracy    <       0.00023176 Ry

     iteration #  4     ecut=    30.00 Ry     beta=0.70
     Davidson diagonalization with overlap
     ethr =  4.21E-07,  avg # of iterations =  2.0

     total cpu time spent up to now is       16.4 secs

     total energy              =    -329.49088691 Ry
     Harris-Foulkes estimate   =    -329.49088795 Ry
     estimated scf accuracy    <       0.00001739 Ry

     iteration #  5     ecut=    30.00 Ry     beta=0.70
     Davidson diagonalization with overlap
     ethr =  3.16E-08,  avg # of iterations =  3.0

     total cpu time spent up to now is       16.6 secs

     total energy              =    -329.49089082 Ry
     Harris-Foulkes estimate   =    -329.49089236 Ry
     estimated scf accuracy    <       0.00000494 Ry

     iteration #  6     ecut=    30.00 Ry     beta=0.70
     Davidson diagonalization with overlap
     ethr =  8.98E-09,  avg # of iterations =  2.0

     total cpu time spent up to now is       16.8 secs

     total energy              =    -329.49089192 Ry
     Harris-Foulkes estimate   =    -329.49089191 Ry
     estimated scf accuracy    <       0.00000035 Ry

     iteration #  7     ecut=    30.00 Ry     beta=0.70
     Davidson diagonalization with overlap
     ethr =  6.34E-10,  avg # of iterations =  2.0

     total cpu time spent up to now is       17.0 secs

     total energy              =    -329.49089194 Ry
     Harris-Foulkes estimate   =    -329.49089203 Ry
     estimated scf accuracy    <       0.00000010 Ry

     iteration #  8     ecut=    30.00 Ry     beta=0.70
     Davidson diagonalization with overlap
     ethr =  1.81E-10,  avg # of iterations =  2.0

     total cpu time spent up to now is       17.2 secs

     total energy              =    -329.49089215 Ry
     Harris-Foulkes estimate   =    -329.49089197 Ry
     estimated scf accuracy    <       0.00000002 Ry

     iteration #  9     ecut=    30.00 Ry     beta=0.70
     Davidson diagonalization with overlap
     ethr =  4.41E-11,  avg # of iterations =  2.0

     total cpu time spent up to now is       17.5 secs

     total energy              =    -329.49089211 Ry
     Harris-Foulkes estimate   =    -329.49089216 Ry
     estimated scf accuracy    <          3.6E-09 Ry

     iteration # 10     ecut=    30.00 Ry     beta=0.70
     Davidson diagonalization with overlap
     ethr =  6.63E-12,  avg # of iterations =  2.0

     total cpu time spent up to now is       17.6 secs

     End of self-consistent calculation

          k = 0.0000 0.0000 0.0000 ( 22119 PWs)   bands (ev):

    -8.4972  -7.7824  -7.6402  -7.2398  -6.8941  -6.8061  -6.6181  -6.4889
    -6.3010  -6.0662  -5.9790  -5.7640  -5.7327  -5.6853  -5.4577  -5.3756
    -5.3186  -5.2438  -5.2095  -5.1971  -5.1707  -5.1311  -5.0102  -4.9359
    -4.8813  -4.6978  -4.4942  -3.7711  -2.5149  -2.2171  -0.5761  -0.2082
     0.4577   0.9089

     the Fermi energy is    -3.7364 ev

!    total energy              =    -329.49089212 Ry
     Harris-Foulkes estimate   =    -329.49089211 Ry
     estimated scf accuracy    <          2.8E-10 Ry

     The total energy is the sum of the following terms:

     one-electron contribution =    -609.25848298 Ry
     hartree contribution      =     326.05184382 Ry
     xc contribution           =     -51.39915704 Ry
     ewald contribution        =       5.11972556 Ry
     smearing contrib. (-TS)   =      -0.00482148 Ry

     convergence has been achieved in  10 iterations

     Forces acting on atoms (Ry/au):

     atom    1 type  1   force =     0.00082461   -0.00089298   -0.00034514
     atom    2 type  1   force =     0.00040862    0.00046870    0.00111728
     atom    3 type  1   force =     0.00380280    0.00036820    0.00110389
     atom    4 type  1   force =    -0.00351935   -0.00077685    0.00103498
     atom    5 type  1   force =    -0.00151669    0.00083293   -0.00291100

     Total force =     0.006676     Total SCF correction =     0.000073

     number of scf cycles    =   7
     number of bfgs steps    =   6

     energy   old            =    -329.4905232946 Ry
     energy   new            =    -329.4908921175 Ry

     CASE: energy  _new < energy  _old

     new trust radius        =       0.0036679827 bohr
     new conv_thr            =       0.0000000004 Ry


ATOMIC_POSITIONS (bohr)
Au      -1.797993443   1.380247788  -0.807448699
Au      -0.737237975   2.516777021   4.139640017
Au       3.073343987   1.703277313   0.518653033
Au       4.139407184   3.296501893   5.750340469
Au       7.778543248   2.175075985   2.330840179



     Writing output data file pwscf.save
     Check: negative starting charge=   -0.006495
     NEW-OLD atomic charge density approx. for the potential
     Check: negative starting charge=   -0.006495

     negative rho (up, down):  1.393E-08 0.000E+00

     total cpu time spent up to now is       17.9 secs

     per-process dynamical memory:    50.7 Mb

     Self-consistent Calculation

     iteration #  1     ecut=    30.00 Ry     beta=0.70
     Davidson diagonalization with overlap
     ethr =  1.00E-06,  avg # of iterations =  3.0

     Threshold (ethr) on eigenvalues was too large:
     Diagonalizing with lowered threshold

     Davidson diagonalization with overlap
     ethr =  2.47E-09,  avg # of iterations =  2.0

     total cpu time spent up to now is       18.3 secs

     total energy              =    -329.49092755 Ry
     Harris-Foulkes estimate   =    -329.49092740 Ry
     estimated scf accuracy    <       0.00000139 Ry

     iteration #  2     ecut=    30.00 Ry     beta=0.70
     Davidson diagonalization with overlap
     ethr =  2.53E-09,  avg # of iterations =  2.0

     total cpu time spent up to now is       18.5 secs

     total energy              =    -329.49092760 Ry
     Harris-Foulkes estimate   =    -329.49092817 Ry
     estimated scf accuracy    <       0.00000132 Ry

     iteration #  3     ecut=    30.00 Ry     beta=0.70
     Davidson diagonalization with overlap
     ethr =  2.40E-09,  avg # of iterations =  2.0

     total cpu time spent up to now is       18.7 secs

     total energy              =    -329.49092785 Ry
     Harris-Foulkes estimate   =    -329.49092808 Ry
     estimated scf accuracy    <       0.00000050 Ry

     iteration #  4     ecut=    30.00 Ry     beta=0.70
     Davidson diagonalization with overlap
     ethr =  9.13E-10,  avg # of iterations =  2.0

     total cpu time spent up to now is       18.9 secs

     total energy              =    -329.49092768 Ry
     Harris-Foulkes estimate   =    -329.49092799 Ry
     estimated scf accuracy    <       0.00000010 Ry

     iteration #  5     ecut=    30.00 Ry     beta=0.70
     Davidson diagonalization with overlap
     ethr =  1.85E-10,  avg # of iterations =  2.0

     total cpu time spent up to now is       19.1 secs

     total energy              =    -329.49092762 Ry
     Harris-Foulkes estimate   =    -329.49092770 Ry
     estimated scf accuracy    <          6.9E-09 Ry

     iteration #  6     ecut=    30.00 Ry     beta=0.70
     Davidson diagonalization with overlap
     ethr =  1.25E-11,  avg # of iterations =  2.0

     total cpu time spent up to now is       19.4 secs

     total energy              =    -329.49092763 Ry
     Harris-Foulkes estimate   =    -329.49092763 Ry
     estimated scf accuracy    <          2.1E-09 Ry

     iteration #  7     ecut=    30.00 Ry     beta=0.70
     Davidson diagonalization with overlap
     ethr =  3.84E-12,  avg # of iterations =  2.0

     total cpu time spent up to now is       19.6 secs

     End of self-consistent calculation

          k = 0.0000 0.0000 0.0000 ( 22119 PWs)   bands (ev):

    -8.4975  -7.7812  -7.6416  -7.2385  -6.8949  -6.8065  -6.6167  -6.4882
    -6.3014  -6.0663  -5.9780  -5.7639  -5.7322  -5.6856  -5.4563  -5.3759
    -5.3192  -5.2432  -5.2097  -5.1977  -5.1699  -5.1313  -5.0091  -4.9351
    -4.8805  -4.6988  -4.4929  -3.7729  -2.5135  -2.2166  -0.5761  -0.2093
     0.4591   0.9101

     the Fermi energy is    -3.7385 ev

!    total energy              =    -329.49092758 Ry
     Harris-Foulkes estimate   =    -329.49092763 Ry
     estimated scf accuracy    <          3.5E-10 Ry

     The total energy is the sum of the following terms:

     one-electron contribution =    -609.28001402 Ry
     hartree contribution      =     326.06326825 Ry
     xc contribution           =     -51.39936709 Ry
     ewald contribution        =       5.12992779 Ry
     smearing contrib. (-TS)   =      -0.00474251 Ry

     convergence has been achieved in   7 iterations

     Forces acting on atoms (Ry/au):

     atom    1 type  1   force =     0.00112310   -0.00082351   -0.00016702
     atom    2 type  1   force =     0.00021148    0.00036510    0.00078299
     atom    3 type  1   force =     0.00280941    0.00030497    0.00093518
     atom    4 type  1   force =    -0.00303952   -0.00075915    0.00099919
     atom    5 type  1   force =    -0.00110447    0.00091260   -0.00255034

     Total force =     0.005567     Total SCF correction =     0.000080

     number of scf cycles    =   8
     number of bfgs steps    =   7

     energy   old            =    -329.4908921175 Ry
     energy   new            =    -329.4909275759 Ry

     CASE: energy  _new < energy  _old


     WARNING: bfgs curvature condition failed, Theta= 0.968
     new trust radius        =       0.0040347809 bohr
     new conv_thr            =            1.0E-10 Ry


ATOMIC_POSITIONS (bohr)
Au      -1.796335013   1.378926165  -0.807939496
Au      -0.737353612   2.517137080   4.140490968
Au       3.076715499   1.703963893   0.520448267
Au       4.135776229   3.295477169   5.751770702
Au       7.777259896   2.176375692   2.327254559



     Writing output data file pwscf.save
     Check: negative starting charge=   -0.006495
     NEW-OLD atomic charge density approx. for the potential
     Check: negative starting charge=   -0.006494

     negative rho (up, down):  6.874E-08 0.000E+00

     total cpu time spent up to now is       19.8 secs

     per-process dynamical memory:    50.7 Mb

     Self-consistent Calculation

     iteration #  1     ecut=    30.00 Ry     beta=0.70
     Davidson diagonalization with overlap
     ethr =  1.00E-06,  avg # of iterations =  3.0

     Threshold (ethr) on eigenvalues was too large:
     Diagonalizing with lowered threshold

     Davidson diagonalization with overlap
     ethr =  4.54E-09,  avg # of iterations =  2.0

     total cpu time spent up to now is       20.3 secs

     total energy              =    -329.49096292 Ry
     Harris-Foulkes estimate   =    -329.49096301 Ry
     estimated scf accuracy    <       0.00000260 Ry

     iteration #  2     ecut=    30.00 Ry     beta=0.70
     Davidson diagonalization with overlap
     ethr =  4.72E-09,  avg # of iterations =  2.0

     total cpu time spent up to now is       20.5 secs

     total energy              =    -329.49096288 Ry
     Harris-Foulkes estimate   =    -329.49096423 Ry
     estimated scf accuracy    <       0.00000258 Ry

     iteration #  3     ecut=    30.00 Ry     beta=0.70
     Davidson diagonalization with overlap
     ethr =  4.68E-09,  avg # of iterations =  2.0

     total cpu time spent up to now is       20.7 secs

     total energy              =    -329.49096349 Ry
     Harris-Foulkes estimate   =    -329.49096372 Ry
     estimated scf accuracy    <       0.00000073 Ry

     iteration #  4     ecut=    30.00 Ry     beta=0.70
     Davidson diagonalization with overlap
     ethr =  1.34E-09,  avg # of iterations =  2.0

     total cpu time spent up to now is       20.9 secs

     total energy              =    -329.49096365 Ry
     Harris-Foulkes estimate   =    -329.49096371 Ry
     estimated scf accuracy    <       0.00000018 Ry

     iteration #  5     ecut=    30.00 Ry     beta=0.70
     Davidson diagonalization with overlap
     ethr =  3.29E-10,  avg # of iterations =  2.0

     total cpu time spent up to now is       21.1 secs

     total energy              =    -329.49096371 Ry
     Harris-Foulkes estimate   =    -329.49096369 Ry
     estimated scf accuracy    <          8.1E-09 Ry

     iteration #  6     ecut=    30.00 Ry     beta=0.70
     Davidson diagonalization with overlap
     ethr =  1.47E-11,  avg # of iterations =  3.0

     total cpu time spent up to now is       21.3 secs

     total energy              =    -329.49096370 Ry
     Harris-Foulkes estimate   =    -329.49096371 Ry
     estimated scf accuracy    <          1.9E-09 Ry

     iteration #  7     ecut=    30.00 Ry     beta=0.70
     Davidson diagonalization with overlap
     ethr =  3.40E-12,  avg # of iterations =  3.0

     total cpu time spent up to now is       21.6 secs

     total energy              =    -329.49096366 Ry
     Harris-Foulkes estimate   =    -329.49096370 Ry
     estimated scf accuracy    <          5.4E-10 Ry

     iteration #  8     ecut=    30.00 Ry     beta=0.70
     Davidson diagonalization with overlap
     ethr =  9.86E-13,  avg # of iterations =  2.0

     total cpu time spent up to now is       21.8 secs

     End of self-consistent calculation

          k = 0.0000 0.0000 0.0000 ( 22119 PWs)   bands (ev):

    -8.4990  -7.7804  -7.6438  -7.2368  -6.8951  -6.8076  -6.6139  -6.4878
    -6.3017  -6.0673  -5.9761  -5.7641  -5.7318  -5.6860  -5.4552  -5.3759
    -5.3197  -5.2430  -5.2099  -5.1983  -5.1690  -5.1311  -5.0077  -4.9345
    -4.8794  -4.6996  -4.4919  -3.7748  -2.5113  -2.2166  -0.5762  -0.2102
     0.4608   0.9116

     the Fermi energy is    -3.7408 ev

!    total energy              =    -329.49096362 Ry
     Harris-Foulkes estimate   =    -329.49096366 Ry
     estimated scf accuracy    <          3.8E-11 Ry

     The total energy is the sum of the following terms:

     one-electron contribution =    -609.31897939 Ry
     hartree contribution      =     326.08312800 Ry
     xc contribution           =     -51.39962068 Ry
     ewald contribution        =       5.14917448 Ry
     smearing contrib. (-TS)   =      -0.00466604 Ry

     convergence has been achieved in   8 iterations

     Forces acting on atoms (Ry/au):

     atom    1 type  1   force =     0.00139620   -0.00072602    0.00006709
     atom    2 type  1   force =    -0.00004669    0.00025545    0.00044541
     atom    3 type  1   force =     0.00183028    0.00022799    0.00065789
     atom    4 type  1   force =    -0.00247788   -0.00075353    0.00091066
     atom    5 type  1   force =    -0.00070191    0.00099612   -0.00208105

     Total force =     0.004465     Total SCF correction =     0.000024

     number of scf cycles    =   9
     number of bfgs steps    =   8

     energy   old            =    -329.4909275759 Ry
     energy   new            =    -329.4909636226 Ry

     CASE: energy  _new < energy  _old

     new trust radius        =       0.0060521714 bohr
     new conv_thr            =            1.0E-10 Ry


ATOMIC_POSITIONS (bohr)
Au      -1.793236717   1.376713247  -0.808830705
Au      -0.737877314   2.517559922   4.141378092
Au       3.080630344   1.705109228   0.523587475
Au       4.130736894   3.293795273   5.754031200
Au       7.775809792   2.178702330   2.321858937



     Writing output data file pwscf.save
     Check: negative starting charge=   -0.006494
     NEW-OLD atomic charge density approx. for the potential
     Check: negative starting charge=   -0.006494

     negative rho (up, down):  7.894E-07 0.000E+00

     total cpu time spent up to now is       22.0 secs

     per-process dynamical memory:    50.7 Mb

     Self-consistent Calculation

     iteration #  1     ecut=    30.00 Ry     beta=0.70
     Davidson diagonalization with overlap
     ethr =  1.00E-06,  avg # of iterations =  3.0

     Threshold (ethr) on eigenvalues was too large:
     Diagonalizing with lowered threshold

     Davidson diagonalization with overlap
     ethr =  1.04E-08,  avg # of iterations =  2.0

     total cpu time spent up to now is       22.4 secs

     total energy              =    -329.49100083 Ry
     Harris-Foulkes estimate   =    -329.49100095 Ry
     estimated scf accuracy    <       0.00000600 Ry

     iteration #  2     ecut=    30.00 Ry     beta=0.70
     Davidson diagonalization with overlap
     ethr =  1.09E-08,  avg # of iterations =  2.0

     total cpu time spent up to now is       22.7 secs

     total energy              =    -329.49100139 Ry
     Harris-Foulkes estimate   =    -329.49100372 Ry
     estimated scf accuracy    <       0.00000490 Ry

     iteration #  3     ecut=    30.00 Ry     beta=0.70
     Davidson diagonalization with overlap
     ethr =  8.91E-09,  avg # of iterations =  2.0

     total cpu time spent up to now is       22.9 secs

     total energy              =    -329.49100217 Ry
     Harris-Foulkes estimate   =    -329.49100292 Ry
     estimated scf accuracy    <       0.00000122 Ry

     iteration #  4     ecut=    30.00 Ry     beta=0.70
     Davidson diagonalization with overlap
     ethr =  2.22E-09,  avg # of iterations =  2.0

     total cpu time spent up to now is       23.1 secs

     total energy              =    -329.49100244 Ry
     Harris-Foulkes estimate   =    -329.49100262 Ry
     estimated scf accuracy    <       0.00000052 Ry

     iteration #  5     ecut=    30.00 Ry     beta=0.70
     Davidson diagonalization with overlap
     ethr =  9.50E-10,  avg # of iterations =  2.0

     total cpu time spent up to now is       23.3 secs

     total energy              =    -329.49100261 Ry
     Harris-Foulkes estimate   =    -329.49100254 Ry
     estimated scf accuracy    <       0.00000002 Ry

     iteration #  6     ecut=    30.00 Ry     beta=0.70
     Davidson diagonalization with overlap
     ethr =  3.80E-11,  avg # of iterations =  3.0

     total cpu time spent up to now is       23.5 secs

     total energy              =    -329.49100262 Ry
     Harris-Foulkes estimate   =    -329.49100262 Ry
     estimated scf accuracy    <          4.8E-09 Ry

     iteration #  7     ecut=    30.00 Ry     beta=0.70
     Davidson diagonalization with overlap
     ethr =  8.77E-12,  avg # of iterations =  3.0

     total cpu time spent up to now is       23.8 secs

     total energy              =    -329.49100267 Ry
     Harris-Foulkes estimate   =    -329.49100262 Ry
     estimated scf accuracy    <          1.6E-09 Ry

     iteration #  8     ecut=    30.00 Ry     beta=0.70
     Davidson diagonalization with overlap
     ethr =  2.85E-12,  avg # of iterations =  2.0

     total cpu time spent up to now is       24.0 secs

     total energy              =    -329.49100267 Ry
     Harris-Foulkes estimate   =    -329.49100267 Ry
     estimated scf accuracy    <          1.4E-10 Ry

     iteration #  9     ecut=    30.00 Ry     beta=0.70
     Davidson diagonalization with overlap
     ethr =  2.54E-13,  avg # of iterations =  3.0

     total cpu time spent up to now is       24.2 secs

     End of self-consistent calculation

          k = 0.0000 0.0000 0.0000 ( 22119 PWs)   bands (ev):

    -8.5022  -7.7798  -7.6473  -7.2344  -6.8951  -6.8099  -6.6097  -6.4876
    -6.3020  -6.0691  -5.9733  -5.7646  -5.7315  -5.6867  -5.4539  -5.3757
    -5.3202  -5.2428  -5.2101  -5.1988  -5.1679  -5.1308  -5.0056  -4.9339
    -4.8778  -4.7006  -4.4909  -3.7774  -2.5079  -2.2167  -0.5764  -0.2113
     0.4633   0.9139

     the Fermi energy is    -3.7437 ev

!    total energy              =    -329.49100267 Ry
     Harris-Foulkes estimate   =    -329.49100267 Ry
     estimated scf accuracy    <          3.5E-11 Ry

     The total energy is the sum of the following terms:

     one-electron contribution =    -609.38908083 Ry
     hartree contribution      =     326.11865405 Ry
     xc contribution           =     -51.40003435 Ry
     ewald contribution        =       5.18402586 Ry
     smearing contrib. (-TS)   =      -0.00456738 Ry

     convergence has been achieved in   9 iterations

     Forces acting on atoms (Ry/au):

     atom    1 type  1   force =     0.00163770   -0.00059557    0.00031769
     atom    2 type  1   force =    -0.00039976    0.00012848    0.00005034
     atom    3 type  1   force =     0.00070860    0.00012951    0.00027027
     atom    4 type  1   force =    -0.00170083   -0.00074953    0.00075298
     atom    5 type  1   force =    -0.00024570    0.00108711   -0.00139129

     Total force =     0.003333     Total SCF correction =     0.000019

     number of scf cycles    =  10
     number of bfgs steps    =   9

     energy   old            =    -329.4909636226 Ry
     energy   new            =    -329.4910026677 Ry

     CASE: energy  _new < energy  _old

     new trust radius        =       0.0090782571 bohr
     new conv_thr            =            1.0E-10 Ry


ATOMIC_POSITIONS (bohr)
Au      -1.787642465   1.373204971  -0.809966670
Au      -0.739231790   2.518098790   4.142257220
Au       3.085376886   1.706823045   0.528237196
Au       4.123458461   3.290948990   5.757554915
Au       7.774101908   2.182804205   2.313942340



     Writing output data file pwscf.save
     Check: negative starting charge=   -0.006494
     NEW-OLD atomic charge density approx. for the potential
     Check: negative starting charge=   -0.006493

     negative rho (up, down):  5.789E-06 0.000E+00

     total cpu time spent up to now is       24.4 secs

     per-process dynamical memory:    50.7 Mb

     Self-consistent Calculation

     iteration #  1     ecut=    30.00 Ry     beta=0.70
     Davidson diagonalization with overlap
     ethr =  1.00E-06,  avg # of iterations =  4.0

     Threshold (ethr) on eigenvalues was too large:
     Diagonalizing with lowered threshold

     Davidson diagonalization with overlap
     ethr =  2.48E-08,  avg # of iterations =  2.0

     total cpu time spent up to now is       24.8 secs

     total energy              =    -329.49103406 Ry
     Harris-Foulkes estimate   =    -329.49103502 Ry
     estimated scf accuracy    <       0.00001427 Ry

     iteration #  2     ecut=    30.00 Ry     beta=0.70
     Davidson diagonalization with overlap
     ethr =  2.59E-08,  avg # of iterations =  2.0

     total cpu time spent up to now is       25.1 secs

     total energy              =    -329.49103542 Ry
     Harris-Foulkes estimate   =    -329.49104105 Ry
     estimated scf accuracy    <       0.00001140 Ry

     iteration #  3     ecut=    30.00 Ry     beta=0.70
     Davidson diagonalization with overlap
     ethr =  2.07E-08,  avg # of iterations =  2.0

     total cpu time spent up to now is       25.3 secs

     total energy              =    -329.49103784 Ry
     Harris-Foulkes estimate   =    -329.49103884 Ry
     estimated scf accuracy    <       0.00000252 Ry

     iteration #  4     ecut=    30.00 Ry     beta=0.70
     Davidson diagonalization with overlap
     ethr =  4.59E-09,  avg # of iterations =  2.0

     total cpu time spent up to now is       25.5 secs

     total energy              =    -329.49103811 Ry
     Harris-Foulkes estimate   =    -329.49103883 Ry
     estimated scf accuracy    <       0.00000136 Ry

     iteration #  5     ecut=    30.00 Ry     beta=0.70
     Davidson diagonalization with overlap
     ethr =  2.47E-09,  avg # of iterations =  2.0

     total cpu time spent up to now is       25.7 secs

     total energy              =    -329.49103847 Ry
     Harris-Foulkes estimate   =    -329.49103837 Ry
     estimated scf accuracy    <       0.00000006 Ry

     iteration #  6     ecut=    30.00 Ry     beta=0.70
     Davidson diagonalization with overlap
     ethr =  1.11E-10,  avg # of iterations =  3.0

     total cpu time spent up to now is       25.9 secs

     total energy              =    -329.49103846 Ry
     Harris-Foulkes estimate   =    -329.49103849 Ry
     estimated scf accuracy    <       0.00000001 Ry

     iteration #  7     ecut=    30.00 Ry     beta=0.70
     Davidson diagonalization with overlap
     ethr =  2.60E-11,  avg # of iterations =  2.0

     total cpu time spent up to now is       26.1 secs

     total energy              =    -329.49103844 Ry
     Harris-Foulkes estimate   =    -329.49103847 Ry
     estimated scf accuracy    <          3.6E-09 Ry

     iteration #  8     ecut=    30.00 Ry     beta=0.70
     Davidson diagonalization with overlap
     ethr =  6.58E-12,  avg # of iterations =  2.0

     total cpu time spent up to now is       26.3 secs

     total energy              =    -329.49103840 Ry
     Harris-Foulkes estimate   =    -329.49103844 Ry
     estimated scf accuracy    <          3.4E-10 Ry

     iteration #  9     ecut=    30.00 Ry     beta=0.70
     Davidson diagonalization with overlap
     ethr =  6.16E-13,  avg # of iterations =  2.0

     total cpu time spent up to now is       26.6 secs

     End of self-consistent calculation

          k = 0.0000 0.0000 0.0000 ( 22119 PWs)   bands (ev):

    -8.5076  -7.7795  -7.6521  -7.2310  -6.8948  -6.8137  -6.6038  -6.4875
    -6.3022  -6.0720  -5.9693  -5.7658  -5.7314  -5.6878  -5.4522  -5.3754
    -5.3210  -5.2427  -5.2106  -5.1990  -5.1668  -5.1302  -5.0023  -4.9330
    -4.8756  -4.7018  -4.4895  -3.7808  -2.5028  -2.2171  -0.5768  -0.2129
     0.4672   0.9171

     the Fermi energy is    -3.7477 ev

!    total energy              =    -329.49103840 Ry
     Harris-Foulkes estimate   =    -329.49103840 Ry
     estimated scf accuracy    <          7.1E-11 Ry

     The total energy is the sum of the following terms:

     one-electron contribution =    -609.50839957 Ry
     hartree contribution      =     326.17889174 Ry
     xc contribution           =     -51.40072533 Ry
     ewald contribution        =       5.24362621 Ry
     smearing contrib. (-TS)   =      -0.00443144 Ry

     convergence has been achieved in   9 iterations

     Forces acting on atoms (Ry/au):

     atom    1 type  1   force =     0.00175795   -0.00042932    0.00051476
     atom    2 type  1   force =    -0.00086320   -0.00001274   -0.00041835
     atom    3 type  1   force =    -0.00056815    0.00000772   -0.00023879
     atom    4 type  1   force =    -0.00061892   -0.00073002    0.00047530
     atom    5 type  1   force =     0.00029233    0.00116435   -0.00033292

     Total force =     0.002745     Total SCF correction =     0.000028

     number of scf cycles    =  11
     number of bfgs steps    =  10

     energy   old            =    -329.4910026677 Ry
     energy   new            =    -329.4910384012 Ry

     CASE: energy  _new < energy  _old

     new trust radius        =       0.0091965035 bohr
     new conv_thr            =            1.0E-10 Ry


ATOMIC_POSITIONS (bohr)
Au      -1.780556818   1.369376972  -0.810719049
Au      -0.741575238   2.518570440   4.142531626
Au       3.088926826   1.708479068   0.532493387
Au       4.116327900   3.287461535   5.761280918
Au       7.772940331   2.187991984   2.306438117



     Writing output data file pwscf.save
     Check: negative starting charge=   -0.006493
     NEW-OLD atomic charge density approx. for the potential
     Check: negative starting charge=   -0.006493

     negative rho (up, down):  6.841E-06 0.000E+00

     total cpu time spent up to now is       26.8 secs

     per-process dynamical memory:    50.7 Mb

     Self-consistent Calculation

     iteration #  1     ecut=    30.00 Ry     beta=0.70
     Davidson diagonalization with overlap
     ethr =  1.00E-06,  avg # of iterations =  4.0

     Threshold (ethr) on eigenvalues was too large:
     Diagonalizing with lowered threshold

     Davidson diagonalization with overlap
     ethr =  2.89E-08,  avg # of iterations =  2.0

     total cpu time spent up to now is       27.2 secs

     total energy              =    -329.49105075 Ry
     Harris-Foulkes estimate   =    -329.49105413 Ry
     estimated scf accuracy    <       0.00001683 Ry

     iteration #  2     ecut=    30.00 Ry     beta=0.70
     Davidson diagonalization with overlap
     ethr =  3.06E-08,  avg # of iterations =  2.0

     total cpu time spent up to now is       27.4 secs

     total energy              =    -329.49105250 Ry
     Harris-Foulkes estimate   =    -329.49105981 Ry
     estimated scf accuracy    <       0.00001563 Ry

     iteration #  3     ecut=    30.00 Ry     beta=0.70
     Davidson diagonalization with overlap
     ethr =  2.84E-08,  avg # of iterations =  2.0

     total cpu time spent up to now is       27.7 secs

     total energy              =    -329.49105573 Ry
     Harris-Foulkes estimate   =    -329.49105709 Ry
     estimated scf accuracy    <       0.00000357 Ry

     iteration #  4     ecut=    30.00 Ry     beta=0.70
     Davidson diagonalization with overlap
     ethr =  6.49E-09,  avg # of iterations =  2.0

     total cpu time spent up to now is       27.8 secs

     total energy              =    -329.49105641 Ry
     Harris-Foulkes estimate   =    -329.49105699 Ry
     estimated scf accuracy    <       0.00000140 Ry

     iteration #  5     ecut=    30.00 Ry     beta=0.70
     Davidson diagonalization with overlap
     ethr =  2.55E-09,  avg # of iterations =  2.0

     total cpu time spent up to now is       28.0 secs

     total energy              =    -329.49105664 Ry
     Harris-Foulkes estimate   =    -329.49105667 Ry
     estimated scf accuracy    <       0.00000006 Ry

     iteration #  6     ecut=    30.00 Ry     beta=0.70
     Davidson diagonalization with overlap
     ethr =  1.15E-10,  avg # of iterations =  3.0

     total cpu time spent up to now is       28.3 secs

     total energy              =    -329.49105667 Ry
     Harris-Foulkes estimate   =    -329.49105667 Ry
     estimated scf accuracy    <          8.0E-09 Ry

     iteration #  7     ecut=    30.00 Ry     beta=0.70
     Davidson diagonalization with overlap
     ethr =  1.46E-11,  avg # of iterations =  3.0

     total cpu time spent up to now is       28.5 secs

     total energy              =    -329.49105673 Ry
     Harris-Foulkes estimate   =    -329.49105668 Ry
     estimated scf accuracy    <          3.1E-09 Ry

     iteration #  8     ecut=    30.00 Ry     beta=0.70
     Davidson diagonalization with overlap
     ethr =  5.55E-12,  avg # of iterations =  2.0

     total cpu time spent up to now is       28.7 secs

     total energy              =    -329.49105670 Ry
     Harris-Foulkes estimate   =    -329.49105673 Ry
     estimated scf accuracy    <          1.9E-10 Ry

     iteration #  9     ecut=    30.00 Ry     beta=0.70
     Davidson diagonalization with overlap
     ethr =  3.48E-13,  avg # of iterations =  3.0

     total cpu time spent up to now is       29.0 secs

     End of self-consistent calculation

          k = 0.0000 0.0000 0.0000 ( 22119 PWs)   bands (ev):

    -8.5139  -7.7798  -7.6563  -7.2276  -6.8943  -6.8181  -6.5987  -6.4874
    -6.3019  -6.0753  -5.9658  -5.7676  -5.7320  -5.6890  -5.4505  -5.3749
    -5.3215  -5.2426  -5.2111  -5.1985  -5.1664  -5.1295  -4.9990  -4.9322
    -4.8736  -4.7026  -4.4883  -3.7837  -2.4975  -2.2176  -0.5772  -0.2142
     0.4712   0.9203

     the Fermi energy is    -3.7511 ev

!    total energy              =    -329.49105670 Ry
     Harris-Foulkes estimate   =    -329.49105670 Ry
     estimated scf accuracy    <          4.6E-11 Ry

     The total energy is the sum of the following terms:

     one-electron contribution =    -609.64367665 Ry
     hartree contribution      =     326.24697097 Ry
     xc contribution           =     -51.40149561 Ry
     ewald contribution        =       5.31145353 Ry
     smearing contrib. (-TS)   =      -0.00430894 Ry

     convergence has been achieved in   9 iterations

     Forces acting on atoms (Ry/au):

     atom    1 type  1   force =     0.00154033   -0.00031619    0.00046940
     atom    2 type  1   force =    -0.00120516   -0.00009216   -0.00072772
     atom    3 type  1   force =    -0.00131450   -0.00007063   -0.00061479
     atom    4 type  1   force =     0.00035331   -0.00069440    0.00013717
     atom    5 type  1   force =     0.00062602    0.00117338    0.00073593

     Total force =     0.003119     Total SCF correction =     0.000030

     number of scf cycles    =  12
     number of bfgs steps    =  11

     energy   old            =    -329.4910384012 Ry
     energy   new            =    -329.4910567027 Ry

     CASE: energy  _new < energy  _old

     new trust radius        =       0.0049019957 bohr
     new conv_thr            =            1.0E-10 Ry


ATOMIC_POSITIONS (bohr)
Au      -1.776093786   1.367349773  -0.810756067
Au      -0.743724136   2.518740245   4.142016028
Au       3.089414760   1.709121461   0.533794754
Au       4.113511513   3.285214226   5.762986092
Au       7.772954650   2.191454295   2.303984193



     Writing output data file pwscf.save
     Check: negative starting charge=   -0.006493
     NEW-OLD atomic charge density approx. for the potential
     Check: negative starting charge=   -0.006492

     negative rho (up, down):  1.823E-07 0.000E+00

     total cpu time spent up to now is       29.2 secs

     per-process dynamical memory:    50.7 Mb

     Self-consistent Calculation

     iteration #  1     ecut=    30.00 Ry     beta=0.70
     Davidson diagonalization with overlap
     ethr =  1.00E-06,  avg # of iterations =  3.0

     Threshold (ethr) on eigenvalues was too large:
     Diagonalizing with lowered threshold

     Davidson diagonalization with overlap
     ethr =  8.64E-09,  avg # of iterations =  2.0

     total cpu time spent up to now is       29.6 secs

     total energy              =    -329.49106490 Ry
     Harris-Foulkes estimate   =    -329.49106643 Ry
     estimated scf accuracy    <       0.00000509 Ry

     iteration #  2     ecut=    30.00 Ry     beta=0.70
     Davidson diagonalization with overlap
     ethr =  9.26E-09,  avg # of iterations =  2.0

     total cpu time spent up to now is       29.8 secs

     total energy              =    -329.49106503 Ry
     Harris-Foulkes estimate   =    -329.49106838 Ry
     estimated scf accuracy    <       0.00000728 Ry

     iteration #  3     ecut=    30.00 Ry     beta=0.70
     Davidson diagonalization with overlap
     ethr =  9.26E-09,  avg # of iterations =  2.0

     total cpu time spent up to now is       30.0 secs

     total energy              =    -329.49106645 Ry
     Harris-Foulkes estimate   =    -329.49106703 Ry
     estimated scf accuracy    <       0.00000143 Ry

     iteration #  4     ecut=    30.00 Ry     beta=0.70
     Davidson diagonalization with overlap
     ethr =  2.60E-09,  avg # of iterations =  2.0

     total cpu time spent up to now is       30.2 secs

     total energy              =    -329.49106683 Ry
     Harris-Foulkes estimate   =    -329.49106683 Ry
     estimated scf accuracy    <       0.00000022 Ry

     iteration #  5     ecut=    30.00 Ry     beta=0.70
     Davidson diagonalization with overlap
     ethr =  3.98E-10,  avg # of iterations =  2.0

     total cpu time spent up to now is       30.4 secs

     total energy              =    -329.49106678 Ry
     Harris-Foulkes estimate   =    -329.49106689 Ry
     estimated scf accuracy    <       0.00000002 Ry

     iteration #  6     ecut=    30.00 Ry     beta=0.70
     Davidson diagonalization with overlap
     ethr =  4.35E-11,  avg # of iterations =  2.0

     total cpu time spent up to now is       30.7 secs

     total energy              =    -329.49106680 Ry
     Harris-Foulkes estimate   =    -329.49106679 Ry
     estimated scf accuracy    <          3.4E-09 Ry

     iteration #  7     ecut=    30.00 Ry     beta=0.70
     Davidson diagonalization with overlap
     ethr =  6.14E-12,  avg # of iterations =  2.0

     total cpu time spent up to now is       30.9 secs

     total energy              =    -329.49106681 Ry
     Harris-Foulkes estimate   =    -329.49106680 Ry
     estimated scf accuracy    <          1.0E-09 Ry

     iteration #  8     ecut=    30.00 Ry     beta=0.70
     Davidson diagonalization with overlap
     ethr =  1.83E-12,  avg # of iterations =  2.0

     total cpu time spent up to now is       31.1 secs

     total energy              =    -329.49106682 Ry
     Harris-Foulkes estimate   =    -329.49106681 Ry
     estimated scf accuracy    <          1.2E-10 Ry

     iteration #  9     ecut=    30.00 Ry     beta=0.70
     Davidson diagonalization with overlap
     ethr =  2.22E-13,  avg # of iterations =  3.0

     total cpu time spent up to now is       31.3 secs

     End of self-consistent calculation

          k = 0.0000 0.0000 0.0000 ( 22119 PWs)   bands (ev):

    -8.5171  -7.7805  -7.6571  -7.2262  -6.8936  -6.8203  -6.5976  -6.4872
    -6.3014  -6.0769  -5.9649  -5.7688  -5.7329  -5.6894  -5.4499  -5.3745
    -5.3214  -5.2427  -5.2111  -5.1979  -5.1668  -5.1292  -4.9976  -4.9320
    -4.8732  -4.7027  -4.4878  -3.7844  -2.4953  -2.2179  -0.5774  -0.2146
     0.4729   0.9214

     the Fermi energy is    -3.7520 ev

!    total energy              =    -329.49106682 Ry
     Harris-Foulkes estimate   =    -329.49106682 Ry
     estimated scf accuracy    <          3.7E-11 Ry

     The total energy is the sum of the following terms:

     one-electron contribution =    -609.71101187 Ry
     hartree contribution      =     326.28065239 Ry
     xc contribution           =     -51.40185276 Ry
     ewald contribution        =       5.34542110 Ry
     smearing contrib. (-TS)   =      -0.00427569 Ry

     convergence has been achieved in   9 iterations

     Forces acting on atoms (Ry/au):

     atom    1 type  1   force =     0.00112997   -0.00032258    0.00024421
     atom    2 type  1   force =    -0.00120593   -0.00007451   -0.00068990
     atom    3 type  1   force =    -0.00110431   -0.00005138   -0.00061129
[...]
     atom    5 type  1   force =    -0.00019957    0.00053893    0.00088355

     Total force =     0.002808     Total SCF correction =     0.000034

     number of scf cycles    =  17
     number of bfgs steps    =  16

     energy   old            =    -329.4911066396 Ry
     energy   new            =    -329.4911167518 Ry

     CASE: energy  _new < energy  _old

     new trust radius        =       0.0087341374 bohr
     new conv_thr            =            1.0E-10 Ry


ATOMIC_POSITIONS (bohr)
Au      -1.751020751   1.348827171  -0.817036600
Au      -0.767587455   2.520597492   4.132821326
Au       3.091136575   1.713492323   0.536662733
Au       4.106677097   3.262291009   5.767821932
Au       7.776857534   2.226672005   2.311755609



     Writing output data file pwscf.save
     Check: negative starting charge=   -0.006487
     NEW-OLD atomic charge density approx. for the potential
     Check: negative starting charge=   -0.006485

     negative rho (up, down):  3.215E-06 0.000E+00

     total cpu time spent up to now is       41.5 secs

     per-process dynamical memory:    50.7 Mb

     Self-consistent Calculation

     iteration #  1     ecut=    30.00 Ry     beta=0.70
     Davidson diagonalization with overlap
     ethr =  1.00E-06,  avg # of iterations =  3.0

     Threshold (ethr) on eigenvalues was too large:
     Diagonalizing with lowered threshold

     Davidson diagonalization with overlap
     ethr =  2.27E-08,  avg # of iterations =  1.0

     total cpu time spent up to now is       42.0 secs

     total energy              =    -329.49112220 Ry
     Harris-Foulkes estimate   =    -329.49112699 Ry
     estimated scf accuracy    <       0.00001337 Ry

     iteration #  2     ecut=    30.00 Ry     beta=0.70
     Davidson diagonalization with overlap
     ethr =  2.43E-08,  avg # of iterations =  3.0

     total cpu time spent up to now is       42.2 secs

     total energy              =    -329.49112484 Ry
     Harris-Foulkes estimate   =    -329.49112971 Ry
     estimated scf accuracy    <       0.00001135 Ry

     iteration #  3     ecut=    30.00 Ry     beta=0.70
     Davidson diagonalization with overlap
     ethr =  2.06E-08,  avg # of iterations =  2.0

     total cpu time spent up to now is       42.4 secs

     total energy              =    -329.49112714 Ry
     Harris-Foulkes estimate   =    -329.49112769 Ry
     estimated scf accuracy    <       0.00000126 Ry

     iteration #  4     ecut=    30.00 Ry     beta=0.70
     Davidson diagonalization with overlap
     ethr =  2.30E-09,  avg # of iterations =  2.0

     total cpu time spent up to now is       42.7 secs

     total energy              =    -329.49112754 Ry
     Harris-Foulkes estimate   =    -329.49112779 Ry
     estimated scf accuracy    <       0.00000112 Ry

     iteration #  5     ecut=    30.00 Ry     beta=0.70
     Davidson diagonalization with overlap
     ethr =  2.04E-09,  avg # of iterations =  2.0

     total cpu time spent up to now is       42.9 secs

     total energy              =    -329.49112787 Ry
     Harris-Foulkes estimate   =    -329.49112776 Ry
     estimated scf accuracy    <       0.00000007 Ry

     iteration #  6     ecut=    30.00 Ry     beta=0.70
     Davidson diagonalization with overlap
     ethr =  1.19E-10,  avg # of iterations =  2.0

     total cpu time spent up to now is       43.1 secs

     total energy              =    -329.49112796 Ry
     Harris-Foulkes estimate   =    -329.49112789 Ry
     estimated scf accuracy    <          8.6E-09 Ry

     iteration #  7     ecut=    30.00 Ry     beta=0.70
     Davidson diagonalization with overlap
     ethr =  1.56E-11,  avg # of iterations =  2.0

     total cpu time spent up to now is       43.3 secs

     total energy              =    -329.49112799 Ry
     Harris-Foulkes estimate   =    -329.49112796 Ry
     estimated scf accuracy    <          1.7E-09 Ry

     iteration #  8     ecut=    30.00 Ry     beta=0.70
     Davidson diagonalization with overlap
     ethr =  3.11E-12,  avg # of iterations =  2.0

     total cpu time spent up to now is       43.5 secs

     total energy              =    -329.49112799 Ry
     Harris-Foulkes estimate   =    -329.49112799 Ry
     estimated scf accuracy    <          3.5E-10 Ry

     iteration #  9     ecut=    30.00 Ry     beta=0.70
     Davidson diagonalization with overlap
     ethr =  6.37E-13,  avg # of iterations =  2.0

     total cpu time spent up to now is       43.7 secs

     End of self-consistent calculation

          k = 0.0000 0.0000 0.0000 ( 22119 PWs)   bands (ev):

    -8.5264  -7.7876  -7.6468  -7.2229  -6.8823  -6.8269  -6.6087  -6.4849
    -6.2951  -6.0832  -5.9697  -5.7735  -5.7390  -5.6890  -5.4526  -5.3696
    -5.3183  -5.2448  -5.2075  -5.1960  -5.1706  -5.1288  -4.9960  -4.9330
    -4.8731  -4.7054  -4.4885  -3.7800  -2.4916  -2.2217  -0.5780  -0.2129
     0.4747   0.9230

     the Fermi energy is    -3.7469 ev

!    total energy              =    -329.49112802 Ry
     Harris-Foulkes estimate   =    -329.49112799 Ry
     estimated scf accuracy    <          7.0E-11 Ry

     The total energy is the sum of the following terms:

     one-electron contribution =    -609.80344390 Ry
     hartree contribution      =     326.32595552 Ry
     xc contribution           =     -51.40222832 Ry
     ewald contribution        =       5.39303825 Ry
     smearing contrib. (-TS)   =      -0.00444957 Ry

     convergence has been achieved in   9 iterations

     Forces acting on atoms (Ry/au):

     atom    1 type  1   force =    -0.00130273   -0.00049344   -0.00076409
     atom    2 type  1   force =     0.00071204    0.00029829    0.00003146
     atom    3 type  1   force =     0.00134692    0.00016413    0.00028324
     atom    4 type  1   force =    -0.00073806   -0.00029802   -0.00008002
     atom    5 type  1   force =    -0.00001817    0.00032904    0.00052941

     Total force =     0.002464     Total SCF correction =     0.000029

     number of scf cycles    =  18
     number of bfgs steps    =  17

     energy   old            =    -329.4911167518 Ry
     energy   new            =    -329.4911280249 Ry

     CASE: energy  _new < energy  _old

     new trust radius        =       0.0129441801 bohr
     new conv_thr            =            1.0E-10 Ry


ATOMIC_POSITIONS (bohr)
Au      -1.748859729   1.341856698  -0.821495755
Au      -0.772844237   2.522015086   4.130028137
Au       3.096059567   1.715293009   0.537762610
Au       4.103692308   3.254482644   5.768267791
Au       7.778015091   2.238232563   2.317462216



     Writing output data file pwscf.save
     Check: negative starting charge=   -0.006485
     NEW-OLD atomic charge density approx. for the potential
     Check: negative starting charge=   -0.006483

     negative rho (up, down):  1.761E-05 0.000E+00

     total cpu time spent up to now is       43.9 secs

     per-process dynamical memory:    50.7 Mb

     Self-consistent Calculation

     iteration #  1     ecut=    30.00 Ry     beta=0.70
     Davidson diagonalization with overlap
     ethr =  1.00E-06,  avg # of iterations =  4.0

     Threshold (ethr) on eigenvalues was too large:
     Diagonalizing with lowered threshold

     Davidson diagonalization with overlap
     ethr =  5.36E-08,  avg # of iterations =  1.0

     negative rho (up, down):  2.496E-08 0.000E+00

     total cpu time spent up to now is       44.4 secs

     total energy              =    -329.49112801 Ry
     Harris-Foulkes estimate   =    -329.49113775 Ry
     estimated scf accuracy    <       0.00002982 Ry

     iteration #  2     ecut=    30.00 Ry     beta=0.70
     Davidson diagonalization with overlap
     ethr =  5.42E-08,  avg # of iterations =  3.0

     total cpu time spent up to now is       44.6 secs

     total energy              =    -329.49113299 Ry
     Harris-Foulkes estimate   =    -329.49114465 Ry
     estimated scf accuracy    <       0.00002507 Ry

     iteration #  3     ecut=    30.00 Ry     beta=0.70
     Davidson diagonalization with overlap
     ethr =  4.56E-08,  avg # of iterations =  2.0

     total cpu time spent up to now is       44.9 secs

     total energy              =    -329.49113829 Ry
     Harris-Foulkes estimate   =    -329.49113932 Ry
     estimated scf accuracy    <       0.00000284 Ry

     iteration #  4     ecut=    30.00 Ry     beta=0.70
     Davidson diagonalization with overlap
     ethr =  5.17E-09,  avg # of iterations =  2.0

     total cpu time spent up to now is       45.1 secs

     total energy              =    -329.49113914 Ry
     Harris-Foulkes estimate   =    -329.49113976 Ry
     estimated scf accuracy    <       0.00000259 Ry

     iteration #  5     ecut=    30.00 Ry     beta=0.70
     Davidson diagonalization with overlap
     ethr =  4.70E-09,  avg # of iterations =  2.0

     total cpu time spent up to now is       45.3 secs

     total energy              =    -329.49113961 Ry
     Harris-Foulkes estimate   =    -329.49113964 Ry
     estimated scf accuracy    <       0.00000014 Ry

     iteration #  6     ecut=    30.00 Ry     beta=0.70
     Davidson diagonalization with overlap
     ethr =  2.50E-10,  avg # of iterations =  3.0

     total cpu time spent up to now is       45.5 secs

     total energy              =    -329.49113959 Ry
     Harris-Foulkes estimate   =    -329.49113966 Ry
     estimated scf accuracy    <       0.00000002 Ry

     iteration #  7     ecut=    30.00 Ry     beta=0.70
     Davidson diagonalization with overlap
     ethr =  3.29E-11,  avg # of iterations =  3.0

     total cpu time spent up to now is       45.7 secs

     total energy              =    -329.49113965 Ry
     Harris-Foulkes estimate   =    -329.49113960 Ry
     estimated scf accuracy    <          3.6E-09 Ry

     iteration #  8     ecut=    30.00 Ry     beta=0.70
     Davidson diagonalization with overlap
     ethr =  6.61E-12,  avg # of iterations =  3.0

     total cpu time spent up to now is       46.0 secs

     total energy              =    -329.49113967 Ry
     Harris-Foulkes estimate   =    -329.49113965 Ry
     estimated scf accuracy    <          3.5E-10 Ry

     iteration #  9     ecut=    30.00 Ry     beta=0.70
     Davidson diagonalization with overlap
     ethr =  6.35E-13,  avg # of iterations =  2.0

     total cpu time spent up to now is       46.2 secs

     End of self-consistent calculation

          k = 0.0000 0.0000 0.0000 ( 22119 PWs)   bands (ev):

    -8.5236  -7.7872  -7.6449  -7.2236  -6.8792  -6.8252  -6.6109  -6.4845
    -6.2953  -6.0826  -5.9701  -5.7726  -5.7383  -5.6883  -5.4542  -5.3684
    -5.3182  -5.2452  -5.2071  -5.1967  -5.1697  -5.1290  -4.9973  -4.9325
    -4.8720  -4.7081  -4.4885  -3.7793  -2.4931  -2.2218  -0.5781  -0.2122
     0.4730   0.9235

     the Fermi energy is    -3.7461 ev

!    total energy              =    -329.49113970 Ry
     Harris-Foulkes estimate   =    -329.49113967 Ry
     estimated scf accuracy    <          3.8E-11 Ry

     The total energy is the sum of the following terms:

     one-electron contribution =    -609.71287238 Ry
     hartree contribution      =     326.28095521 Ry
     xc contribution           =     -51.40179321 Ry
     ewald contribution        =       5.34705490 Ry
     smearing contrib. (-TS)   =      -0.00448422 Ry

     convergence has been achieved in   9 iterations

     Forces acting on atoms (Ry/au):

     atom    1 type  1   force =    -0.00057760   -0.00025333   -0.00025478
     atom    2 type  1   force =     0.00097265    0.00027088   -0.00028338
     atom    3 type  1   force =     0.00031942    0.00002655    0.00016671
     atom    4 type  1   force =    -0.00108157   -0.00005461    0.00028602
     atom    5 type  1   force =     0.00036710    0.00001051    0.00008543

     Total force =     0.001758     Total SCF correction =     0.000025

     number of scf cycles    =  19
     number of bfgs steps    =  18

     energy   old            =    -329.4911280249 Ry
     energy   new            =    -329.4911396981 Ry

     CASE: energy  _new < energy  _old

     new trust radius        =       0.0033738873 bohr
     new conv_thr            =            1.0E-10 Ry


ATOMIC_POSITIONS (bohr)
Au      -1.749075646   1.339776999  -0.822792025
Au      -0.772985480   2.522748830   4.129082820
Au       3.098244009   1.715775806   0.538041027
Au       4.101317193   3.252362308   5.768753885
Au       7.778562923   2.241216057   2.318939293



     Writing output data file pwscf.save
     Check: negative starting charge=   -0.006483
     NEW-OLD atomic charge density approx. for the potential
     Check: negative starting charge=   -0.006483

     negative rho (up, down):  2.131E-08 0.000E+00

     total cpu time spent up to now is       46.4 secs

     per-process dynamical memory:    50.7 Mb

     Self-consistent Calculation

     iteration #  1     ecut=    30.00 Ry     beta=0.70
     Davidson diagonalization with overlap
     ethr =  1.00E-06,  avg # of iterations =  3.0

     Threshold (ethr) on eigenvalues was too large:
     Diagonalizing with lowered threshold

     Davidson diagonalization with overlap
     ethr =  4.48E-09,  avg # of iterations =  2.0

     total cpu time spent up to now is       46.9 secs

     total energy              =    -329.49114240 Ry
     Harris-Foulkes estimate   =    -329.49114281 Ry
     estimated scf accuracy    <       0.00000264 Ry

     iteration #  2     ecut=    30.00 Ry     beta=0.70
     Davidson diagonalization with overlap
     ethr =  4.80E-09,  avg # of iterations =  3.0

     total cpu time spent up to now is       47.1 secs

     total energy              =    -329.49114276 Ry
     Harris-Foulkes estimate   =    -329.49114404 Ry
     estimated scf accuracy    <       0.00000286 Ry

     iteration #  3     ecut=    30.00 Ry     beta=0.70
     Davidson diagonalization with overlap
     ethr =  4.80E-09,  avg # of iterations =  2.0

     total cpu time spent up to now is       47.3 secs

     total energy              =    -329.49114339 Ry
     Harris-Foulkes estimate   =    -329.49114354 Ry
     estimated scf accuracy    <       0.00000052 Ry

     iteration #  4     ecut=    30.00 Ry     beta=0.70
     Davidson diagonalization with overlap
     ethr =  9.52E-10,  avg # of iterations =  2.0

     total cpu time spent up to now is       47.5 secs

     total energy              =    -329.49114361 Ry
     Harris-Foulkes estimate   =    -329.49114356 Ry
     estimated scf accuracy    <       0.00000014 Ry

     iteration #  5     ecut=    30.00 Ry     beta=0.70
     Davidson diagonalization with overlap
     ethr =  2.52E-10,  avg # of iterations =  2.0

     total cpu time spent up to now is       47.7 secs

     total energy              =    -329.49114367 Ry
     Harris-Foulkes estimate   =    -329.49114364 Ry
     estimated scf accuracy    <       0.00000001 Ry

     iteration #  6     ecut=    30.00 Ry     beta=0.70
     Davidson diagonalization with overlap
     ethr =  2.21E-11,  avg # of iterations =  2.0

     total cpu time spent up to now is       47.9 secs

     total energy              =    -329.49114365 Ry
     Harris-Foulkes estimate   =    -329.49114367 Ry
     estimated scf accuracy    <          1.6E-09 Ry

     iteration #  7     ecut=    30.00 Ry     beta=0.70
     Davidson diagonalization with overlap
     ethr =  2.97E-12,  avg # of iterations =  2.0

     total cpu time spent up to now is       48.1 secs

     total energy              =    -329.49114370 Ry
     Harris-Foulkes estimate   =    -329.49114365 Ry
     estimated scf accuracy    <          3.6E-10 Ry

     iteration #  8     ecut=    30.00 Ry     beta=0.70
     Davidson diagonalization with overlap
     ethr =  6.52E-13,  avg # of iterations =  2.0

     total cpu time spent up to now is       48.4 secs

     End of self-consistent calculation

          k = 0.0000 0.0000 0.0000 ( 22119 PWs)   bands (ev):

    -8.5220  -7.7862  -7.6460  -7.2241  -6.8793  -6.8241  -6.6099  -6.4845
    -6.2964  -6.0819  -5.9692  -5.7722  -5.7375  -5.6882  -5.4545  -5.3684
    -5.3186  -5.2450  -5.2073  -5.1970  -5.1691  -5.1290  -4.9978  -4.9318
    -4.8713  -4.7091  -4.4881  -3.7799  -2.4938  -2.2212  -0.5782  -0.2123
     0.4727   0.9240

     the Fermi energy is    -3.7467 ev

!    total energy              =    -329.49114373 Ry
     Harris-Foulkes estimate   =    -329.49114370 Ry
     estimated scf accuracy    <          8.6E-11 Ry

     The total energy is the sum of the following terms:

     one-electron contribution =    -609.68758675 Ry
     hartree contribution      =     326.26850779 Ry
     xc contribution           =     -51.40168452 Ry
     ewald contribution        =       5.33408110 Ry
     smearing contrib. (-TS)   =      -0.00446135 Ry

     convergence has been achieved in   8 iterations

     Forces acting on atoms (Ry/au):

     atom    1 type  1   force =    -0.00016106   -0.00013390   -0.00003334
     atom    2 type  1   force =     0.00080754    0.00020427   -0.00045508
     atom    3 type  1   force =    -0.00020622   -0.00005117    0.00005676
     atom    4 type  1   force =    -0.00088050    0.00002511    0.00036344
     atom    5 type  1   force =     0.00044023   -0.00004430    0.00006821

     Total force =     0.001450     Total SCF correction =     0.000035

     bfgs converged in  20 scf cycles and  19 bfgs steps
     (criteria: energy <  1.0E-04, force <  1.0E-03)

     End of BFGS Geometry Optimization

     Final energy   =    -329.4911437278 Ry
Begin final coordinates

ATOMIC_POSITIONS (bohr)
Au      -1.749075646   1.339776999  -0.822792025
Au      -0.772985480   2.522748830   4.129082820
Au       3.098244009   1.715775806   0.538041027
Au       4.101317193   3.252362308   5.768753885
Au       7.778562923   2.241216057   2.318939293
End final coordinates



     Writing output data file pwscf.save
 
     init_run     :      0.16s CPU      0.18s WALL (       1 calls)
     electrons    :     41.73s CPU     44.65s WALL (      20 calls)
     update_pot   :      1.27s CPU      1.57s WALL (      19 calls)
     forces       :      0.82s CPU      0.84s WALL (      20 calls)

     Called by init_run:
     wfcinit      :      0.07s CPU      0.08s WALL (       1 calls)
     potinit      :      0.03s CPU      0.04s WALL (       1 calls)

     Called by electrons:
     c_bands      :     31.80s CPU     32.27s WALL (     199 calls)
     sum_band     :      4.71s CPU      4.82s WALL (     199 calls)
     v_of_rho     :      3.57s CPU      3.62s WALL (     203 calls)
     mix_rho      :      1.30s CPU      2.87s WALL (     199 calls)

     Called by c_bands:
     init_us_2    :      0.61s CPU      0.64s WALL (     399 calls)
     cegterg      :     28.20s CPU     28.46s WALL (     199 calls)

     Called by sum_band:

     Called by *egterg:
     h_psi        :     22.22s CPU     22.39s WALL (     667 calls)
     g_psi        :      0.22s CPU      0.22s WALL (     467 calls)
     cdiaghg      :      1.47s CPU      1.47s WALL (     631 calls)

     Called by h_psi:
     h_psi:pot    :     21.91s CPU     22.08s WALL (     667 calls)
     h_psi:calbec :      1.20s CPU      1.21s WALL (     667 calls)
     vloc_psi     :     19.37s CPU     19.53s WALL (     667 calls)
     add_vuspsi   :      1.34s CPU      1.34s WALL (     667 calls)

     General routines
     calbec       :      1.43s CPU      1.45s WALL (     747 calls)
     fft          :      2.00s CPU      2.04s WALL (    2304 calls)
     fftw         :     20.46s CPU     20.78s WALL (   43124 calls)
     davcio       :      0.21s CPU      1.45s WALL (    1817 calls)
 
     Parallel routines
     fft_scatter  :      5.27s CPU      5.07s WALL (   45428 calls)
 
     PWSCF        :    44.56s CPU        48.54s WALL

 
   This run was terminated on:  19:54:17   3Aug2017            

=------------------------------------------------------------------------------=
   JOB DONE.
=------------------------------------------------------------------------------=
