
     Program PWSCF v.6.0 (svn rev. 13079) starts on  3Aug2017 at 21:42:46 

     This program is part of the open-source Quantum ESPRESSO suite
     for quantum simulation of materials; please cite
         "P. Giannozzi et al., J. Phys.:Condens. Matter 21 395502 (2009);
          URL http://www.quantum-espresso.org", 
     in publications or presentations arising from this work. More details at
     http://www.quantum-espresso.org/quote

     Parallel version (MPI), running on    10 processors
     R & G space division:  proc/nbgrp/npool/nimage =      10
     Reading input from input/multi/minchecks-Gold5-490.in

     Current dimensions of program PWSCF are:
     Max number of different atomic species (ntypx) = 10
     Max number of k-points (npk) =  40000
     Max angular momentum in pseudopotentials (lmaxx) =  3
     Message from routine iosys:
     pot_extrapolation='second-order' not available, using 'atomic'
     Message from routine iosys:
     wfc_extrapolation='second-order' not available, using 'atomic'

     Subspace diagonalization in iterative solution of the eigenvalue problem:
     a serial algorithm will be used

 
     Parallelization info
     --------------------
     sticks:   dense  smooth     PW     G-vecs:    dense   smooth      PW
     Min         380     380     94                17748    17748    2208
     Max         381     381     95                17753    17753    2213
     Sum        3809    3809    949               177509   177509   22119
 


     bravais-lattice index     =            1
     lattice parameter (alat)  =      20.0000  a.u.
     unit-cell volume          =    8000.0000 (a.u.)^3
     number of atoms/cell      =            5
     number of atomic types    =            1
     number of electrons       =        55.00
     number of Kohn-Sham states=           34
     kinetic-energy cutoff     =      30.0000  Ry
     charge density cutoff     =     120.0000  Ry
     convergence threshold     =      1.0E-08
     mixing beta               =       0.7000
     number of iterations used =            8  plain     mixing
     Exchange-correlation      = BLYP ( 1  3  1  3 0 0)
     nstep                     =           50


     celldm(1)=  20.000000  celldm(2)=   0.000000  celldm(3)=   0.000000
     celldm(4)=   0.000000  celldm(5)=   0.000000  celldm(6)=   0.000000

     crystal axes: (cart. coord. in units of alat)
               a(1) = (   1.000000   0.000000   0.000000 )  
               a(2) = (   0.000000   1.000000   0.000000 )  
               a(3) = (   0.000000   0.000000   1.000000 )  

     reciprocal axes: (cart. coord. in units 2 pi/alat)
               b(1) = (  1.000000  0.000000  0.000000 )  
               b(2) = (  0.000000  1.000000  0.000000 )  
               b(3) = (  0.000000  0.000000  1.000000 )  


     PseudoPot. # 1 for Au read from file:
     ./Au.blyp-d-hgh.UPF
     MD5 check sum: c10d8bae01f806c36a1643a1c69a8479
     Pseudo is Norm-conserving, Zval = 11.0
     Generated in analytical, separable form
     Using radial grid of 1279 points,  6 beta functions with: 
                l(1) =   0
                l(2) =   0
                l(3) =   1
                l(4) =   1
                l(5) =   2
                l(6) =   2

     atomic species   valence    mass     pseudopotential
        Au            11.00    28.08600     Au( 1.00)

     No symmetry found



   Cartesian axes

     site n.     atom                  positions (alat units)
         1           Au  tau(   1) = (  -0.1110078   0.0544632  -0.0198670  )
         2           Au  tau(   2) = (  -0.0387166   0.1138722   0.2142323  )
         3           Au  tau(   3) = (   0.1465859   0.0424419   0.0126170  )
         4           Au  tau(   4) = (   0.2055642   0.1627947   0.2754750  )
         5           Au  tau(   5) = (   0.3945531   0.0891744   0.1197016  )

     number of k points=     1  Marzari-Vanderbilt smearing, width (Ry)=  0.0250
                       cart. coord. in units 2pi/alat
        k(    1) = (   0.0000000   0.0000000   0.0000000), wk =   2.0000000

     Dense  grid:   177509 G-vectors     FFT dimensions: (  72,  72,  72)

     Estimated max dynamical RAM per process >      15.04Mb

     Estimated total allocated dynamical RAM >     150.39Mb

     Initial potential from superposition of free atoms
     Check: negative starting charge=   -0.006438

     starting charge   54.99940, renormalised to   55.00000

     negative rho (up, down):  6.438E-03 0.000E+00
     Starting wfc are   45 randomized atomic wfcs

     total cpu time spent up to now is        0.3 secs

     per-process dynamical memory:    41.0 Mb

     Self-consistent Calculation

     iteration #  1     ecut=    30.00 Ry     beta=0.70
     Davidson diagonalization with overlap
     ethr =  1.00E-02,  avg # of iterations =  3.0

     Threshold (ethr) on eigenvalues was too large:
     Diagonalizing with lowered threshold

     Davidson diagonalization with overlap
     ethr =  3.84E-04,  avg # of iterations =  5.0

     negative rho (up, down):  8.843E-04 0.000E+00

     total cpu time spent up to now is        0.7 secs

     total energy              =    -329.36554106 Ry
     Harris-Foulkes estimate   =    -329.52668332 Ry
     estimated scf accuracy    <       0.26883011 Ry

     iteration #  2     ecut=    30.00 Ry     beta=0.70
     Davidson diagonalization with overlap
     ethr =  4.89E-04,  avg # of iterations =  5.0

     negative rho (up, down):  4.091E-04 0.000E+00

     total cpu time spent up to now is        1.0 secs

     total energy              =    -329.39347106 Ry
     Harris-Foulkes estimate   =    -329.54878768 Ry
     estimated scf accuracy    <       0.32598543 Ry

     iteration #  3     ecut=    30.00 Ry     beta=0.70
     Davidson diagonalization with overlap
     ethr =  4.89E-04,  avg # of iterations =  2.0

     negative rho (up, down):  1.539E-04 0.000E+00

     total cpu time spent up to now is        1.2 secs

     total energy              =    -329.46038379 Ry
     Harris-Foulkes estimate   =    -329.48786218 Ry
     estimated scf accuracy    <       0.07294348 Ry

     iteration #  4     ecut=    30.00 Ry     beta=0.70
     Davidson diagonalization with overlap
     ethr =  1.33E-04,  avg # of iterations =  2.0

     negative rho (up, down):  3.386E-06 0.000E+00

     total cpu time spent up to now is        1.4 secs

     total energy              =    -329.47297499 Ry
     Harris-Foulkes estimate   =    -329.47375562 Ry
     estimated scf accuracy    <       0.00203206 Ry

     iteration #  5     ecut=    30.00 Ry     beta=0.70
     Davidson diagonalization with overlap
     ethr =  3.69E-06,  avg # of iterations =  7.0

     total cpu time spent up to now is        1.7 secs

     total energy              =    -329.47365166 Ry
     Harris-Foulkes estimate   =    -329.47427614 Ry
     estimated scf accuracy    <       0.00160243 Ry

     iteration #  6     ecut=    30.00 Ry     beta=0.70
     Davidson diagonalization with overlap
     ethr =  2.91E-06,  avg # of iterations =  2.0

     total cpu time spent up to now is        1.9 secs

     total energy              =    -329.47390480 Ry
     Harris-Foulkes estimate   =    -329.47396066 Ry
     estimated scf accuracy    <       0.00012877 Ry

     iteration #  7     ecut=    30.00 Ry     beta=0.70
     Davidson diagonalization with overlap
     ethr =  2.34E-07,  avg # of iterations =  2.0

     total cpu time spent up to now is        2.1 secs

     total energy              =    -329.47393090 Ry
     Harris-Foulkes estimate   =    -329.47394522 Ry
     estimated scf accuracy    <       0.00003282 Ry

     iteration #  8     ecut=    30.00 Ry     beta=0.70
     Davidson diagonalization with overlap
     ethr =  5.97E-08,  avg # of iterations =  2.0

     total cpu time spent up to now is        2.3 secs

     total energy              =    -329.47393568 Ry
     Harris-Foulkes estimate   =    -329.47394245 Ry
     estimated scf accuracy    <       0.00001768 Ry

     iteration #  9     ecut=    30.00 Ry     beta=0.70
     Davidson diagonalization with overlap
     ethr =  3.21E-08,  avg # of iterations =  2.0

     total cpu time spent up to now is        2.5 secs

     total energy              =    -329.47393865 Ry
     Harris-Foulkes estimate   =    -329.47393944 Ry
     estimated scf accuracy    <       0.00000151 Ry

     iteration # 10     ecut=    30.00 Ry     beta=0.70
     Davidson diagonalization with overlap
     ethr =  2.75E-09,  avg # of iterations =  2.0

     total cpu time spent up to now is        2.7 secs

     total energy              =    -329.47393898 Ry
     Harris-Foulkes estimate   =    -329.47393917 Ry
     estimated scf accuracy    <       0.00000036 Ry

     iteration # 11     ecut=    30.00 Ry     beta=0.70
     Davidson diagonalization with overlap
     ethr =  6.52E-10,  avg # of iterations =  2.0

     total cpu time spent up to now is        3.0 secs

     total energy              =    -329.47393900 Ry
     Harris-Foulkes estimate   =    -329.47393906 Ry
     estimated scf accuracy    <       0.00000003 Ry

     iteration # 12     ecut=    30.00 Ry     beta=0.70
     Davidson diagonalization with overlap
     ethr =  5.23E-11,  avg # of iterations =  2.0

     total cpu time spent up to now is        3.2 secs

     End of self-consistent calculation

          k = 0.0000 0.0000 0.0000 ( 22119 PWs)   bands (ev):

    -8.0420  -7.4978  -7.4658  -7.0759  -6.8195  -6.6836  -6.5445  -6.3429
    -6.2057  -6.0178  -5.8021  -5.6700  -5.6377  -5.5758  -5.4361  -5.4152
    -5.3411  -5.2132  -5.1840  -5.1798  -5.1378  -5.1166  -5.0880  -4.9144
    -4.8221  -4.7662  -4.4014  -3.8092  -2.8211  -2.1284  -0.5167  -0.2281
     0.4215   0.8847

     the Fermi energy is    -3.7924 ev

!    total energy              =    -329.47393897 Ry
     Harris-Foulkes estimate   =    -329.47393901 Ry
     estimated scf accuracy    <          9.9E-09 Ry

     The total energy is the sum of the following terms:

     one-electron contribution =    -594.86362186 Ry
     hartree contribution      =     318.98782274 Ry
     xc contribution           =     -51.36404798 Ry
     ewald contribution        =      -2.23295890 Ry
     smearing contrib. (-TS)   =      -0.00113297 Ry

     convergence has been achieved in  12 iterations

     Forces acting on atoms (Ry/au):

     atom    1 type  1   force =     0.01251874   -0.00487468   -0.00918501
     atom    2 type  1   force =     0.00565902   -0.00106411   -0.00187399
     atom    3 type  1   force =     0.00700760    0.01571075    0.03056854
     atom    4 type  1   force =     0.00583947   -0.00424020   -0.00946671
     atom    5 type  1   force =    -0.03102483   -0.00553175   -0.01004284

     Total force =     0.052608     Total SCF correction =     0.000335

     BFGS Geometry Optimization

     number of scf cycles    =   1
     number of bfgs steps    =   0

     energy   new            =    -329.4739389745 Ry

     new trust radius        =       0.0350766290 bohr
     new conv_thr            =       0.0000000100 Ry


ATOMIC_POSITIONS (bohr)
Au      -2.207636262   1.084388316  -0.406525006
Au      -0.768672976   2.276379894   4.282771014
Au       2.938725601   0.864549747   0.282909543
Au       4.117122468   3.251653796   5.500033292
Au       7.860037169   1.777956246   2.383990156



     Writing output data file pwscf.save
     Check: negative starting charge=   -0.006438
     NEW-OLD atomic charge density approx. for the potential
     Check: negative starting charge=   -0.006447

     negative rho (up, down):  2.253E-04 0.000E+00

     total cpu time spent up to now is        3.4 secs

     per-process dynamical memory:    42.9 Mb

     Self-consistent Calculation

     iteration #  1     ecut=    30.00 Ry     beta=0.70
     Davidson diagonalization with overlap
     ethr =  1.00E-06,  avg # of iterations =  4.0

     negative rho (up, down):  4.127E-06 0.000E+00

     total cpu time spent up to now is        3.8 secs

     total energy              =    -329.47647819 Ry
     Harris-Foulkes estimate   =    -329.47646377 Ry
     estimated scf accuracy    <       0.00017303 Ry

     iteration #  2     ecut=    30.00 Ry     beta=0.70
     Davidson diagonalization with overlap
     ethr =  3.15E-07,  avg # of iterations =  3.0

     negative rho (up, down):  9.937E-07 0.000E+00

     total cpu time spent up to now is        4.0 secs

     total energy              =    -329.47644627 Ry
     Harris-Foulkes estimate   =    -329.47664001 Ry
     estimated scf accuracy    <       0.00051292 Ry

     iteration #  3     ecut=    30.00 Ry     beta=0.70
     Davidson diagonalization with overlap
     ethr =  3.15E-07,  avg # of iterations =  2.0

     total cpu time spent up to now is        4.3 secs

     total energy              =    -329.47654351 Ry
     Harris-Foulkes estimate   =    -329.47655831 Ry
     estimated scf accuracy    <       0.00004691 Ry

     iteration #  4     ecut=    30.00 Ry     beta=0.70
     Davidson diagonalization with overlap
     ethr =  8.53E-08,  avg # of iterations =  2.0

     total cpu time spent up to now is        4.4 secs

     total energy              =    -329.47655283 Ry
     Harris-Foulkes estimate   =    -329.47655502 Ry
     estimated scf accuracy    <       0.00000748 Ry

     iteration #  5     ecut=    30.00 Ry     beta=0.70
     Davidson diagonalization with overlap
     ethr =  1.36E-08,  avg # of iterations =  2.0

     total cpu time spent up to now is        4.7 secs

     total energy              =    -329.47655427 Ry
     Harris-Foulkes estimate   =    -329.47655491 Ry
     estimated scf accuracy    <       0.00000133 Ry

     iteration #  6     ecut=    30.00 Ry     beta=0.70
     Davidson diagonalization with overlap
     ethr =  2.41E-09,  avg # of iterations =  2.0

     total cpu time spent up to now is        4.9 secs

     total energy              =    -329.47655456 Ry
     Harris-Foulkes estimate   =    -329.47655461 Ry
     estimated scf accuracy    <       0.00000017 Ry

     iteration #  7     ecut=    30.00 Ry     beta=0.70
     Davidson diagonalization with overlap
     ethr =  3.16E-10,  avg # of iterations =  2.0

     total cpu time spent up to now is        5.1 secs

     total energy              =    -329.47655456 Ry
     Harris-Foulkes estimate   =    -329.47655461 Ry
     estimated scf accuracy    <       0.00000004 Ry

     iteration #  8     ecut=    30.00 Ry     beta=0.70
     Davidson diagonalization with overlap
     ethr =  8.09E-11,  avg # of iterations =  2.0

     total cpu time spent up to now is        5.3 secs

     End of self-consistent calculation

          k = 0.0000 0.0000 0.0000 ( 22119 PWs)   bands (ev):

    -8.0745  -7.5256  -7.5024  -7.1073  -6.8393  -6.7046  -6.5555  -6.3701
    -6.2266  -6.0270  -5.8192  -5.6818  -5.6519  -5.5873  -5.4365  -5.4168
    -5.3401  -5.2191  -5.1836  -5.1790  -5.1416  -5.1187  -5.0914  -4.9096
    -4.8245  -4.7609  -4.4042  -3.8006  -2.7958  -2.1251  -0.5229  -0.2244
     0.4253   0.8879

     the Fermi energy is    -3.7819 ev

!    total energy              =    -329.47655460 Ry
     Harris-Foulkes estimate   =    -329.47655457 Ry
     estimated scf accuracy    <          3.9E-09 Ry

     The total energy is the sum of the following terms:

     one-electron contribution =    -597.05249887 Ry
     hartree contribution      =     320.06478511 Ry
     xc contribution           =     -51.36950868 Ry
     ewald contribution        =      -1.11781647 Ry
     smearing contrib. (-TS)   =      -0.00151570 Ry

     convergence has been achieved in   8 iterations

     Forces acting on atoms (Ry/au):

     atom    1 type  1   force =     0.01211814   -0.00449883   -0.00856557
     atom    2 type  1   force =     0.00464482   -0.00078849   -0.00143399
     atom    3 type  1   force =     0.00628911    0.01434113    0.02745716
     atom    4 type  1   force =     0.00378220   -0.00283667   -0.00633229
     atom    5 type  1   force =    -0.02683427   -0.00621713   -0.01112532

     Total force =     0.046998     Total SCF correction =     0.000257

     number of scf cycles    =   2
     number of bfgs steps    =   1

     energy   old            =    -329.4739389744 Ry
     energy   new            =    -329.4765546035 Ry

     CASE: energy  _new < energy  _old


     WARNING: bfgs curvature condition failed, Theta= 0.899
     new trust radius        =       0.0385842919 bohr
     new conv_thr            =       0.0000000026 Ry


ATOMIC_POSITIONS (bohr)
Au      -2.193035065   1.078920892  -0.416914926
Au      -0.762899220   2.275378459   4.280962361
Au       2.946408499   0.882013806   0.316446498
Au       4.122077472   3.247966220   5.491801268
Au       7.827024315   1.770648624   2.370883799



     Writing output data file pwscf.save
     Check: negative starting charge=   -0.006447
     NEW-OLD atomic charge density approx. for the potential
     Check: negative starting charge=   -0.006458

     negative rho (up, down):  2.762E-04 0.000E+00

     total cpu time spent up to now is        5.5 secs

     per-process dynamical memory:    50.7 Mb

     Self-consistent Calculation

     iteration #  1     ecut=    30.00 Ry     beta=0.70
     Davidson diagonalization with overlap
     ethr =  1.00E-06,  avg # of iterations =  4.0

     negative rho (up, down):  6.271E-06 0.000E+00

     total cpu time spent up to now is        5.8 secs

     total energy              =    -329.47898170 Ry
     Harris-Foulkes estimate   =    -329.47895014 Ry
     estimated scf accuracy    <       0.00020262 Ry

     iteration #  2     ecut=    30.00 Ry     beta=0.70
     Davidson diagonalization with overlap
     ethr =  3.68E-07,  avg # of iterations =  4.0

     negative rho (up, down):  1.578E-06 0.000E+00

     total cpu time spent up to now is        6.1 secs

     total energy              =    -329.47894816 Ry
     Harris-Foulkes estimate   =    -329.47916217 Ry
     estimated scf accuracy    <       0.00055328 Ry

     iteration #  3     ecut=    30.00 Ry     beta=0.70
     Davidson diagonalization with overlap
     ethr =  3.68E-07,  avg # of iterations =  2.0

     negative rho (up, down):  1.007E-08 0.000E+00

     total cpu time spent up to now is        6.3 secs

     total energy              =    -329.47905522 Ry
     Harris-Foulkes estimate   =    -329.47907414 Ry
     estimated scf accuracy    <       0.00005900 Ry

     iteration #  4     ecut=    30.00 Ry     beta=0.70
     Davidson diagonalization with overlap
     ethr =  1.07E-07,  avg # of iterations =  2.0

     total cpu time spent up to now is        6.5 secs

     total energy              =    -329.47906626 Ry
     Harris-Foulkes estimate   =    -329.47906933 Ry
     estimated scf accuracy    <       0.00000850 Ry

     iteration #  5     ecut=    30.00 Ry     beta=0.70
     Davidson diagonalization with overlap
     ethr =  1.54E-08,  avg # of iterations =  2.0

     total cpu time spent up to now is        6.7 secs

     total energy              =    -329.47906794 Ry
     Harris-Foulkes estimate   =    -329.47906866 Ry
     estimated scf accuracy    <       0.00000161 Ry

     iteration #  6     ecut=    30.00 Ry     beta=0.70
     Davidson diagonalization with overlap
     ethr =  2.93E-09,  avg # of iterations =  2.0

     total cpu time spent up to now is        7.0 secs

     total energy              =    -329.47906841 Ry
     Harris-Foulkes estimate   =    -329.47906835 Ry
     estimated scf accuracy    <       0.00000019 Ry

     iteration #  7     ecut=    30.00 Ry     beta=0.70
     Davidson diagonalization with overlap
     ethr =  3.42E-10,  avg # of iterations =  2.0

     total cpu time spent up to now is        7.2 secs

     total energy              =    -329.47906842 Ry
     Harris-Foulkes estimate   =    -329.47906847 Ry
     estimated scf accuracy    <       0.00000005 Ry

     iteration #  8     ecut=    30.00 Ry     beta=0.70
     Davidson diagonalization with overlap
     ethr =  9.63E-11,  avg # of iterations =  2.0

     total cpu time spent up to now is        7.4 secs

     total energy              =    -329.47906842 Ry
     Harris-Foulkes estimate   =    -329.47906843 Ry
     estimated scf accuracy    <          4.2E-09 Ry

     iteration #  9     ecut=    30.00 Ry     beta=0.70
     Davidson diagonalization with overlap
     ethr =  7.66E-12,  avg # of iterations =  3.0

     total cpu time spent up to now is        7.6 secs

     End of self-consistent calculation

          k = 0.0000 0.0000 0.0000 ( 22119 PWs)   bands (ev):

    -8.1141  -7.5654  -7.5315  -7.1407  -6.8605  -6.7233  -6.5712  -6.3985
    -6.2480  -6.0351  -5.8392  -5.6927  -5.6663  -5.5998  -5.4370  -5.4173
    -5.3388  -5.2252  -5.1838  -5.1766  -5.1476  -5.1207  -5.0912  -4.9054
    -4.8270  -4.7540  -4.4071  -3.7925  -2.7675  -2.1222  -0.5295  -0.2207
     0.4306   0.8917

     the Fermi energy is    -3.7719 ev

!    total energy              =    -329.47906840 Ry
     Harris-Foulkes estimate   =    -329.47906842 Ry
     estimated scf accuracy    <          1.5E-09 Ry

     The total energy is the sum of the following terms:

     one-electron contribution =    -599.38108734 Ry
     hartree contribution      =     321.21070360 Ry
     xc contribution           =     -51.37548937 Ry
     ewald contribution        =       0.06868312 Ry
     smearing contrib. (-TS)   =      -0.00187841 Ry

     convergence has been achieved in   9 iterations

     Forces acting on atoms (Ry/au):

     atom    1 type  1   force =     0.01151560   -0.00411434   -0.00793168
     atom    2 type  1   force =     0.00344333   -0.00051005   -0.00095542
     atom    3 type  1   force =     0.00520247    0.01285606    0.02395642
     atom    4 type  1   force =     0.00167832   -0.00134835   -0.00295873
     atom    5 type  1   force =    -0.02183972   -0.00688332   -0.01211059

     Total force =     0.040941     Total SCF correction =     0.000177

     number of scf cycles    =   3
     number of bfgs steps    =   2

     energy   old            =    -329.4765546035 Ry
     energy   new            =    -329.4790683976 Ry

     CASE: energy  _new < energy  _old

     new trust radius        =       0.0578764379 bohr
     new conv_thr            =       0.0000000024 Ry


ATOMIC_POSITIONS (bohr)
Au      -2.169740229   1.070446264  -0.433172192
Au      -0.755210062   2.274154199   4.278714124
Au       2.957443385   0.908675379   0.366616946
Au       4.126988981   3.244190726   5.483455241
Au       7.780093926   1.757461433   2.347564881



     Writing output data file pwscf.save
     Check: negative starting charge=   -0.006458
     NEW-OLD atomic charge density approx. for the potential
     Check: negative starting charge=   -0.006469

     negative rho (up, down):  6.234E-04 0.000E+00

     total cpu time spent up to now is        7.8 secs

     per-process dynamical memory:    50.7 Mb

     Self-consistent Calculation

     iteration #  1     ecut=    30.00 Ry     beta=0.70
     Davidson diagonalization with overlap
     ethr =  1.00E-06,  avg # of iterations =  6.0

     negative rho (up, down):  2.894E-05 0.000E+00

     total cpu time spent up to now is        8.2 secs

     total energy              =    -329.48199345 Ry
     Harris-Foulkes estimate   =    -329.48175035 Ry
     estimated scf accuracy    <       0.00043708 Ry

     iteration #  2     ecut=    30.00 Ry     beta=0.70
     Davidson diagonalization with overlap
     ethr =  7.95E-07,  avg # of iterations =  5.0

     negative rho (up, down):  9.627E-06 0.000E+00

     total cpu time spent up to now is        8.5 secs

     total energy              =    -329.48193591 Ry
     Harris-Foulkes estimate   =    -329.48235368 Ry
     estimated scf accuracy    <       0.00104646 Ry

     iteration #  3     ecut=    30.00 Ry     beta=0.70
     Davidson diagonalization with overlap
     ethr =  7.95E-07,  avg # of iterations =  2.0

     negative rho (up, down):  1.946E-07 0.000E+00

     total cpu time spent up to now is        8.7 secs

     total energy              =    -329.48214582 Ry
     Harris-Foulkes estimate   =    -329.48219055 Ry
     estimated scf accuracy    <       0.00014051 Ry

     iteration #  4     ecut=    30.00 Ry     beta=0.70
     Davidson diagonalization with overlap
     ethr =  2.55E-07,  avg # of iterations =  2.0

     total cpu time spent up to now is        8.9 secs

     total energy              =    -329.48217337 Ry
     Harris-Foulkes estimate   =    -329.48217818 Ry
     estimated scf accuracy    <       0.00001715 Ry

     iteration #  5     ecut=    30.00 Ry     beta=0.70
     Davidson diagonalization with overlap
     ethr =  3.12E-08,  avg # of iterations =  2.0

     total cpu time spent up to now is        9.1 secs

     total energy              =    -329.48217700 Ry
     Harris-Foulkes estimate   =    -329.48217839 Ry
     estimated scf accuracy    <       0.00000361 Ry

     iteration #  6     ecut=    30.00 Ry     beta=0.70
     Davidson diagonalization with overlap
     ethr =  6.56E-09,  avg # of iterations =  2.0

     total cpu time spent up to now is        9.3 secs

     total energy              =    -329.48217772 Ry
     Harris-Foulkes estimate   =    -329.48217790 Ry
     estimated scf accuracy    <       0.00000042 Ry

     iteration #  7     ecut=    30.00 Ry     beta=0.70
     Davidson diagonalization with overlap
     ethr =  7.68E-10,  avg # of iterations =  2.0

     total cpu time spent up to now is        9.5 secs

     total energy              =    -329.48217774 Ry
     Harris-Foulkes estimate   =    -329.48217786 Ry
     estimated scf accuracy    <       0.00000011 Ry

     iteration #  8     ecut=    30.00 Ry     beta=0.70
     Davidson diagonalization with overlap
     ethr =  1.96E-10,  avg # of iterations =  2.0

     total cpu time spent up to now is        9.7 secs

     total energy              =    -329.48217777 Ry
     Harris-Foulkes estimate   =    -329.48217776 Ry
     estimated scf accuracy    <          8.0E-09 Ry

     iteration #  9     ecut=    30.00 Ry     beta=0.70
     Davidson diagonalization with overlap
     ethr =  1.45E-11,  avg # of iterations =  3.0

     total cpu time spent up to now is       10.0 secs

     total energy              =    -329.48217777 Ry
     Harris-Foulkes estimate   =    -329.48217778 Ry
     estimated scf accuracy    <          2.8E-09 Ry

     iteration # 10     ecut=    30.00 Ry     beta=0.70
     Davidson diagonalization with overlap
     ethr =  5.12E-12,  avg # of iterations =  2.0

     total cpu time spent up to now is       10.2 secs

     End of self-consistent calculation

          k = 0.0000 0.0000 0.0000 ( 22119 PWs)   bands (ev):

    -8.1807  -7.6263  -7.5684  -7.1883  -6.8904  -6.7431  -6.6042  -6.4339
    -6.2771  -6.0447  -5.8711  -5.7070  -5.6841  -5.6186  -5.4378  -5.4171
    -5.3366  -5.2320  -5.1850  -5.1735  -5.1574  -5.1250  -5.0832  -4.9012
    -4.8302  -4.7424  -4.4111  -3.7824  -2.7244  -2.1196  -0.5389  -0.2162
     0.4405   0.8981

     the Fermi energy is    -3.7596 ev

!    total energy              =    -329.48217775 Ry
     Harris-Foulkes estimate   =    -329.48217777 Ry
     estimated scf accuracy    <          2.8E-10 Ry

     The total energy is the sum of the following terms:

     one-electron contribution =    -602.69880718 Ry
     hartree contribution      =     322.84346586 Ry
     xc contribution           =     -51.38450923 Ry
     ewald contribution        =       1.75999895 Ry
     smearing contrib. (-TS)   =      -0.00232615 Ry

     convergence has been achieved in  10 iterations

     Forces acting on atoms (Ry/au):

     atom    1 type  1   force =     0.01070324   -0.00367118   -0.00712964
     atom    2 type  1   force =     0.00145099   -0.00021320   -0.00042851
     atom    3 type  1   force =     0.00247646    0.01074559    0.01909313
     atom    4 type  1   force =    -0.00080315    0.00067297    0.00168664
     atom    5 type  1   force =    -0.01382754   -0.00753418   -0.01322162

     Total force =     0.033077     Total SCF correction =     0.000063

     number of scf cycles    =   4
     number of bfgs steps    =   3

     energy   old            =    -329.4790683976 Ry
     energy   new            =    -329.4821777495 Ry

     CASE: energy  _new < energy  _old

     new trust radius        =       0.0868146569 bohr
     new conv_thr            =       0.0000000019 Ry


ATOMIC_POSITIONS (bohr)
Au      -2.132317038   1.057070018  -0.458905489
Au      -0.745783219   2.272606451   4.275844919
Au       2.971130390   0.949524684   0.441987928
Au       4.131037313   3.241295607   5.477359765
Au       7.715508554   1.734431240   2.306891878



     Writing output data file pwscf.save
     Check: negative starting charge=   -0.006469
     NEW-OLD atomic charge density approx. for the potential
     Check: negative starting charge=   -0.006466

     negative rho (up, down):  1.266E-03 0.000E+00

     total cpu time spent up to now is       10.4 secs

     per-process dynamical memory:    50.7 Mb

     Self-consistent Calculation

     iteration #  1     ecut=    30.00 Ry     beta=0.70
     Davidson diagonalization with overlap
     ethr =  1.00E-06,  avg # of iterations = 11.0

     negative rho (up, down):  9.364E-05 0.000E+00

     total cpu time spent up to now is       10.9 secs

     total energy              =    -329.48512068 Ry
     Harris-Foulkes estimate   =    -329.48433451 Ry
     estimated scf accuracy    <       0.00091505 Ry

     iteration #  2     ecut=    30.00 Ry     beta=0.70
     Davidson diagonalization with overlap
     ethr =  1.66E-06,  avg # of iterations =  7.0

     negative rho (up, down):  3.581E-05 0.000E+00

     total cpu time spent up to now is       11.2 secs

     total energy              =    -329.48504745 Ry
     Harris-Foulkes estimate   =    -329.48577300 Ry
     estimated scf accuracy    <       0.00173830 Ry

     iteration #  3     ecut=    30.00 Ry     beta=0.70
     Davidson diagonalization with overlap
     ethr =  1.66E-06,  avg # of iterations =  3.0

     negative rho (up, down):  1.738E-06 0.000E+00

     total cpu time spent up to now is       11.4 secs

     total energy              =    -329.48541758 Ry
     Harris-Foulkes estimate   =    -329.48552394 Ry
     estimated scf accuracy    <       0.00033812 Ry

     iteration #  4     ecut=    30.00 Ry     beta=0.70
     Davidson diagonalization with overlap
     ethr =  6.15E-07,  avg # of iterations =  2.0

     total cpu time spent up to now is       11.6 secs

     total energy              =    -329.48548251 Ry
     Harris-Foulkes estimate   =    -329.48549181 Ry
     estimated scf accuracy    <       0.00003315 Ry

     iteration #  5     ecut=    30.00 Ry     beta=0.70
     Davidson diagonalization with overlap
     ethr =  6.03E-08,  avg # of iterations =  2.0

     total cpu time spent up to now is       11.8 secs

     total energy              =    -329.48548919 Ry
     Harris-Foulkes estimate   =    -329.48549257 Ry
     estimated scf accuracy    <       0.00000796 Ry

     iteration #  6     ecut=    30.00 Ry     beta=0.70
     Davidson diagonalization with overlap
     ethr =  1.45E-08,  avg # of iterations =  2.0

     total cpu time spent up to now is       12.1 secs

     total energy              =    -329.48549053 Ry
     Harris-Foulkes estimate   =    -329.48549113 Ry
     estimated scf accuracy    <       0.00000092 Ry

     iteration #  7     ecut=    30.00 Ry     beta=0.70
     Davidson diagonalization with overlap
     ethr =  1.67E-09,  avg # of iterations =  2.0

     total cpu time spent up to now is       12.3 secs

     total energy              =    -329.48549042 Ry
     Harris-Foulkes estimate   =    -329.48549080 Ry
     estimated scf accuracy    <       0.00000022 Ry

     iteration #  8     ecut=    30.00 Ry     beta=0.70
     Davidson diagonalization with overlap
     ethr =  4.00E-10,  avg # of iterations =  2.0

     total cpu time spent up to now is       12.5 secs

     total energy              =    -329.48549052 Ry
     Harris-Foulkes estimate   =    -329.48549047 Ry
     estimated scf accuracy    <       0.00000002 Ry

     iteration #  9     ecut=    30.00 Ry     beta=0.70
     Davidson diagonalization with overlap
     ethr =  3.52E-11,  avg # of iterations =  3.0

     total cpu time spent up to now is       12.7 secs

     total energy              =    -329.48549049 Ry
     Harris-Foulkes estimate   =    -329.48549053 Ry
     estimated scf accuracy    <          6.5E-09 Ry

     iteration # 10     ecut=    30.00 Ry     beta=0.70
     Davidson diagonalization with overlap
     ethr =  1.19E-11,  avg # of iterations =  2.0

     total cpu time spent up to now is       12.9 secs

     End of self-consistent calculation

          k = 0.0000 0.0000 0.0000 ( 22119 PWs)   bands (ev):

    -8.2956  -7.7125  -7.6205  -7.2548  -6.9289  -6.7599  -6.6737  -6.4722
    -6.3155  -6.0564  -5.9213  -5.7282  -5.7014  -5.6468  -5.4398  -5.4156
    -5.3329  -5.2366  -5.1906  -5.1785  -5.1637  -5.1285  -5.0613  -4.8993
    -4.8333  -4.7245  -4.4175  -3.7706  -2.6591  -2.1190  -0.5523  -0.2108
     0.4584   0.9088

     the Fermi energy is    -3.7449 ev

!    total energy              =    -329.48549049 Ry
     Harris-Foulkes estimate   =    -329.48549049 Ry
     estimated scf accuracy    <          8.1E-10 Ry

     The total energy is the sum of the following terms:

     one-electron contribution =    -607.35961302 Ry
     hartree contribution      =     325.13785239 Ry
     xc contribution           =     -51.39842343 Ry
     ewald contribution        =       4.13757140 Ry
     smearing contrib. (-TS)   =      -0.00287783 Ry

     convergence has been achieved in  10 iterations

     Forces acting on atoms (Ry/au):

     atom    1 type  1   force =     0.00989641   -0.00324102   -0.00630884
     atom    2 type  1   force =    -0.00162966   -0.00001517   -0.00014613
     atom    3 type  1   force =    -0.00410158    0.00750971    0.01203204
     atom    4 type  1   force =    -0.00311786    0.00310390    0.00735818
     atom    5 type  1   force =    -0.00104731   -0.00735742   -0.01293524

     Total force =     0.025787     Total SCF correction =     0.000115

     number of scf cycles    =   5
     number of bfgs steps    =   4

     energy   old            =    -329.4821777495 Ry
     energy   new            =    -329.4854904911 Ry

     CASE: energy  _new < energy  _old

     new trust radius        =       0.1302219853 bohr
     new conv_thr            =       0.0000000013 Ry


ATOMIC_POSITIONS (bohr)
Au      -2.069637634   1.034996033  -0.501386384
Au      -0.736695004   2.270412822   4.271589847
Au       2.979606039   1.012517247   0.555644717
Au       4.132536694   3.242008959   5.480157847
Au       7.633765904   1.694992939   2.237172973



     Writing output data file pwscf.save
     Check: negative starting charge=   -0.006466
     NEW-OLD atomic charge density approx. for the potential
     Check: negative starting charge=   -0.006495

     negative rho (up, down):  2.408E-03 0.000E+00

     total cpu time spent up to now is       13.1 secs

     per-process dynamical memory:    50.7 Mb

     Self-consistent Calculation

     iteration #  1     ecut=    30.00 Ry     beta=0.70
     Davidson diagonalization with overlap
     ethr =  1.00E-06,  avg # of iterations = 13.0

     negative rho (up, down):  2.413E-04 0.000E+00

     total cpu time spent up to now is       13.6 secs

     total energy              =    -329.48679832 Ry
     Harris-Foulkes estimate   =    -329.48531373 Ry
     estimated scf accuracy    <       0.00191242 Ry

     iteration #  2     ecut=    30.00 Ry     beta=0.70
     Davidson diagonalization with overlap
     ethr =  3.48E-06,  avg # of iterations = 10.0

     negative rho (up, down):  9.008E-05 0.000E+00

     total cpu time spent up to now is       14.0 secs

     total energy              =    -329.48684814 Ry
     Harris-Foulkes estimate   =    -329.48787585 Ry
     estimated scf accuracy    <       0.00232112 Ry

     iteration #  3     ecut=    30.00 Ry     beta=0.70
     Davidson diagonalization with overlap
     ethr =  3.48E-06,  avg # of iterations =  3.0

     negative rho (up, down):  9.298E-06 0.000E+00

     total cpu time spent up to now is       14.2 secs

     total energy              =    -329.48737002 Ry
     Harris-Foulkes estimate   =    -329.48762831 Ry
     estimated scf accuracy    <       0.00079426 Ry

     iteration #  4     ecut=    30.00 Ry     beta=0.70
     Davidson diagonalization with overlap
     ethr =  1.44E-06,  avg # of iterations =  2.0

     total cpu time spent up to now is       14.4 secs

     total energy              =    -329.48752705 Ry
     Harris-Foulkes estimate   =    -329.48754308 Ry
     estimated scf accuracy    <       0.00006532 Ry

     iteration #  5     ecut=    30.00 Ry     beta=0.70
     Davidson diagonalization with overlap
     ethr =  1.19E-07,  avg # of iterations =  2.0

     total cpu time spent up to now is       14.6 secs

     total energy              =    -329.48753955 Ry
     Harris-Foulkes estimate   =    -329.48754604 Ry
     estimated scf accuracy    <       0.00001502 Ry

     iteration #  6     ecut=    30.00 Ry     beta=0.70
     Davidson diagonalization with overlap
     ethr =  2.73E-08,  avg # of iterations =  2.0

     total cpu time spent up to now is       14.8 secs

     total energy              =    -329.48754227 Ry
     Harris-Foulkes estimate   =    -329.48754320 Ry
     estimated scf accuracy    <       0.00000190 Ry

     iteration #  7     ecut=    30.00 Ry     beta=0.70
     Davidson diagonalization with overlap
     ethr =  3.45E-09,  avg # of iterations =  2.0

     total cpu time spent up to now is       15.0 secs

     total energy              =    -329.48754270 Ry
     Harris-Foulkes estimate   =    -329.48754281 Ry
     estimated scf accuracy    <       0.00000042 Ry

     iteration #  8     ecut=    30.00 Ry     beta=0.70
     Davidson diagonalization with overlap
     ethr =  7.58E-10,  avg # of iterations =  2.0

     total cpu time spent up to now is       15.2 secs

     total energy              =    -329.48754283 Ry
     Harris-Foulkes estimate   =    -329.48754280 Ry
     estimated scf accuracy    <       0.00000004 Ry

     iteration #  9     ecut=    30.00 Ry     beta=0.70
     Davidson diagonalization with overlap
     ethr =  6.46E-11,  avg # of iterations =  2.0

     total cpu time spent up to now is       15.5 secs

     total energy              =    -329.48754282 Ry
     Harris-Foulkes estimate   =    -329.48754285 Ry
     estimated scf accuracy    <          8.2E-09 Ry

     iteration # 10     ecut=    30.00 Ry     beta=0.70
     Davidson diagonalization with overlap
     ethr =  1.49E-11,  avg # of iterations =  2.0

     total cpu time spent up to now is       15.7 secs

     total energy              =    -329.48754278 Ry
     Harris-Foulkes estimate   =    -329.48754282 Ry
     estimated scf accuracy    <          2.1E-09 Ry

     iteration # 11     ecut=    30.00 Ry     beta=0.70
     Davidson diagonalization with overlap
     ethr =  3.76E-12,  avg # of iterations =  2.0

     total cpu time spent up to now is       15.9 secs

     End of self-consistent calculation

          k = 0.0000 0.0000 0.0000 ( 22119 PWs)   bands (ev):

    -8.4872  -7.8353  -7.6990  -7.3336  -6.9678  -6.8164  -6.7465  -6.5207
    -6.3564  -6.0717  -5.9919  -5.7628  -5.7158  -5.6848  -5.4468  -5.4098
    -5.3260  -5.2369  -5.2103  -5.1915  -5.1587  -5.1222  -5.0189  -4.9052
    -4.8307  -4.7001  -4.4304  -3.7589  -2.5615  -2.1260  -0.5705  -0.2037
     0.4897   0.9261

     the Fermi energy is    -3.7301 ev

!    total energy              =    -329.48754276 Ry
     Harris-Foulkes estimate   =    -329.48754278 Ry
     estimated scf accuracy    <          1.9E-10 Ry

     The total energy is the sum of the following terms:

     one-electron contribution =    -613.61915910 Ry
     hartree contribution      =     328.22030260 Ry
     xc contribution           =     -51.41984977 Ry
     ewald contribution        =       7.33470531 Ry
     smearing contrib. (-TS)   =      -0.00354180 Ry

     convergence has been achieved in  11 iterations

     Forces acting on atoms (Ry/au):

     atom    1 type  1   force =     0.00916971   -0.00268420   -0.00417697
     atom    2 type  1   force =    -0.00607600    0.00010460    0.00076906
     atom    3 type  1   force =    -0.01654526    0.00256885   -0.00326096
     atom    4 type  1   force =    -0.00329656    0.00529601    0.01363783
     atom    5 type  1   force =     0.01674810   -0.00528526   -0.00696895

     Total force =     0.031924     Total SCF correction =     0.000062

     number of scf cycles    =   6
     number of bfgs steps    =   5

     energy   old            =    -329.4854904911 Ry
     energy   new            =    -329.4875427581 Ry

     CASE: energy  _new < energy  _old

     new trust radius        =       0.0163179584 bohr
     new conv_thr            =       0.0000000017 Ry


ATOMIC_POSITIONS (bohr)
Au      -2.057581448   1.031167743  -0.507774342
Au      -0.741218352   2.270259516   4.271865651
Au       2.965321294   1.018942220   0.560220909
Au       4.130646528   3.246178074   5.491203022
Au       7.642407977   1.688380447   2.227663761



     Writing output data file pwscf.save
     Check: negative starting charge=   -0.006495
     NEW-OLD atomic charge density approx. for the potential
     Check: negative starting charge=   -0.006495

     negative rho (up, down):  5.156E-05 0.000E+00

     total cpu time spent up to now is       16.1 secs

     per-process dynamical memory:    50.7 Mb

     Self-consistent Calculation

     iteration #  1     ecut=    30.00 Ry     beta=0.70
     Davidson diagonalization with overlap
     ethr =  1.00E-06,  avg # of iterations =  4.0

     negative rho (up, down):  2.219E-07 0.000E+00

     total cpu time spent up to now is       16.5 secs

     total energy              =    -329.48826728 Ry
     Harris-Foulkes estimate   =    -329.48827979 Ry
     estimated scf accuracy    <       0.00006183 Ry

     iteration #  2     ecut=    30.00 Ry     beta=0.70
     Davidson diagonalization with overlap
     ethr =  1.12E-07,  avg # of iterations =  3.0

     negative rho (up, down):  3.074E-08 0.000E+00

     total cpu time spent up to now is       16.7 secs

     total energy              =    -329.48825642 Ry
     Harris-Foulkes estimate   =    -329.48832756 Ry
     estimated scf accuracy    <       0.00018639 Ry

     iteration #  3     ecut=    30.00 Ry     beta=0.70
     Davidson diagonalization with overlap
     ethr =  1.12E-07,  avg # of iterations =  2.0

     total cpu time spent up to now is       17.0 secs

     total energy              =    -329.48829317 Ry
     Harris-Foulkes estimate   =    -329.48829673 Ry
     estimated scf accuracy    <       0.00001338 Ry

     iteration #  4     ecut=    30.00 Ry     beta=0.70
     Davidson diagonalization with overlap
     ethr =  2.43E-08,  avg # of iterations =  2.0

     total cpu time spent up to now is       17.2 secs

     total energy              =    -329.48829564 Ry
     Harris-Foulkes estimate   =    -329.48829601 Ry
     estimated scf accuracy    <       0.00000094 Ry

     iteration #  5     ecut=    30.00 Ry     beta=0.70
     Davidson diagonalization with overlap
     ethr =  1.71E-09,  avg # of iterations =  2.0

     total cpu time spent up to now is       17.4 secs

     total energy              =    -329.48829586 Ry
     Harris-Foulkes estimate   =    -329.48829597 Ry
     estimated scf accuracy    <       0.00000024 Ry

     iteration #  6     ecut=    30.00 Ry     beta=0.70
     Davidson diagonalization with overlap
     ethr =  4.45E-10,  avg # of iterations =  2.0

     total cpu time spent up to now is       17.6 secs

     total energy              =    -329.48829575 Ry
     Harris-Foulkes estimate   =    -329.48829592 Ry
     estimated scf accuracy    <       0.00000002 Ry

     iteration #  7     ecut=    30.00 Ry     beta=0.70
     Davidson diagonalization with overlap
     ethr =  3.75E-11,  avg # of iterations =  2.0

     total cpu time spent up to now is       17.8 secs

     total energy              =    -329.48829576 Ry
     Harris-Foulkes estimate   =    -329.48829575 Ry
     estimated scf accuracy    <          4.8E-09 Ry

     iteration #  8     ecut=    30.00 Ry     beta=0.70
     Davidson diagonalization with overlap
     ethr =  8.67E-12,  avg # of iterations =  2.0

     total cpu time spent up to now is       18.0 secs

     End of self-consistent calculation

          k = 0.0000 0.0000 0.0000 ( 22119 PWs)   bands (ev):

    -8.4855  -7.8255  -7.6913  -7.3202  -6.9598  -6.8096  -6.7313  -6.5157
    -6.3479  -6.0639  -5.9937  -5.7660  -5.7213  -5.6847  -5.4450  -5.4087
    -5.3246  -5.2348  -5.2100  -5.1920  -5.1612  -5.1246  -5.0155  -4.9103
    -4.8344  -4.6987  -4.4361  -3.7624  -2.5555  -2.1363  -0.5692  -0.2044
     0.4925   0.9261

     the Fermi energy is    -3.7334 ev

!    total energy              =    -329.48829579 Ry
     Harris-Foulkes estimate   =    -329.48829576 Ry
     estimated scf accuracy    <          7.7E-10 Ry

     The total energy is the sum of the following terms:

     one-electron contribution =    -613.17425020 Ry
     hartree contribution      =     328.00075532 Ry
     xc contribution           =     -51.41742261 Ry
     ewald contribution        =       7.10619893 Ry
     smearing contrib. (-TS)   =      -0.00357723 Ry

     convergence has been achieved in   8 iterations

     Forces acting on atoms (Ry/au):

     atom    1 type  1   force =     0.00736816   -0.00266736   -0.00440425
     atom    2 type  1   force =    -0.00578728    0.00025905    0.00109253
     atom    3 type  1   force =    -0.01220363    0.00295908   -0.00227307
     atom    4 type  1   force =    -0.00181453    0.00389513    0.01098358
     atom    5 type  1   force =     0.01243728   -0.00444590   -0.00539880

     Total force =     0.024922     Total SCF correction =     0.000141

     number of scf cycles    =   7
     number of bfgs steps    =   6

     energy   old            =    -329.4875427581 Ry
     energy   new            =    -329.4882957917 Ry

     CASE: energy  _new < energy  _old

     new trust radius        =       0.0179497542 bohr
     new conv_thr            =       0.0000000008 Ry


ATOMIC_POSITIONS (bohr)
Au      -2.043670034   1.026153606  -0.516571327
Au      -0.745828415   2.270185228   4.272392945
Au       2.953626173   1.028569929   0.569850294
Au       4.129864765   3.249648323   5.501425039
Au       7.645583511   1.680370914   2.216082048



     Writing output data file pwscf.save
     Check: negative starting charge=   -0.006495
     NEW-OLD atomic charge density approx. for the potential
     Check: negative starting charge=   -0.006498

     negative rho (up, down):  6.639E-05 0.000E+00

     total cpu time spent up to now is       18.3 secs

     per-process dynamical memory:    50.7 Mb

     Self-consistent Calculation

     iteration #  1     ecut=    30.00 Ry     beta=0.70
     Davidson diagonalization with overlap
     ethr =  1.00E-06,  avg # of iterations =  4.0

     negative rho (up, down):  3.728E-07 0.000E+00

     total cpu time spent up to now is       18.6 secs

     total energy              =    -329.48881010 Ry
     Harris-Foulkes estimate   =    -329.48881407 Ry
     estimated scf accuracy    <       0.00006157 Ry

     iteration #  2     ecut=    30.00 Ry     beta=0.70
     Davidson diagonalization with overlap
     ethr =  1.12E-07,  avg # of iterations =  2.0

     negative rho (up, down):  3.285E-08 0.000E+00

     total cpu time spent up to now is       18.9 secs

     total energy              =    -329.48880716 Ry
     Harris-Foulkes estimate   =    -329.48885206 Ry
     estimated scf accuracy    <       0.00010277 Ry

     iteration #  3     ecut=    30.00 Ry     beta=0.70
     Davidson diagonalization with overlap
     ethr =  1.12E-07,  avg # of iterations =  2.0

     total cpu time spent up to now is       19.1 secs

     total energy              =    -329.48882950 Ry
     Harris-Foulkes estimate   =    -329.48883734 Ry
     estimated scf accuracy    <       0.00002431 Ry

     iteration #  4     ecut=    30.00 Ry     beta=0.70
     Davidson diagonalization with overlap
     ethr =  4.42E-08,  avg # of iterations =  2.0

     total cpu time spent up to now is       19.3 secs

     total energy              =    -329.48883363 Ry
     Harris-Foulkes estimate   =    -329.48883428 Ry
     estimated scf accuracy    <       0.00000109 Ry

     iteration #  5     ecut=    30.00 Ry     beta=0.70
     Davidson diagonalization with overlap
     ethr =  1.98E-09,  avg # of iterations =  2.0

     total cpu time spent up to now is       19.5 secs

     total energy              =    -329.48883402 Ry
     Harris-Foulkes estimate   =    -329.48883396 Ry
     estimated scf accuracy    <       0.00000014 Ry

     iteration #  6     ecut=    30.00 Ry     beta=0.70
     Davidson diagonalization with overlap
     ethr =  2.54E-10,  avg # of iterations =  2.0

     total cpu time spent up to now is       19.7 secs

     total energy              =    -329.48883393 Ry
     Harris-Foulkes estimate   =    -329.48883405 Ry
     estimated scf accuracy    <       0.00000003 Ry

     iteration #  7     ecut=    30.00 Ry     beta=0.70
     Davidson diagonalization with overlap
     ethr =  4.78E-11,  avg # of iterations =  2.0

     total cpu time spent up to now is       19.9 secs

     total energy              =    -329.48883392 Ry
     Harris-Foulkes estimate   =    -329.48883393 Ry
     estimated scf accuracy    <          4.1E-09 Ry

     iteration #  8     ecut=    30.00 Ry     beta=0.70
     Davidson diagonalization with overlap
     ethr =  7.39E-12,  avg # of iterations =  3.0

     total cpu time spent up to now is       20.2 secs

     total energy              =    -329.48883391 Ry
     Harris-Foulkes estimate   =    -329.48883393 Ry
     estimated scf accuracy    <          1.1E-09 Ry

     iteration #  9     ecut=    30.00 Ry     beta=0.70
     Davidson diagonalization with overlap
     ethr =  1.97E-12,  avg # of iterations =  2.0

     total cpu time spent up to now is       20.4 secs

     End of self-consistent calculation

          k = 0.0000 0.0000 0.0000 ( 22119 PWs)   bands (ev):

    -8.4951  -7.8231  -7.6887  -7.3101  -6.9532  -6.8123  -6.7170  -6.5137
    -6.3406  -6.0603  -5.9966  -5.7699  -5.7264  -5.6863  -5.4440  -5.4068
    -5.3230  -5.2342  -5.2101  -5.1926  -5.1631  -5.1255  -5.0101  -4.9154
    -4.8375  -4.6965  -4.4422  -3.7650  -2.5453  -2.1466  -0.5689  -0.2047
     0.4962   0.9266

     the Fermi energy is    -3.7356 ev

!    total energy              =    -329.48883391 Ry
     Harris-Foulkes estimate   =    -329.48883391 Ry
     estimated scf accuracy    <          2.7E-10 Ry

     The total energy is the sum of the following terms:

     one-electron contribution =    -613.03556645 Ry
     hartree contribution      =     327.93201983 Ry
     xc contribution           =     -51.41634077 Ry
     ewald contribution        =       7.03470368 Ry
     smearing contrib. (-TS)   =      -0.00365021 Ry

     convergence has been achieved in   9 iterations

     Forces acting on atoms (Ry/au):

     atom    1 type  1   force =     0.00571107   -0.00260423   -0.00429897
     atom    2 type  1   force =    -0.00556252    0.00041676    0.00133711
     atom    3 type  1   force =    -0.00932341    0.00296370   -0.00229826
     atom    4 type  1   force =    -0.00083798    0.00278201    0.00900020
     atom    5 type  1   force =     0.01001283   -0.00355824   -0.00374008

     Total force =     0.020202     Total SCF correction =     0.000077

     number of scf cycles    =   8
     number of bfgs steps    =   7

     energy   old            =    -329.4882957917 Ry
     energy   new            =    -329.4888339142 Ry

     CASE: energy  _new < energy  _old

     new trust radius        =       0.0269246314 bohr
     new conv_thr            =       0.0000000005 Ry


ATOMIC_POSITIONS (bohr)
Au      -2.022867713   1.017627388  -0.531386955
Au      -0.755058071   2.270503429   4.274175304
Au       2.935807271   1.044056320   0.582569661
Au       4.129721512   3.254531234   5.518055789
Au       7.651973001   1.668209629   2.199765201



     Writing output data file pwscf.save
     Check: negative starting charge=   -0.006498
     NEW-OLD atomic charge density approx. for the potential
     Check: negative starting charge=   -0.006502

     negative rho (up, down):  2.033E-04 0.000E+00

     total cpu time spent up to now is       20.6 secs

     per-process dynamical memory:    50.7 Mb

     Self-consistent Calculation

     iteration #  1     ecut=    30.00 Ry     beta=0.70
     Davidson diagonalization with overlap
     ethr =  1.00E-06,  avg # of iterations =  4.0

     negative rho (up, down):  3.796E-06 0.000E+00

     total cpu time spent up to now is       21.0 secs

     total energy              =    -329.48940535 Ry
     Harris-Foulkes estimate   =    -329.48939588 Ry
     estimated scf accuracy    <       0.00014743 Ry

     iteration #  2     ecut=    30.00 Ry     beta=0.70
     Davidson diagonalization with overlap
     ethr =  2.68E-07,  avg # of iterations =  2.0

     negative rho (up, down):  5.998E-07 0.000E+00

     total cpu time spent up to now is       21.2 secs

     total energy              =    -329.48940019 Ry
     Harris-Foulkes estimate   =    -329.48950657 Ry
     estimated scf accuracy    <       0.00024371 Ry

     iteration #  3     ecut=    30.00 Ry     beta=0.70
     Davidson diagonalization with overlap
     ethr =  2.68E-07,  avg # of iterations =  2.0

     total cpu time spent up to now is       21.4 secs

     total energy              =    -329.48945313 Ry
     Harris-Foulkes estimate   =    -329.48947154 Ry
     estimated scf accuracy    <       0.00005718 Ry

     iteration #  4     ecut=    30.00 Ry     beta=0.70
     Davidson diagonalization with overlap
     ethr =  1.04E-07,  avg # of iterations =  2.0

     total cpu time spent up to now is       21.6 secs

     total energy              =    -329.48946362 Ry
     Harris-Foulkes estimate   =    -329.48946452 Ry
     estimated scf accuracy    <       0.00000269 Ry

     iteration #  5     ecut=    30.00 Ry     beta=0.70
     Davidson diagonalization with overlap
     ethr =  4.89E-09,  avg # of iterations =  2.0

     total cpu time spent up to now is       21.8 secs

     total energy              =    -329.48946403 Ry
     Harris-Foulkes estimate   =    -329.48946442 Ry
     estimated scf accuracy    <       0.00000037 Ry

     iteration #  6     ecut=    30.00 Ry     beta=0.70
     Davidson diagonalization with overlap
     ethr =  6.68E-10,  avg # of iterations =  2.0

     total cpu time spent up to now is       22.1 secs

     total energy              =    -329.48946403 Ry
     Harris-Foulkes estimate   =    -329.48946413 Ry
     estimated scf accuracy    <       0.00000006 Ry

     iteration #  7     ecut=    30.00 Ry     beta=0.70
     Davidson diagonalization with overlap
     ethr =  1.16E-10,  avg # of iterations =  2.0

     total cpu time spent up to now is       22.3 secs

     total energy              =    -329.48946403 Ry
     Harris-Foulkes estimate   =    -329.48946405 Ry
     estimated scf accuracy    <       0.00000001 Ry

     iteration #  8     ecut=    30.00 Ry     beta=0.70
     Davidson diagonalization with overlap
     ethr =  2.47E-11,  avg # of iterations =  2.0

     total cpu time spent up to now is       22.5 secs

     total energy              =    -329.48946402 Ry
     Harris-Foulkes estimate   =    -329.48946403 Ry
     estimated scf accuracy    <          4.1E-09 Ry

     iteration #  9     ecut=    30.00 Ry     beta=0.70
     Davidson diagonalization with overlap
     ethr =  7.52E-12,  avg # of iterations =  2.0

     total cpu time spent up to now is       22.7 secs

     total energy              =    -329.48946404 Ry
     Harris-Foulkes estimate   =    -329.48946402 Ry
     estimated scf accuracy    <          8.6E-10 Ry

     iteration # 10     ecut=    30.00 Ry     beta=0.70
     Davidson diagonalization with overlap
     ethr =  1.56E-12,  avg # of iterations =  2.0

     total cpu time spent up to now is       22.9 secs

     End of self-consistent calculation

          k = 0.0000 0.0000 0.0000 ( 22119 PWs)   bands (ev):

    -8.5074  -7.8160  -7.6816  -7.2899  -6.9400  -6.8165  -6.6925  -6.5083
    -6.3263  -6.0587  -5.9953  -5.7742  -5.7334  -5.6877  -5.4422  -5.4034
    -5.3206  -5.2356  -5.2088  -5.1925  -5.1665  -5.1261  -5.0026  -4.9236
    -4.8428  -4.6939  -4.4524  -3.7694  -2.5311  -2.1642  -0.5678  -0.2052
     0.5008   0.9265

     the Fermi energy is    -3.7393 ev

!    total energy              =    -329.48946405 Ry
     Harris-Foulkes estimate   =    -329.48946404 Ry
     estimated scf accuracy    <          1.7E-10 Ry

     The total energy is the sum of the following terms:

     one-electron contribution =    -612.57690271 Ry
     hartree contribution      =     327.70496689 Ry
     xc contribution           =     -51.41391646 Ry
     ewald contribution        =       6.80015671 Ry
     smearing contrib. (-TS)   =      -0.00376848 Ry

     convergence has been achieved in  10 iterations

     Forces acting on atoms (Ry/au):

     atom    1 type  1   force =     0.00291789   -0.00250278   -0.00389430
     atom    2 type  1   force =    -0.00481667    0.00068559    0.00149382
     atom    3 type  1   force =    -0.00456957    0.00301432   -0.00188603
     atom    4 type  1   force =     0.00019409    0.00098447    0.00577412
     atom    5 type  1   force =     0.00627426   -0.00218160   -0.00148761

     Total force =     0.013041     Total SCF correction =     0.000065

     number of scf cycles    =   9
     number of bfgs steps    =   8

     energy   old            =    -329.4888339142 Ry
     energy   new            =    -329.4894640487 Ry

     CASE: energy  _new < energy  _old

     new trust radius        =       0.0403869471 bohr
     new conv_thr            =       0.0000000006 Ry


ATOMIC_POSITIONS (bohr)
Au      -1.993958864   1.003229737  -0.555637555
Au      -0.771921656   2.271950004   4.278323400
Au       2.911725859   1.068958402   0.599152633
Au       4.130915486   3.260233023   5.543364967
Au       7.662815176   1.650556835   2.177975554



     Writing output data file pwscf.save
     Check: negative starting charge=   -0.006502
     NEW-OLD atomic charge density approx. for the potential
     Check: negative starting charge=   -0.006512

     negative rho (up, down):  4.700E-04 0.000E+00

     total cpu time spent up to now is       23.1 secs

     per-process dynamical memory:    50.7 Mb

     Self-consistent Calculation

     iteration #  1     ecut=    30.00 Ry     beta=0.70
     Davidson diagonalization with overlap
     ethr =  1.00E-06,  avg # of iterations =  5.0

     negative rho (up, down):  1.830E-05 0.000E+00

     total cpu time spent up to now is       23.5 secs

     total energy              =    -329.48977909 Ry
     Harris-Foulkes estimate   =    -329.48964850 Ry
     estimated scf accuracy    <       0.00032434 Ry

     iteration #  2     ecut=    30.00 Ry     beta=0.70
     Davidson diagonalization with overlap
     ethr =  5.90E-07,  avg # of iterations =  4.0

     negative rho (up, down):  4.087E-06 0.000E+00

     total cpu time spent up to now is       23.8 secs

     total energy              =    -329.48977817 Ry
     Harris-Foulkes estimate   =    -329.48999425 Ry
     estimated scf accuracy    <       0.00048754 Ry

     iteration #  3     ecut=    30.00 Ry     beta=0.70
     Davidson diagonalization with overlap
     ethr =  5.90E-07,  avg # of iterations =  2.0

     negative rho (up, down):  1.100E-07 0.000E+00

     total cpu time spent up to now is       24.0 secs

     total energy              =    -329.48988299 Ry
     Harris-Foulkes estimate   =    -329.48992575 Ry
     estimated scf accuracy    <       0.00012771 Ry

     iteration #  4     ecut=    30.00 Ry     beta=0.70
     Davidson diagonalization with overlap
     ethr =  2.32E-07,  avg # of iterations =  2.0

     total cpu time spent up to now is       24.2 secs

     total energy              =    -329.48990786 Ry
     Harris-Foulkes estimate   =    -329.48990890 Ry
     estimated scf accuracy    <       0.00000635 Ry

     iteration #  5     ecut=    30.00 Ry     beta=0.70
     Davidson diagonalization with overlap
     ethr =  1.15E-08,  avg # of iterations =  2.0

     total cpu time spent up to now is       24.4 secs

     total energy              =    -329.48990941 Ry
     Harris-Foulkes estimate   =    -329.48990967 Ry
     estimated scf accuracy    <       0.00000082 Ry

     iteration #  6     ecut=    30.00 Ry     beta=0.70
     Davidson diagonalization with overlap
     ethr =  1.49E-09,  avg # of iterations =  2.0

     total cpu time spent up to now is       24.6 secs

     total energy              =    -329.48990940 Ry
     Harris-Foulkes estimate   =    -329.48990963 Ry
     estimated scf accuracy    <       0.00000014 Ry

     iteration #  7     ecut=    30.00 Ry     beta=0.70
     Davidson diagonalization with overlap
     ethr =  2.61E-10,  avg # of iterations =  2.0

     total cpu time spent up to now is       24.8 secs

     total energy              =    -329.48990949 Ry
     Harris-Foulkes estimate   =    -329.48990945 Ry
     estimated scf accuracy    <       0.00000005 Ry

     iteration #  8     ecut=    30.00 Ry     beta=0.70
     Davidson diagonalization with overlap
     ethr =  8.29E-11,  avg # of iterations =  2.0

     total cpu time spent up to now is       25.0 secs

     total energy              =    -329.48990955 Ry
     Harris-Foulkes estimate   =    -329.48990950 Ry
     estimated scf accuracy    <       0.00000001 Ry

     iteration #  9     ecut=    30.00 Ry     beta=0.70
     Davidson diagonalization with overlap
     ethr =  1.98E-11,  avg # of iterations =  2.0

     total cpu time spent up to now is       25.3 secs

     total energy              =    -329.48990957 Ry
     Harris-Foulkes estimate   =    -329.48990955 Ry
     estimated scf accuracy    <          1.6E-09 Ry

     iteration # 10     ecut=    30.00 Ry     beta=0.70
     Davidson diagonalization with overlap
     ethr =  2.92E-12,  avg # of iterations =  2.0

     total cpu time spent up to now is       25.5 secs

     End of self-consistent calculation

          k = 0.0000 0.0000 0.0000 ( 22119 PWs)   bands (ev):

    -8.5226  -7.8019  -7.6676  -7.2544  -6.9164  -6.8224  -6.6533  -6.4974
    -6.3019  -6.0652  -5.9824  -5.7776  -5.7409  -5.6884  -5.4396  -5.3971
    -5.3174  -5.2409  -5.2068  -5.1897  -5.1710  -5.1255  -4.9924  -4.9360
    -4.8506  -4.6919  -4.4680  -3.7764  -2.5128  -2.1922  -0.5656  -0.2059
     0.5059   0.9252

     the Fermi energy is    -3.7455 ev

!    total energy              =    -329.48990955 Ry
     Harris-Foulkes estimate   =    -329.48990957 Ry
     estimated scf accuracy    <          3.8E-10 Ry

     The total energy is the sum of the following terms:

     one-electron contribution =    -611.57117260 Ry
     hartree contribution      =     327.20754902 Ry
     xc contribution           =     -51.40947936 Ry
     ewald contribution        =       6.28713678 Ry
     smearing contrib. (-TS)   =      -0.00394338 Ry

     convergence has been achieved in  10 iterations

     Forces acting on atoms (Ry/au):

     atom    1 type  1   force =    -0.00146215   -0.00233420   -0.00287908
     atom    2 type  1   force =    -0.00319275    0.00106812    0.00123711
     atom    3 type  1   force =     0.00233779    0.00290207   -0.00083374
     atom    4 type  1   force =     0.00100283   -0.00149001    0.00119421
     atom    5 type  1   force =     0.00131428   -0.00014598    0.00128150

     Total force =     0.007167     Total SCF correction =     0.000097

     number of scf cycles    =  10
     number of bfgs steps    =   9

     energy   old            =    -329.4894640487 Ry
     energy   new            =    -329.4899095547 Ry

     CASE: energy  _new < energy  _old

     new trust radius        =       0.0112102031 bohr
     new conv_thr            =       0.0000000003 Ry


ATOMIC_POSITIONS (bohr)
Au      -1.989338596   0.997461551  -0.564066660
Au      -0.779376897   2.273484165   4.280606942
Au       2.908497566   1.077448039   0.601245975
Au       4.132130336   3.259953603   5.550642124
Au       7.667663592   1.646580642   2.174750618



     Writing output data file pwscf.save
     Check: negative starting charge=   -0.006512
     NEW-OLD atomic charge density approx. for the potential
     Check: negative starting charge=   -0.006511

     negative rho (up, down):  1.440E-05 0.000E+00

     total cpu time spent up to now is       25.7 secs

     per-process dynamical memory:    50.7 Mb

     Self-consistent Calculation

     iteration #  1     ecut=    30.00 Ry     beta=0.70
     Davidson diagonalization with overlap
     ethr =  1.00E-06,  avg # of iterations =  4.0

     Threshold (ethr) on eigenvalues was too large:
     Diagonalizing with lowered threshold

     Davidson diagonalization with overlap
     ethr =  4.50E-08,  avg # of iterations =  1.0

     negative rho (up, down):  1.939E-08 0.000E+00

     total cpu time spent up to now is       26.1 secs

     total energy              =    -329.48996963 Ry
     Harris-Foulkes estimate   =    -329.48997492 Ry
     estimated scf accuracy    <       0.00002558 Ry

     iteration #  2     ecut=    30.00 Ry     beta=0.70
     Davidson diagonalization with overlap
     ethr =  4.65E-08,  avg # of iterations =  2.0

     total cpu time spent up to now is       26.4 secs

     total energy              =    -329.48997276 Ry
     Harris-Foulkes estimate   =    -329.48998356 Ry
     estimated scf accuracy    <       0.00002353 Ry

     iteration #  3     ecut=    30.00 Ry     beta=0.70
     Davidson diagonalization with overlap
     ethr =  4.28E-08,  avg # of iterations =  2.0

     total cpu time spent up to now is       26.6 secs

     total energy              =    -329.48997732 Ry
     Harris-Foulkes estimate   =    -329.48998027 Ry
     estimated scf accuracy    <       0.00000749 Ry

     iteration #  4     ecut=    30.00 Ry     beta=0.70
     Davidson diagonalization with overlap
     ethr =  1.36E-08,  avg # of iterations =  2.0

     total cpu time spent up to now is       26.8 secs

     total energy              =    -329.48997860 Ry
     Harris-Foulkes estimate   =    -329.48997933 Ry
     estimated scf accuracy    <       0.00000119 Ry

     iteration #  5     ecut=    30.00 Ry     beta=0.70
     Davidson diagonalization with overlap
     ethr =  2.16E-09,  avg # of iterations =  2.0

     total cpu time spent up to now is       27.0 secs

     total energy              =    -329.48997874 Ry
     Harris-Foulkes estimate   =    -329.48997886 Ry
     estimated scf accuracy    <       0.00000013 Ry

     iteration #  6     ecut=    30.00 Ry     beta=0.70
     Davidson diagonalization with overlap
     ethr =  2.33E-10,  avg # of iterations =  2.0

     total cpu time spent up to now is       27.2 secs

     total energy              =    -329.48997880 Ry
     Harris-Foulkes estimate   =    -329.48997877 Ry
     estimated scf accuracy    <          9.6E-09 Ry

     iteration #  7     ecut=    30.00 Ry     beta=0.70
     Davidson diagonalization with overlap
     ethr =  1.75E-11,  avg # of iterations =  3.0

     total cpu time spent up to now is       27.4 secs

     total energy              =    -329.48997879 Ry
     Harris-Foulkes estimate   =    -329.48997881 Ry
     estimated scf accuracy    <          3.2E-09 Ry

     iteration #  8     ecut=    30.00 Ry     beta=0.70
     Davidson diagonalization with overlap
     ethr =  5.81E-12,  avg # of iterations =  2.0

     total cpu time spent up to now is       27.7 secs

     total energy              =    -329.48997883 Ry
     Harris-Foulkes estimate   =    -329.48997879 Ry
     estimated scf accuracy    <          4.1E-10 Ry

     iteration #  9     ecut=    30.00 Ry     beta=0.70
     Davidson diagonalization with overlap
     ethr =  7.48E-13,  avg # of iterations =  3.0

     total cpu time spent up to now is       27.9 secs

     End of self-consistent calculation

          k = 0.0000 0.0000 0.0000 ( 22119 PWs)   bands (ev):

    -8.5194  -7.7929  -7.6583  -7.2409  -6.9064  -6.8192  -6.6416  -6.4912
    -6.2932  -6.0660  -5.9770  -5.7763  -5.7405  -5.6872  -5.4389  -5.3948
    -5.3167  -5.2423  -5.2069  -5.1888  -5.1713  -5.1258  -4.9911  -4.9396
    -4.8533  -4.6938  -4.4730  -3.7789  -2.5109  -2.2016  -0.5644  -0.2062
     0.5057   0.9236

     the Fermi energy is    -3.7477 ev

!    total energy              =    -329.48997881 Ry
     Harris-Foulkes estimate   =    -329.48997883 Ry
     estimated scf accuracy    <          6.9E-11 Ry

     The total energy is the sum of the following terms:

     one-electron contribution =    -610.95751866 Ry
     hartree contribution      =     326.90416192 Ry
     xc contribution           =     -51.40697274 Ry
     ewald contribution        =       5.97435321 Ry
     smearing contrib. (-TS)   =      -0.00400255 Ry

     convergence has been achieved in   9 iterations

     Forces acting on atoms (Ry/au):

     atom    1 type  1   force =    -0.00181195   -0.00215250   -0.00201330
     atom    2 type  1   force =    -0.00238237    0.00102841    0.00062420
     atom    3 type  1   force =     0.00332047    0.00285545   -0.00032851
     atom    4 type  1   force =     0.00081292   -0.00207669   -0.00005991
     atom    5 type  1   force =     0.00006094    0.00034533    0.00177752

     Total force =     0.006829     Total SCF correction =     0.000033

     number of scf cycles    =  11
     number of bfgs steps    =  10

     energy   old            =    -329.4899095547 Ry
     energy   new            =    -329.4899788139 Ry

     CASE: energy  _new < energy  _old

     new trust radius        =       0.0123312234 bohr
     new conv_thr            =            1.0E-10 Ry


ATOMIC_POSITIONS (bohr)
Au      -1.987328668   0.989861936  -0.573567455
Au      -0.788672186   2.276049074   4.283137826
Au       2.909247461   1.088210855   0.602517933
Au       4.133819291   3.257292486   5.557129717
Au       7.672510102   1.643513649   2.173960978



     Writing output data file pwscf.save
     Check: negative starting charge=   -0.006511
     NEW-OLD atomic charge density approx. for the potential
     Check: negative starting charge=   -0.006506

     negative rho (up, down):  2.039E-05 0.000E+00

     total cpu time spent up to now is       28.1 secs

     per-process dynamical memory:    50.7 Mb

     Self-consistent Calculation

     iteration #  1     ecut=    30.00 Ry     beta=0.70
     Davidson diagonalization with overlap
     ethr =  1.00E-06,  avg # of iterations =  4.0

     Threshold (ethr) on eigenvalues was too large:
     Diagonalizing with lowered threshold

     Davidson diagonalization with overlap
     ethr =  5.92E-08,  avg # of iterations =  1.0

     negative rho (up, down):  3.941E-08 0.000E+00

     total cpu time spent up to now is       28.6 secs

     total energy              =    -329.49004503 Ry
     Harris-Foulkes estimate   =    -329.49005286 Ry
     estimated scf accuracy    <       0.00003293 Ry

     iteration #  2     ecut=    30.00 Ry     beta=0.70
     Davidson diagonalization with overlap
     ethr =  5.99E-08,  avg # of iterations =  3.0

     total cpu time spent up to now is       28.8 secs

     total energy              =    -329.49005154 Ry
     Harris-Foulkes estimate   =    -329.49006143 Ry
     estimated scf accuracy    <       0.00002109 Ry

     iteration #  3     ecut=    30.00 Ry     beta=0.70
     Davidson diagonalization with overlap
     ethr =  3.83E-08,  avg # of iterations =  2.0

     total cpu time spent up to now is       29.0 secs

     total energy              =    -329.49005598 Ry
     Harris-Foulkes estimate   =    -329.49005678 Ry
     estimated scf accuracy    <       0.00000179 Ry

     iteration #  4     ecut=    30.00 Ry     beta=0.70
     Davidson diagonalization with overlap
     ethr =  3.25E-09,  avg # of iterations =  3.0

     total cpu time spent up to now is       29.3 secs

     total energy              =    -329.49005604 Ry
     Harris-Foulkes estimate   =    -329.49005705 Ry
     estimated scf accuracy    <       0.00000208 Ry

     iteration #  5     ecut=    30.00 Ry     beta=0.70
     Davidson diagonalization with overlap
     ethr =  3.25E-09,  avg # of iterations =  2.0

     total cpu time spent up to now is       29.5 secs

     total energy              =    -329.49005640 Ry
     Harris-Foulkes estimate   =    -329.49005645 Ry
     estimated scf accuracy    <       0.00000013 Ry

     iteration #  6     ecut=    30.00 Ry     beta=0.70
     Davidson diagonalization with overlap
     ethr =  2.32E-10,  avg # of iterations =  2.0

     total cpu time spent up to now is       29.7 secs

     total energy              =    -329.49005644 Ry
     Harris-Foulkes estimate   =    -329.49005644 Ry
     estimated scf accuracy    <       0.00000002 Ry

     iteration #  7     ecut=    30.00 Ry     beta=0.70
     Davidson diagonalization with overlap
     ethr =  3.19E-11,  avg # of iterations =  2.0

     total cpu time spent up to now is       29.9 secs

     total energy              =    -329.49005640 Ry
     Harris-Foulkes estimate   =    -329.49005644 Ry
     estimated scf accuracy    <          3.7E-09 Ry

     iteration #  8     ecut=    30.00 Ry     beta=0.70
     Davidson diagonalization with overlap
     ethr =  6.66E-12,  avg # of iterations =  3.0

     total cpu time spent up to now is       30.1 secs

     total energy              =    -329.49005643 Ry
     Harris-Foulkes estimate   =    -329.49005640 Ry
     estimated scf accuracy    <          5.8E-10 Ry

     iteration #  9     ecut=    30.00 Ry     beta=0.70
     Davidson diagonalization with overlap
     ethr =  1.06E-12,  avg # of iterations =  3.0

     total cpu time spent up to now is       30.4 secs

     End of self-consistent calculation

          k = 0.0000 0.0000 0.0000 ( 22119 PWs)   bands (ev):

    -8.5124  -7.7825  -7.6470  -7.2270  -6.8946  -6.8136  -6.6312  -6.4843
    -6.2846  -6.0663  -5.9717  -5.7740  -5.7384  -5.6857  -5.4390  -5.3919
    -5.3161  -5.2436  -5.2076  -5.1882  -5.1707  -5.1265  -4.9911  -4.9429
    -4.8557  -4.6975  -4.4780  -3.7813  -2.5108  -2.2111  -0.5631  -0.2063
     0.5044   0.9211

     the Fermi energy is    -3.7498 ev

!    total energy              =    -329.49005643 Ry
     Harris-Foulkes estimate   =    -329.49005643 Ry
     estimated scf accuracy    <          9.8E-11 Ry

     The total energy is the sum of the following terms:

     one-electron contribution =    -610.23159378 Ry
     hartree contribution      =     326.54523650 Ry
     xc contribution           =     -51.40397980 Ry
     ewald contribution        =       5.60436131 Ry
     smearing contrib. (-TS)   =      -0.00408067 Ry

     convergence has been achieved in   9 iterations

     Forces acting on atoms (Ry/au):

     atom    1 type  1   force =    -0.00124081   -0.00190804   -0.00068819
     atom    2 type  1   force =    -0.00141798    0.00089174   -0.00032670
     atom    3 type  1   force =     0.00301650    0.00266658   -0.00001155
     atom    4 type  1   force =     0.00031136   -0.00241580   -0.00106188
     atom    5 type  1   force =    -0.00066906    0.00076551    0.00208832

     Total force =     0.006102     Total SCF correction =     0.000039

     number of scf cycles    =  12
     number of bfgs steps    =  11

     energy   old            =    -329.4899788139 Ry
     energy   new            =    -329.4900564257 Ry

     CASE: energy  _new < energy  _old

     new trust radius        =       0.0184968351 bohr
     new conv_thr            =            1.0E-10 Ry


ATOMIC_POSITIONS (bohr)
Au      -1.987215598   0.977130660  -0.586180345
Au      -0.802910333   2.280870210   4.285665270
Au       2.914899931   1.105816659   0.602985017
Au       4.136060336   3.249915109   5.563812268
Au       7.678741664   1.641195361   2.176896790



     Writing output data file pwscf.save
     Check: negative starting charge=   -0.006506
     NEW-OLD atomic charge density approx. for the potential
     Check: negative starting charge=   -0.006499

     negative rho (up, down):  8.071E-05 0.000E+00

     total cpu time spent up to now is       30.6 secs

     per-process dynamical memory:    50.7 Mb

     Self-consistent Calculation

     iteration #  1     ecut=    30.00 Ry     beta=0.70
     Davidson diagonalization with overlap
     ethr =  1.00E-06,  avg # of iterations =  4.0

     negative rho (up, down):  4.590E-07 0.000E+00

     total cpu time spent up to now is       31.0 secs

     total energy              =    -329.49011821 Ry
     Harris-Foulkes estimate   =    -329.49013736 Ry
     estimated scf accuracy    <       0.00008368 Ry

     iteration #  2     ecut=    30.00 Ry     beta=0.70
     Davidson diagonalization with overlap
     ethr =  1.52E-07,  avg # of iterations =  2.0

     negative rho (up, down):  2.295E-08 0.000E+00

     total cpu time spent up to now is       31.2 secs

     total energy              =    -329.49013434 Ry
     Harris-Foulkes estimate   =    -329.49016277 Ry
     estimated scf accuracy    <       0.00006043 Ry

     iteration #  3     ecut=    30.00 Ry     beta=0.70
     Davidson diagonalization with overlap
     ethr =  1.10E-07,  avg # of iterations =  2.0

     total cpu time spent up to now is       31.4 secs

     total energy              =    -329.49014656 Ry
     Harris-Foulkes estimate   =    -329.49015006 Ry
     estimated scf accuracy    <       0.00000812 Ry

     iteration #  4     ecut=    30.00 Ry     beta=0.70
     Davidson diagonalization with overlap
     ethr =  1.48E-08,  avg # of iterations =  2.0

     total cpu time spent up to now is       31.6 secs

     total energy              =    -329.49014872 Ry
     Harris-Foulkes estimate   =    -329.49015081 Ry
     estimated scf accuracy    <       0.00000717 Ry

     iteration #  5     ecut=    30.00 Ry     beta=0.70
     Davidson diagonalization with overlap
     ethr =  1.30E-08,  avg # of iterations =  2.0

     total cpu time spent up to now is       31.8 secs

     total energy              =    -329.49014974 Ry
     Harris-Foulkes estimate   =    -329.49014998 Ry
     estimated scf accuracy    <       0.00000032 Ry

     iteration #  6     ecut=    30.00 Ry     beta=0.70
     Davidson diagonalization with overlap
     ethr =  5.74E-10,  avg # of iterations =  3.0

     total cpu time spent up to now is       32.0 secs

     total energy              =    -329.49014983 Ry
     Harris-Foulkes estimate   =    -329.49014985 Ry
     estimated scf accuracy    <       0.00000004 Ry

     iteration #  7     ecut=    30.00 Ry     beta=0.70
     Davidson diagonalization with overlap
     ethr =  7.94E-11,  avg # of iterations =  3.0

     total cpu time spent up to now is       32.3 secs

     total energy              =    -329.49014980 Ry
     Harris-Foulkes estimate   =    -329.49014984 Ry
     estimated scf accuracy    <          8.9E-09 Ry

     iteration #  8     ecut=    30.00 Ry     beta=0.70
     Davidson diagonalization with overlap
     ethr =  1.61E-11,  avg # of iterations =  3.0

     total cpu time spent up to now is       32.5 secs

     total energy              =    -329.49014983 Ry
     Harris-Foulkes estimate   =    -329.49014981 Ry
     estimated scf accuracy    <          1.3E-09 Ry

     iteration #  9     ecut=    30.00 Ry     beta=0.70
[...]
     atom    5 type  1   force =     0.00013967    0.00000354   -0.00003161

     Total force =     0.002986     Total SCF correction =     0.000025

     number of scf cycles    =  31
     number of bfgs steps    =  30

     energy   old            =    -329.4910193567 Ry
     energy   new            =    -329.4910323536 Ry

     CASE: energy  _new < energy  _old

     new trust radius        =       0.0041368992 bohr
     new conv_thr            =            1.0E-10 Ry


ATOMIC_POSITIONS (bohr)
Au      -1.918117234   0.796004490  -0.616376783
Au      -0.875474692   2.442367691   4.178411880
Au       2.969627079   1.238328374   0.578910900
Au       4.059676820   3.056643600   5.638494396
Au       7.703864027   1.721583846   2.263738607



     Writing output data file pwscf.save
     Check: negative starting charge=   -0.006527
     NEW-OLD atomic charge density approx. for the potential
     Check: negative starting charge=   -0.006532

     negative rho (up, down):  6.205E-08 0.000E+00

     total cpu time spent up to now is       80.4 secs

     per-process dynamical memory:    50.7 Mb

     Self-consistent Calculation

     iteration #  1     ecut=    30.00 Ry     beta=0.70
     Davidson diagonalization with overlap
     ethr =  1.00E-06,  avg # of iterations =  3.0

     Threshold (ethr) on eigenvalues was too large:
     Diagonalizing with lowered threshold

     Davidson diagonalization with overlap
     ethr =  5.69E-09,  avg # of iterations =  2.0

     total cpu time spent up to now is       80.8 secs

     total energy              =    -329.49104544 Ry
     Harris-Foulkes estimate   =    -329.49104499 Ry
     estimated scf accuracy    <       0.00000329 Ry

     iteration #  2     ecut=    30.00 Ry     beta=0.70
     Davidson diagonalization with overlap
     ethr =  5.99E-09,  avg # of iterations =  3.0

     total cpu time spent up to now is       81.1 secs

     total energy              =    -329.49104536 Ry
     Harris-Foulkes estimate   =    -329.49104806 Ry
     estimated scf accuracy    <       0.00000681 Ry

     iteration #  3     ecut=    30.00 Ry     beta=0.70
     Davidson diagonalization with overlap
     ethr =  5.99E-09,  avg # of iterations =  2.0

     total cpu time spent up to now is       81.3 secs

     total energy              =    -329.49104691 Ry
     Harris-Foulkes estimate   =    -329.49104707 Ry
     estimated scf accuracy    <       0.00000095 Ry

     iteration #  4     ecut=    30.00 Ry     beta=0.70
     Davidson diagonalization with overlap
     ethr =  1.73E-09,  avg # of iterations =  2.0

     total cpu time spent up to now is       81.5 secs

     total energy              =    -329.49104711 Ry
     Harris-Foulkes estimate   =    -329.49104715 Ry
     estimated scf accuracy    <       0.00000012 Ry

     iteration #  5     ecut=    30.00 Ry     beta=0.70
     Davidson diagonalization with overlap
     ethr =  2.25E-10,  avg # of iterations =  2.0

     total cpu time spent up to now is       81.7 secs

     total energy              =    -329.49104719 Ry
     Harris-Foulkes estimate   =    -329.49104715 Ry
     estimated scf accuracy    <       0.00000001 Ry

     iteration #  6     ecut=    30.00 Ry     beta=0.70
     Davidson diagonalization with overlap
     ethr =  2.48E-11,  avg # of iterations =  2.0

     total cpu time spent up to now is       81.9 secs

     total energy              =    -329.49104716 Ry
     Harris-Foulkes estimate   =    -329.49104720 Ry
     estimated scf accuracy    <          1.1E-09 Ry

     iteration #  7     ecut=    30.00 Ry     beta=0.70
     Davidson diagonalization with overlap
     ethr =  2.08E-12,  avg # of iterations =  3.0

     total cpu time spent up to now is       82.2 secs

     total energy              =    -329.49104717 Ry
     Harris-Foulkes estimate   =    -329.49104716 Ry
     estimated scf accuracy    <          5.2E-10 Ry

     iteration #  8     ecut=    30.00 Ry     beta=0.70
     Davidson diagonalization with overlap
     ethr =  9.51E-13,  avg # of iterations =  2.0

     total cpu time spent up to now is       82.4 secs

     End of self-consistent calculation

          k = 0.0000 0.0000 0.0000 ( 22119 PWs)   bands (ev):

    -8.5080  -7.7807  -7.6447  -7.2294  -6.8591  -6.8131  -6.6200  -6.4779
    -6.3023  -6.0729  -5.9642  -5.7744  -5.7372  -5.6849  -5.4584  -5.3661
    -5.3172  -5.2436  -5.2029  -5.1889  -5.1717  -5.1264  -5.0014  -4.9238
    -4.8475  -4.7386  -4.4748  -3.7853  -2.5178  -2.1990  -0.5764  -0.2033
     0.5010   0.9294

     the Fermi energy is    -3.7540 ev

!    total energy              =    -329.49104717 Ry
     Harris-Foulkes estimate   =    -329.49104717 Ry
     estimated scf accuracy    <          7.3E-11 Ry

     The total energy is the sum of the following terms:

     one-electron contribution =    -609.66620805 Ry
     hartree contribution      =     326.26343099 Ry
     xc contribution           =     -51.40206431 Ry
     ewald contribution        =       5.31786483 Ry
     smearing contrib. (-TS)   =      -0.00407063 Ry

     convergence has been achieved in   8 iterations

     Forces acting on atoms (Ry/au):

     atom    1 type  1   force =    -0.00052137    0.00015276    0.00051790
     atom    2 type  1   force =     0.00010255    0.00042125   -0.00065068
     atom    3 type  1   force =     0.00078753   -0.00054318    0.00130282
     atom    4 type  1   force =    -0.00045831   -0.00003489   -0.00109684
     atom    5 type  1   force =     0.00008961    0.00000405   -0.00007319

     Total force =     0.002284     Total SCF correction =     0.000029

     number of scf cycles    =  32
     number of bfgs steps    =  31

     energy   old            =    -329.4910323536 Ry
     energy   new            =    -329.4910471691 Ry

     CASE: energy  _new < energy  _old

     new trust radius        =       0.0062053488 bohr
     new conv_thr            =            1.0E-10 Ry


ATOMIC_POSITIONS (bohr)
Au      -1.918060726   0.796615170  -0.613228181
Au      -0.874336295   2.445493751   4.173173736
Au       2.969587418   1.235626877   0.583882654
Au       4.057192873   3.054662136   5.635513182
Au       7.705192728   1.722530066   2.263837609



     Writing output data file pwscf.save
     Check: negative starting charge=   -0.006532
     NEW-OLD atomic charge density approx. for the potential
     Check: negative starting charge=   -0.006538

     negative rho (up, down):  6.998E-07 0.000E+00

     total cpu time spent up to now is       82.6 secs

     per-process dynamical memory:    50.7 Mb

     Self-consistent Calculation

     iteration #  1     ecut=    30.00 Ry     beta=0.70
     Davidson diagonalization with overlap
     ethr =  1.00E-06,  avg # of iterations =  3.0

     Threshold (ethr) on eigenvalues was too large:
     Diagonalizing with lowered threshold

     Davidson diagonalization with overlap
     ethr =  1.30E-08,  avg # of iterations =  1.0

     total cpu time spent up to now is       83.0 secs

     total energy              =    -329.49105650 Ry
     Harris-Foulkes estimate   =    -329.49105746 Ry
     estimated scf accuracy    <       0.00000751 Ry

     iteration #  2     ecut=    30.00 Ry     beta=0.70
     Davidson diagonalization with overlap
     ethr =  1.37E-08,  avg # of iterations =  2.0

     total cpu time spent up to now is       83.3 secs

     total energy              =    -329.49105666 Ry
     Harris-Foulkes estimate   =    -329.49106149 Ry
     estimated scf accuracy    <       0.00001073 Ry

     iteration #  3     ecut=    30.00 Ry     beta=0.70
     Davidson diagonalization with overlap
     ethr =  1.37E-08,  avg # of iterations =  2.0

     total cpu time spent up to now is       83.5 secs

     total energy              =    -329.49105926 Ry
     Harris-Foulkes estimate   =    -329.49105971 Ry
     estimated scf accuracy    <       0.00000235 Ry

     iteration #  4     ecut=    30.00 Ry     beta=0.70
     Davidson diagonalization with overlap
     ethr =  4.28E-09,  avg # of iterations =  2.0

     total cpu time spent up to now is       83.7 secs

     total energy              =    -329.49105991 Ry
     Harris-Foulkes estimate   =    -329.49105987 Ry
     estimated scf accuracy    <       0.00000033 Ry

     iteration #  5     ecut=    30.00 Ry     beta=0.70
     Davidson diagonalization with overlap
     ethr =  6.06E-10,  avg # of iterations =  2.0

     total cpu time spent up to now is       83.9 secs

     total energy              =    -329.49105999 Ry
     Harris-Foulkes estimate   =    -329.49105999 Ry
     estimated scf accuracy    <       0.00000003 Ry

     iteration #  6     ecut=    30.00 Ry     beta=0.70
     Davidson diagonalization with overlap
     ethr =  5.57E-11,  avg # of iterations =  2.0

     total cpu time spent up to now is       84.1 secs

     total energy              =    -329.49105997 Ry
     Harris-Foulkes estimate   =    -329.49106000 Ry
     estimated scf accuracy    <          2.6E-09 Ry

     iteration #  7     ecut=    30.00 Ry     beta=0.70
     Davidson diagonalization with overlap
     ethr =  4.73E-12,  avg # of iterations =  2.0

     total cpu time spent up to now is       84.4 secs

     total energy              =    -329.49106002 Ry
     Harris-Foulkes estimate   =    -329.49105997 Ry
     estimated scf accuracy    <          1.4E-09 Ry

     iteration #  8     ecut=    30.00 Ry     beta=0.70
     Davidson diagonalization with overlap
     ethr =  2.58E-12,  avg # of iterations =  2.0

     total cpu time spent up to now is       84.6 secs

     total energy              =    -329.49106001 Ry
     Harris-Foulkes estimate   =    -329.49106002 Ry
     estimated scf accuracy    <          1.8E-10 Ry

     iteration #  9     ecut=    30.00 Ry     beta=0.70
     Davidson diagonalization with overlap
     ethr =  3.29E-13,  avg # of iterations =  2.0

     total cpu time spent up to now is       84.8 secs

     End of self-consistent calculation

          k = 0.0000 0.0000 0.0000 ( 22119 PWs)   bands (ev):

    -8.5139  -7.7880  -7.6528  -7.2373  -6.8614  -6.8163  -6.6237  -6.4834
    -6.3071  -6.0746  -5.9655  -5.7754  -5.7378  -5.6868  -5.4617  -5.3659
    -5.3171  -5.2445  -5.2024  -5.1887  -5.1725  -5.1253  -5.0024  -4.9224
    -4.8446  -4.7383  -4.4739  -3.7834  -2.5181  -2.1947  -0.5777  -0.2017
     0.5025   0.9305

     the Fermi energy is    -3.7519 ev

!    total energy              =    -329.49105999 Ry
     Harris-Foulkes estimate   =    -329.49106001 Ry
     estimated scf accuracy    <          5.2E-11 Ry

     The total energy is the sum of the following terms:

     one-electron contribution =    -610.07190125 Ry
     hartree contribution      =     326.46346637 Ry
     xc contribution           =     -51.40345735 Ry
     ewald contribution        =       5.52493547 Ry
     smearing contrib. (-TS)   =      -0.00410323 Ry

     convergence has been achieved in   9 iterations

     Forces acting on atoms (Ry/au):

     atom    1 type  1   force =    -0.00064276   -0.00009511   -0.00010377
     atom    2 type  1   force =    -0.00045999    0.00055940    0.00013537
     atom    3 type  1   force =     0.00109664   -0.00072736    0.00069599
     atom    4 type  1   force =    -0.00020088    0.00026544   -0.00063410
     atom    5 type  1   force =     0.00020699   -0.00000237   -0.00009350

     Total force =     0.001938     Total SCF correction =     0.000026

     number of scf cycles    =  33
     number of bfgs steps    =  32

     energy   old            =    -329.4910471691 Ry
     energy   new            =    -329.4910599949 Ry

     CASE: energy  _new < energy  _old

     new trust radius        =       0.0066169627 bohr
     new conv_thr            =            1.0E-10 Ry


ATOMIC_POSITIONS (bohr)
Au      -1.918402333   0.796385224  -0.611465736
Au      -0.874240755   2.450292321   4.168618651
Au       2.970850067   1.231993122   0.588321351
Au       4.055013757   3.052245564   5.633702186
Au       7.706355263   1.724011769   2.264002548



     Writing output data file pwscf.save
     Check: negative starting charge=   -0.006538
     NEW-OLD atomic charge density approx. for the potential
     Check: negative starting charge=   -0.006543

     negative rho (up, down):  6.814E-07 0.000E+00

     total cpu time spent up to now is       85.0 secs

     per-process dynamical memory:    50.7 Mb

     Self-consistent Calculation

     iteration #  1     ecut=    30.00 Ry     beta=0.70
     Davidson diagonalization with overlap
     ethr =  1.00E-06,  avg # of iterations =  3.0

     Threshold (ethr) on eigenvalues was too large:
     Diagonalizing with lowered threshold

     Davidson diagonalization with overlap
     ethr =  1.47E-08,  avg # of iterations =  1.0

     total cpu time spent up to now is       85.4 secs

     total energy              =    -329.49106347 Ry
     Harris-Foulkes estimate   =    -329.49106596 Ry
     estimated scf accuracy    <       0.00000857 Ry

     iteration #  2     ecut=    30.00 Ry     beta=0.70
     Davidson diagonalization with overlap
     ethr =  1.56E-08,  avg # of iterations =  2.0

     total cpu time spent up to now is       85.6 secs

     total energy              =    -329.49106487 Ry
     Harris-Foulkes estimate   =    -329.49106846 Ry
     estimated scf accuracy    <       0.00000793 Ry

     iteration #  3     ecut=    30.00 Ry     beta=0.70
     Davidson diagonalization with overlap
     ethr =  1.44E-08,  avg # of iterations =  2.0

     total cpu time spent up to now is       85.9 secs

     total energy              =    -329.49106652 Ry
     Harris-Foulkes estimate   =    -329.49106704 Ry
     estimated scf accuracy    <       0.00000153 Ry

     iteration #  4     ecut=    30.00 Ry     beta=0.70
     Davidson diagonalization with overlap
     ethr =  2.77E-09,  avg # of iterations =  2.0

     total cpu time spent up to now is       86.1 secs

     total energy              =    -329.49106698 Ry
     Harris-Foulkes estimate   =    -329.49106707 Ry
     estimated scf accuracy    <       0.00000058 Ry

     iteration #  5     ecut=    30.00 Ry     beta=0.70
     Davidson diagonalization with overlap
     ethr =  1.05E-09,  avg # of iterations =  2.0

     total cpu time spent up to now is       86.2 secs

     total energy              =    -329.49106705 Ry
     Harris-Foulkes estimate   =    -329.49106708 Ry
     estimated scf accuracy    <       0.00000002 Ry

     iteration #  6     ecut=    30.00 Ry     beta=0.70
     Davidson diagonalization with overlap
     ethr =  3.76E-11,  avg # of iterations =  3.0

     total cpu time spent up to now is       86.5 secs

     total energy              =    -329.49106701 Ry
     Harris-Foulkes estimate   =    -329.49106706 Ry
     estimated scf accuracy    <          2.8E-09 Ry

     iteration #  7     ecut=    30.00 Ry     beta=0.70
     Davidson diagonalization with overlap
     ethr =  5.16E-12,  avg # of iterations =  3.0

     total cpu time spent up to now is       86.7 secs

     total energy              =    -329.49106702 Ry
     Harris-Foulkes estimate   =    -329.49106701 Ry
     estimated scf accuracy    <          1.7E-09 Ry

     iteration #  8     ecut=    30.00 Ry     beta=0.70
     Davidson diagonalization with overlap
     ethr =  3.13E-12,  avg # of iterations =  2.0

     total cpu time spent up to now is       86.9 secs

     total energy              =    -329.49106701 Ry
     Harris-Foulkes estimate   =    -329.49106702 Ry
     estimated scf accuracy    <          1.9E-10 Ry

     iteration #  9     ecut=    30.00 Ry     beta=0.70
     Davidson diagonalization with overlap
     ethr =  3.44E-13,  avg # of iterations =  2.0

     total cpu time spent up to now is       87.1 secs

     End of self-consistent calculation

          k = 0.0000 0.0000 0.0000 ( 22119 PWs)   bands (ev):

    -8.5173  -7.7924  -7.6579  -7.2425  -6.8625  -6.8181  -6.6258  -6.4869
    -6.3104  -6.0755  -5.9661  -5.7758  -5.7379  -5.6879  -5.4641  -5.3657
    -5.3170  -5.2451  -5.2020  -5.1887  -5.1728  -5.1245  -5.0033  -4.9214
    -4.8424  -4.7386  -4.4734  -3.7822  -2.5185  -2.1919  -0.5785  -0.2005
     0.5036   0.9317

     the Fermi energy is    -3.7507 ev

!    total energy              =    -329.49106699 Ry
     Harris-Foulkes estimate   =    -329.49106701 Ry
     estimated scf accuracy    <          2.0E-11 Ry

     The total energy is the sum of the following terms:

     one-electron contribution =    -610.31501676 Ry
     hartree contribution      =     326.58329549 Ry
     xc contribution           =     -51.40427425 Ry
     ewald contribution        =       5.64905379 Ry
     smearing contrib. (-TS)   =      -0.00412526 Ry

     convergence has been achieved in   9 iterations

     Forces acting on atoms (Ry/au):

     atom    1 type  1   force =    -0.00049077   -0.00021264   -0.00038920
     atom    2 type  1   force =    -0.00086084    0.00062218    0.00058265
     atom    3 type  1   force =     0.00096196   -0.00091259    0.00017611
     atom    4 type  1   force =    -0.00003785    0.00052304   -0.00030028
     atom    5 type  1   force =     0.00042750   -0.00001998   -0.00006928

     Total force =     0.002061     Total SCF correction =     0.000019

     bfgs converged in  34 scf cycles and  33 bfgs steps
     (criteria: energy <  1.0E-04, force <  1.0E-03)

     End of BFGS Geometry Optimization

     Final energy   =    -329.4910669945 Ry
Begin final coordinates

ATOMIC_POSITIONS (bohr)
Au      -1.918402333   0.796385224  -0.611465736
Au      -0.874240755   2.450292321   4.168618651
Au       2.970850067   1.231993122   0.588321351
Au       4.055013757   3.052245564   5.633702186
Au       7.706355263   1.724011769   2.264002548
End final coordinates



     Writing output data file pwscf.save
 
     init_run     :      0.16s CPU      0.19s WALL (       1 calls)
     electrons    :     74.57s CPU     80.78s WALL (      34 calls)
     update_pot   :      2.18s CPU      2.76s WALL (      33 calls)
     forces       :      1.40s CPU      1.43s WALL (      34 calls)

     Called by init_run:
     wfcinit      :      0.07s CPU      0.09s WALL (       1 calls)
     potinit      :      0.03s CPU      0.04s WALL (       1 calls)

     Called by electrons:
     c_bands      :     56.94s CPU     57.65s WALL (     341 calls)
     sum_band     :      8.09s CPU      8.29s WALL (     341 calls)
     v_of_rho     :      6.40s CPU      6.49s WALL (     360 calls)
     mix_rho      :      2.41s CPU      5.15s WALL (     341 calls)

     Called by c_bands:
     init_us_2    :      1.05s CPU      1.11s WALL (     683 calls)
     cegterg      :     50.76s CPU     51.14s WALL (     341 calls)

     Called by sum_band:

     Called by *egterg:
     h_psi        :     39.68s CPU     39.95s WALL (    1196 calls)
     g_psi        :      0.40s CPU      0.40s WALL (     854 calls)
     cdiaghg      :      2.74s CPU      2.76s WALL (    1147 calls)

     Called by h_psi:
     h_psi:pot    :     39.11s CPU     39.38s WALL (    1196 calls)
     h_psi:calbec :      2.19s CPU      2.19s WALL (    1196 calls)
     vloc_psi     :     34.51s CPU     34.78s WALL (    1196 calls)
     add_vuspsi   :      2.40s CPU      2.40s WALL (    1196 calls)

     General routines
     calbec       :      2.59s CPU      2.61s WALL (    1332 calls)
     fft          :      3.56s CPU      3.65s WALL (    4057 calls)
     fftw         :     36.28s CPU     36.84s WALL (   76362 calls)
     davcio       :      0.41s CPU      2.64s WALL (    3369 calls)
 
     Parallel routines
     fft_scatter  :      9.37s CPU      9.06s WALL (   80419 calls)
 
     PWSCF        :  1m19.23s CPU     1m27.33s WALL

 
   This run was terminated on:  21:44:13   3Aug2017            

=------------------------------------------------------------------------------=
   JOB DONE.
=------------------------------------------------------------------------------=
