
     Program PWSCF v.6.0 (svn rev. 13079) starts on  3Aug2017 at 19:10:22 

     This program is part of the open-source Quantum ESPRESSO suite
     for quantum simulation of materials; please cite
         "P. Giannozzi et al., J. Phys.:Condens. Matter 21 395502 (2009);
          URL http://www.quantum-espresso.org", 
     in publications or presentations arising from this work. More details at
     http://www.quantum-espresso.org/quote

     Parallel version (MPI), running on    10 processors
     R & G space division:  proc/nbgrp/npool/nimage =      10
     Reading input from input/multi/minchecks-Gold5-382.in

     Current dimensions of program PWSCF are:
     Max number of different atomic species (ntypx) = 10
     Max number of k-points (npk) =  40000
     Max angular momentum in pseudopotentials (lmaxx) =  3
     Message from routine iosys:
     pot_extrapolation='second-order' not available, using 'atomic'
     Message from routine iosys:
     wfc_extrapolation='second-order' not available, using 'atomic'

     Subspace diagonalization in iterative solution of the eigenvalue problem:
     a serial algorithm will be used

 
     Parallelization info
     --------------------
     sticks:   dense  smooth     PW     G-vecs:    dense   smooth      PW
     Min         380     380     94                17748    17748    2208
     Max         381     381     95                17753    17753    2213
     Sum        3809    3809    949               177509   177509   22119
 


     bravais-lattice index     =            1
     lattice parameter (alat)  =      20.0000  a.u.
     unit-cell volume          =    8000.0000 (a.u.)^3
     number of atoms/cell      =            5
     number of atomic types    =            1
     number of electrons       =        55.00
     number of Kohn-Sham states=           34
     kinetic-energy cutoff     =      30.0000  Ry
     charge density cutoff     =     120.0000  Ry
     convergence threshold     =      1.0E-08
     mixing beta               =       0.7000
     number of iterations used =            8  plain     mixing
     Exchange-correlation      = BLYP ( 1  3  1  3 0 0)
     nstep                     =           50


     celldm(1)=  20.000000  celldm(2)=   0.000000  celldm(3)=   0.000000
     celldm(4)=   0.000000  celldm(5)=   0.000000  celldm(6)=   0.000000

     crystal axes: (cart. coord. in units of alat)
               a(1) = (   1.000000   0.000000   0.000000 )  
               a(2) = (   0.000000   1.000000   0.000000 )  
               a(3) = (   0.000000   0.000000   1.000000 )  

     reciprocal axes: (cart. coord. in units 2 pi/alat)
               b(1) = (  1.000000  0.000000  0.000000 )  
               b(2) = (  0.000000  1.000000  0.000000 )  
               b(3) = (  0.000000  0.000000  1.000000 )  


     PseudoPot. # 1 for Au read from file:
     ./Au.blyp-d-hgh.UPF
     MD5 check sum: c10d8bae01f806c36a1643a1c69a8479
     Pseudo is Norm-conserving, Zval = 11.0
     Generated in analytical, separable form
     Using radial grid of 1279 points,  6 beta functions with: 
                l(1) =   0
                l(2) =   0
                l(3) =   1
                l(4) =   1
                l(5) =   2
                l(6) =   2

     atomic species   valence    mass     pseudopotential
        Au            11.00    28.08600     Au( 1.00)

     No symmetry found



   Cartesian axes

     site n.     atom                  positions (alat units)
         1           Au  tau(   1) = (  -0.0945797   0.0867288  -0.0232789  )
         2           Au  tau(   2) = (  -0.0406386   0.1514419   0.2162947  )
         3           Au  tau(   3) = (   0.1536364   0.0838925   0.0193163  )
         4           Au  tau(   4) = (   0.2070161   0.1820620   0.2741881  )
         5           Au  tau(   5) = (   0.3886517   0.1073114   0.1137874  )

     number of k points=     1  Marzari-Vanderbilt smearing, width (Ry)=  0.0250
                       cart. coord. in units 2pi/alat
        k(    1) = (   0.0000000   0.0000000   0.0000000), wk =   2.0000000

     Dense  grid:   177509 G-vectors     FFT dimensions: (  72,  72,  72)

     Estimated max dynamical RAM per process >      15.04Mb

     Estimated total allocated dynamical RAM >     150.39Mb

     Initial potential from superposition of free atoms
     Check: negative starting charge=   -0.006505

     starting charge   54.99940, renormalised to   55.00000

     negative rho (up, down):  6.505E-03 0.000E+00
     Starting wfc are   45 randomized atomic wfcs

     total cpu time spent up to now is        0.4 secs

     per-process dynamical memory:    41.0 Mb

     Self-consistent Calculation

     iteration #  1     ecut=    30.00 Ry     beta=0.70
     Davidson diagonalization with overlap
     ethr =  1.00E-02,  avg # of iterations =  3.0

     Threshold (ethr) on eigenvalues was too large:
     Diagonalizing with lowered threshold

     Davidson diagonalization with overlap
     ethr =  4.03E-04,  avg # of iterations =  3.0

     negative rho (up, down):  8.973E-04 0.000E+00

     total cpu time spent up to now is        0.8 secs

     total energy              =    -329.37725645 Ry
     Harris-Foulkes estimate   =    -329.54504209 Ry
     estimated scf accuracy    <       0.27875793 Ry

     iteration #  2     ecut=    30.00 Ry     beta=0.70
     Davidson diagonalization with overlap
     ethr =  5.07E-04,  avg # of iterations =  2.0

     negative rho (up, down):  4.009E-04 0.000E+00

     total cpu time spent up to now is        1.0 secs

     total energy              =    -329.41195797 Ry
     Harris-Foulkes estimate   =    -329.55959907 Ry
     estimated scf accuracy    <       0.30263246 Ry

     iteration #  3     ecut=    30.00 Ry     beta=0.70
     Davidson diagonalization with overlap
     ethr =  5.07E-04,  avg # of iterations =  2.0

     negative rho (up, down):  1.558E-04 0.000E+00

     total cpu time spent up to now is        1.2 secs

     total energy              =    -329.47390594 Ry
     Harris-Foulkes estimate   =    -329.50176965 Ry
     estimated scf accuracy    <       0.07408640 Ry

     iteration #  4     ecut=    30.00 Ry     beta=0.70
     Davidson diagonalization with overlap
     ethr =  1.35E-04,  avg # of iterations =  2.0

     negative rho (up, down):  5.560E-06 0.000E+00

     total cpu time spent up to now is        1.4 secs

     total energy              =    -329.48670945 Ry
     Harris-Foulkes estimate   =    -329.48778501 Ry
     estimated scf accuracy    <       0.00263621 Ry

     iteration #  5     ecut=    30.00 Ry     beta=0.70
     Davidson diagonalization with overlap
     ethr =  4.79E-06,  avg # of iterations =  7.0

     total cpu time spent up to now is        1.7 secs

     total energy              =    -329.48735799 Ry
     Harris-Foulkes estimate   =    -329.48840106 Ry
     estimated scf accuracy    <       0.00285810 Ry

     iteration #  6     ecut=    30.00 Ry     beta=0.70
     Davidson diagonalization with overlap
     ethr =  4.79E-06,  avg # of iterations =  2.0

     total cpu time spent up to now is        2.0 secs

     total energy              =    -329.48779973 Ry
     Harris-Foulkes estimate   =    -329.48795075 Ry
     estimated scf accuracy    <       0.00038518 Ry

     iteration #  7     ecut=    30.00 Ry     beta=0.70
     Davidson diagonalization with overlap
     ethr =  7.00E-07,  avg # of iterations =  2.0

     total cpu time spent up to now is        2.2 secs

     total energy              =    -329.48786824 Ry
     Harris-Foulkes estimate   =    -329.48788347 Ry
     estimated scf accuracy    <       0.00003911 Ry

     iteration #  8     ecut=    30.00 Ry     beta=0.70
     Davidson diagonalization with overlap
     ethr =  7.11E-08,  avg # of iterations =  2.0

     total cpu time spent up to now is        2.4 secs

     total energy              =    -329.48787681 Ry
     Harris-Foulkes estimate   =    -329.48788196 Ry
     estimated scf accuracy    <       0.00001272 Ry

     iteration #  9     ecut=    30.00 Ry     beta=0.70
     Davidson diagonalization with overlap
     ethr =  2.31E-08,  avg # of iterations =  2.0

     total cpu time spent up to now is        2.6 secs

     total energy              =    -329.48787934 Ry
     Harris-Foulkes estimate   =    -329.48788000 Ry
     estimated scf accuracy    <       0.00000124 Ry

     iteration # 10     ecut=    30.00 Ry     beta=0.70
     Davidson diagonalization with overlap
     ethr =  2.25E-09,  avg # of iterations =  2.0

     total cpu time spent up to now is        2.8 secs

     total energy              =    -329.48787942 Ry
     Harris-Foulkes estimate   =    -329.48787974 Ry
     estimated scf accuracy    <       0.00000033 Ry

     iteration # 11     ecut=    30.00 Ry     beta=0.70
     Davidson diagonalization with overlap
     ethr =  6.08E-10,  avg # of iterations =  2.0

     total cpu time spent up to now is        3.1 secs

     total energy              =    -329.48787941 Ry
     Harris-Foulkes estimate   =    -329.48787950 Ry
     estimated scf accuracy    <       0.00000003 Ry

     iteration # 12     ecut=    30.00 Ry     beta=0.70
     Davidson diagonalization with overlap
     ethr =  4.69E-11,  avg # of iterations =  3.0

     total cpu time spent up to now is        3.3 secs

     total energy              =    -329.48787938 Ry
     Harris-Foulkes estimate   =    -329.48787942 Ry
     estimated scf accuracy    <       0.00000001 Ry

     iteration # 13     ecut=    30.00 Ry     beta=0.70
     Davidson diagonalization with overlap
     ethr =  2.03E-11,  avg # of iterations =  2.0

     total cpu time spent up to now is        3.5 secs

     End of self-consistent calculation

          k = 0.0000 0.0000 0.0000 ( 22119 PWs)   bands (ev):

    -8.3826  -7.7205  -7.6284  -7.1751  -6.9519  -6.7501  -6.7378  -6.4545
    -6.2727  -6.0562  -5.9829  -5.7562  -5.7152  -5.6606  -5.4042  -5.3579
    -5.3304  -5.2160  -5.1827  -5.1745  -5.1672  -5.1396  -5.0060  -4.8772
    -4.8522  -4.7161  -4.3963  -3.8004  -2.5766  -2.1282  -0.5592  -0.2394
     0.5449   0.9136

     the Fermi energy is    -3.7838 ev

!    total energy              =    -329.48787938 Ry
     Harris-Foulkes estimate   =    -329.48787938 Ry
     estimated scf accuracy    <          2.2E-09 Ry

     The total energy is the sum of the following terms:

     one-electron contribution =    -609.16471941 Ry
     hartree contribution      =     326.05085186 Ry
     xc contribution           =     -51.41161975 Ry
     ewald contribution        =       5.03863522 Ry
     smearing contrib. (-TS)   =      -0.00102730 Ry

     convergence has been achieved in  13 iterations

     Forces acting on atoms (Ry/au):

     atom    1 type  1   force =    -0.00321207   -0.00422766   -0.00883111
     atom    2 type  1   force =     0.00037720    0.00144709   -0.00006780
     atom    3 type  1   force =     0.00080626    0.00536305    0.01468378
     atom    4 type  1   force =     0.00054424   -0.00084052    0.00025412
     atom    5 type  1   force =     0.00148436   -0.00174196   -0.00603899

     Total force =     0.019905     Total SCF correction =     0.000216

     BFGS Geometry Optimization

     number of scf cycles    =   1
     number of bfgs steps    =   0

     energy   new            =    -329.4878793813 Ry

     new trust radius        =       0.0156532986 bohr
     new conv_thr            =       0.0000000100 Ry


ATOMIC_POSITIONS (bohr)
Au      -1.894807073   1.730348339  -0.474409112
Au      -0.812394796   3.030286091   4.325826201
Au       3.073535261   1.683214049   0.401010780
Au       4.140866243   3.640399484   5.484015120
Au       7.774517365   2.144486037   2.269710011



     Writing output data file pwscf.save
     Check: negative starting charge=   -0.006505
     NEW-OLD atomic charge density approx. for the potential
     Check: negative starting charge=   -0.006504

     negative rho (up, down):  1.508E-05 0.000E+00

     total cpu time spent up to now is        3.7 secs

     per-process dynamical memory:    42.9 Mb

     Self-consistent Calculation

     iteration #  1     ecut=    30.00 Ry     beta=0.70
     Davidson diagonalization with overlap
     ethr =  1.00E-06,  avg # of iterations =  4.0

     Threshold (ethr) on eigenvalues was too large:
     Diagonalizing with lowered threshold

     Davidson diagonalization with overlap
     ethr =  6.00E-08,  avg # of iterations =  1.0

     negative rho (up, down):  1.840E-08 0.000E+00

     total cpu time spent up to now is        4.2 secs

     total energy              =    -329.48824207 Ry
     Harris-Foulkes estimate   =    -329.48825114 Ry
     estimated scf accuracy    <       0.00003341 Ry

     iteration #  2     ecut=    30.00 Ry     beta=0.70
     Davidson diagonalization with overlap
     ethr =  6.07E-08,  avg # of iterations =  3.0

     total cpu time spent up to now is        4.5 secs

     total energy              =    -329.48823724 Ry
     Harris-Foulkes estimate   =    -329.48826886 Ry
     estimated scf accuracy    <       0.00007533 Ry

     iteration #  3     ecut=    30.00 Ry     beta=0.70
     Davidson diagonalization with overlap
     ethr =  6.07E-08,  avg # of iterations =  2.0

     total cpu time spent up to now is        4.7 secs

     total energy              =    -329.48825283 Ry
     Harris-Foulkes estimate   =    -329.48825665 Ry
     estimated scf accuracy    <       0.00001188 Ry

     iteration #  4     ecut=    30.00 Ry     beta=0.70
     Davidson diagonalization with overlap
     ethr =  2.16E-08,  avg # of iterations =  2.0

     total cpu time spent up to now is        4.9 secs

     total energy              =    -329.48825480 Ry
     Harris-Foulkes estimate   =    -329.48825508 Ry
     estimated scf accuracy    <       0.00000066 Ry

     iteration #  5     ecut=    30.00 Ry     beta=0.70
     Davidson diagonalization with overlap
     ethr =  1.20E-09,  avg # of iterations =  3.0

     total cpu time spent up to now is        5.1 secs

     total energy              =    -329.48825481 Ry
     Harris-Foulkes estimate   =    -329.48825511 Ry
     estimated scf accuracy    <       0.00000046 Ry

     iteration #  6     ecut=    30.00 Ry     beta=0.70
     Davidson diagonalization with overlap
     ethr =  8.44E-10,  avg # of iterations =  2.0

     total cpu time spent up to now is        5.3 secs

     total energy              =    -329.48825482 Ry
     Harris-Foulkes estimate   =    -329.48825490 Ry
     estimated scf accuracy    <       0.00000003 Ry

     iteration #  7     ecut=    30.00 Ry     beta=0.70
     Davidson diagonalization with overlap
     ethr =  6.19E-11,  avg # of iterations =  2.0

     total cpu time spent up to now is        5.5 secs

     End of self-consistent calculation

          k = 0.0000 0.0000 0.0000 ( 22119 PWs)   bands (ev):

    -8.3894  -7.7217  -7.6264  -7.1820  -6.9477  -6.7525  -6.7262  -6.4524
    -6.2779  -6.0477  -5.9856  -5.7586  -5.7165  -5.6625  -5.4037  -5.3640
    -5.3305  -5.2135  -5.1835  -5.1790  -5.1688  -5.1397  -5.0065  -4.8799
    -4.8535  -4.7170  -4.4012  -3.8002  -2.5746  -2.1315  -0.5601  -0.2374
     0.5436   0.9149

     the Fermi energy is    -3.7827 ev

!    total energy              =    -329.48825474 Ry
     Harris-Foulkes estimate   =    -329.48825482 Ry
     estimated scf accuracy    <          5.0E-09 Ry

     The total energy is the sum of the following terms:

     one-electron contribution =    -609.19172873 Ry
     hartree contribution      =     326.06238849 Ry
     xc contribution           =     -51.41067407 Ry
     ewald contribution        =       5.05295495 Ry
     smearing contrib. (-TS)   =      -0.00119537 Ry

     convergence has been achieved in   7 iterations

     Forces acting on atoms (Ry/au):

     atom    1 type  1   force =    -0.00184727   -0.00380659   -0.00758315
     atom    2 type  1   force =     0.00009110    0.00126555   -0.00092558
     atom    3 type  1   force =    -0.00092498    0.00486268    0.01353402
     atom    4 type  1   force =     0.00074350   -0.00071668    0.00039074
     atom    5 type  1   force =     0.00193766   -0.00160496   -0.00541603

     Total force =     0.017956     Total SCF correction =     0.000314

     number of scf cycles    =   2
     number of bfgs steps    =   1

     energy   old            =    -329.4878793813 Ry
     energy   new            =    -329.4882547387 Ry

     CASE: energy  _new < energy  _old


     WARNING: bfgs curvature condition failed, Theta= 0.894
     new trust radius        =       0.0172186285 bohr
     new conv_thr            =       0.0000000004 Ry


ATOMIC_POSITIONS (bohr)
Au      -1.897335962   1.725769915  -0.483638103
Au      -0.812212186   3.031819246   4.324967004
Au       3.072907886   1.689052771   0.417197099
Au       4.141686010   3.639525697   5.484437505
Au       7.776671252   2.142566371   2.263189496



     Writing output data file pwscf.save
     Check: negative starting charge=   -0.006504
     NEW-OLD atomic charge density approx. for the potential
     Check: negative starting charge=   -0.006502

     negative rho (up, down):  2.030E-05 0.000E+00

     total cpu time spent up to now is        5.8 secs

     per-process dynamical memory:    50.5 Mb

     Self-consistent Calculation

     iteration #  1     ecut=    30.00 Ry     beta=0.70
     Davidson diagonalization with overlap
     ethr =  1.00E-06,  avg # of iterations =  4.0

     Threshold (ethr) on eigenvalues was too large:
     Diagonalizing with lowered threshold

     Davidson diagonalization with overlap
     ethr =  7.08E-08,  avg # of iterations =  1.0

     negative rho (up, down):  3.012E-08 0.000E+00

     total cpu time spent up to now is        6.3 secs

     total energy              =    -329.48860804 Ry
     Harris-Foulkes estimate   =    -329.48861869 Ry
     estimated scf accuracy    <       0.00003941 Ry

     iteration #  2     ecut=    30.00 Ry     beta=0.70
     Davidson diagonalization with overlap
     ethr =  7.17E-08,  avg # of iterations =  3.0

     total cpu time spent up to now is        6.5 secs

     total energy              =    -329.48860314 Ry
     Harris-Foulkes estimate   =    -329.48863899 Ry
     estimated scf accuracy    <       0.00008472 Ry

     iteration #  3     ecut=    30.00 Ry     beta=0.70
     Davidson diagonalization with overlap
     ethr =  7.17E-08,  avg # of iterations =  2.0

     total cpu time spent up to now is        6.7 secs

     total energy              =    -329.48862109 Ry
     Harris-Foulkes estimate   =    -329.48862538 Ry
     estimated scf accuracy    <       0.00001404 Ry

     iteration #  4     ecut=    30.00 Ry     beta=0.70
     Davidson diagonalization with overlap
     ethr =  2.55E-08,  avg # of iterations =  2.0

     total cpu time spent up to now is        6.9 secs

     total energy              =    -329.48862320 Ry
     Harris-Foulkes estimate   =    -329.48862375 Ry
     estimated scf accuracy    <       0.00000076 Ry

     iteration #  5     ecut=    30.00 Ry     beta=0.70
     Davidson diagonalization with overlap
     ethr =  1.38E-09,  avg # of iterations =  3.0

     total cpu time spent up to now is        7.1 secs

     total energy              =    -329.48862327 Ry
     Harris-Foulkes estimate   =    -329.48862357 Ry
     estimated scf accuracy    <       0.00000062 Ry

     iteration #  6     ecut=    30.00 Ry     beta=0.70
     Davidson diagonalization with overlap
     ethr =  1.14E-09,  avg # of iterations =  2.0

     total cpu time spent up to now is        7.3 secs

     total energy              =    -329.48862335 Ry
     Harris-Foulkes estimate   =    -329.48862340 Ry
     estimated scf accuracy    <       0.00000004 Ry

     iteration #  7     ecut=    30.00 Ry     beta=0.70
     Davidson diagonalization with overlap
     ethr =  6.45E-11,  avg # of iterations =  3.0

     total cpu time spent up to now is        7.5 secs

     total energy              =    -329.48862333 Ry
     Harris-Foulkes estimate   =    -329.48862336 Ry
     estimated scf accuracy    <          5.1E-09 Ry

     iteration #  8     ecut=    30.00 Ry     beta=0.70
     Davidson diagonalization with overlap
     ethr =  9.24E-12,  avg # of iterations =  2.0

     total cpu time spent up to now is        7.8 secs

     total energy              =    -329.48862338 Ry
     Harris-Foulkes estimate   =    -329.48862333 Ry
     estimated scf accuracy    <          1.1E-09 Ry

     iteration #  9     ecut=    30.00 Ry     beta=0.70
     Davidson diagonalization with overlap
     ethr =  1.99E-12,  avg # of iterations =  2.0

     total cpu time spent up to now is        8.0 secs

     End of self-consistent calculation

          k = 0.0000 0.0000 0.0000 ( 22119 PWs)   bands (ev):

    -8.3978  -7.7242  -7.6252  -7.1898  -6.9429  -6.7562  -6.7142  -6.4509
    -6.2834  -6.0391  -5.9893  -5.7609  -5.7177  -5.6647  -5.4029  -5.3713
    -5.3303  -5.2110  -5.1849  -5.1836  -5.1706  -5.1394  -5.0068  -4.8831
    -4.8548  -4.7180  -4.4068  -3.7996  -2.5724  -2.1350  -0.5612  -0.2351
     0.5424   0.9161

     the Fermi energy is    -3.7811 ev

!    total energy              =    -329.48862338 Ry
     Harris-Foulkes estimate   =    -329.48862338 Ry
     estimated scf accuracy    <          2.8E-10 Ry

     The total energy is the sum of the following terms:

     one-electron contribution =    -609.25768948 Ry
     hartree contribution      =     326.09245118 Ry
     xc contribution           =     -51.40977471 Ry
     ewald contribution        =       5.08779136 Ry
     smearing contrib. (-TS)   =      -0.00140173 Ry

     convergence has been achieved in   9 iterations

     Forces acting on atoms (Ry/au):

     atom    1 type  1   force =    -0.00072384   -0.00335720   -0.00641460
     atom    2 type  1   force =    -0.00016372    0.00112067   -0.00168862
     atom    3 type  1   force =    -0.00220255    0.00432474    0.01251980
     atom    4 type  1   force =     0.00089491   -0.00061558    0.00045016
     atom    5 type  1   force =     0.00219521   -0.00147263   -0.00486674

     Total force =     0.016414     Total SCF correction =     0.000056

     number of scf cycles    =   3
     number of bfgs steps    =   2

     energy   old            =    -329.4882547387 Ry
     energy   new            =    -329.4886233792 Ry

     CASE: energy  _new < energy  _old

     new trust radius        =       0.0258279427 bohr
     new conv_thr            =       0.0000000004 Ry


ATOMIC_POSITIONS (bohr)
Au      -1.899795462   1.719146089  -0.496634856
Au      -0.812275498   3.034048756   4.322550450
Au       3.070169838   1.697548784   0.441433506
Au       4.143191696   3.638280710   5.485183269
Au       7.780426427   2.139709660   2.253620630



     Writing output data file pwscf.save
     Check: negative starting charge=   -0.006502
     NEW-OLD atomic charge density approx. for the potential
     Check: negative starting charge=   -0.006500

     negative rho (up, down):  7.035E-05 0.000E+00

     total cpu time spent up to now is        8.2 secs

     per-process dynamical memory:    50.5 Mb

     Self-consistent Calculation

     iteration #  1     ecut=    30.00 Ry     beta=0.70
     Davidson diagonalization with overlap
     ethr =  1.00E-06,  avg # of iterations =  4.0

     negative rho (up, down):  4.371E-07 0.000E+00

     total cpu time spent up to now is        8.6 secs

     total energy              =    -329.48907903 Ry
     Harris-Foulkes estimate   =    -329.48909385 Ry
     estimated scf accuracy    <       0.00008134 Ry

     iteration #  2     ecut=    30.00 Ry     beta=0.70
     Davidson diagonalization with overlap
     ethr =  1.48E-07,  avg # of iterations =  3.0

     negative rho (up, down):  4.222E-08 0.000E+00

     total cpu time spent up to now is        8.8 secs

     total energy              =    -329.48907347 Ry
     Harris-Foulkes estimate   =    -329.48913682 Ry
     estimated scf accuracy    <       0.00014270 Ry

     iteration #  3     ecut=    30.00 Ry     beta=0.70
     Davidson diagonalization with overlap
     ethr =  1.48E-07,  avg # of iterations =  2.0

     total cpu time spent up to now is        9.1 secs

     total energy              =    -329.48910407 Ry
     Harris-Foulkes estimate   =    -329.48911469 Ry
     estimated scf accuracy    <       0.00003231 Ry

     iteration #  4     ecut=    30.00 Ry     beta=0.70
     Davidson diagonalization with overlap
     ethr =  5.87E-08,  avg # of iterations =  2.0

     total cpu time spent up to now is        9.3 secs

     total energy              =    -329.48910964 Ry
     Harris-Foulkes estimate   =    -329.48911019 Ry
     estimated scf accuracy    <       0.00000163 Ry

     iteration #  5     ecut=    30.00 Ry     beta=0.70
     Davidson diagonalization with overlap
     ethr =  2.96E-09,  avg # of iterations =  3.0

     total cpu time spent up to now is        9.5 secs

     total energy              =    -329.48911007 Ry
     Harris-Foulkes estimate   =    -329.48911039 Ry
     estimated scf accuracy    <       0.00000110 Ry

     iteration #  6     ecut=    30.00 Ry     beta=0.70
     Davidson diagonalization with overlap
     ethr =  2.00E-09,  avg # of iterations =  2.0

     total cpu time spent up to now is        9.7 secs

     total energy              =    -329.48911010 Ry
     Harris-Foulkes estimate   =    -329.48911030 Ry
     estimated scf accuracy    <       0.00000009 Ry

     iteration #  7     ecut=    30.00 Ry     beta=0.70
     Davidson diagonalization with overlap
     ethr =  1.59E-10,  avg # of iterations =  3.0

     total cpu time spent up to now is        9.9 secs

     total energy              =    -329.48911014 Ry
     Harris-Foulkes estimate   =    -329.48911012 Ry
     estimated scf accuracy    <       0.00000001 Ry

     iteration #  8     ecut=    30.00 Ry     beta=0.70
     Davidson diagonalization with overlap
     ethr =  2.35E-11,  avg # of iterations =  2.0

     total cpu time spent up to now is       10.1 secs

     total energy              =    -329.48911017 Ry
     Harris-Foulkes estimate   =    -329.48911014 Ry
     estimated scf accuracy    <          2.6E-09 Ry

     iteration #  9     ecut=    30.00 Ry     beta=0.70
     Davidson diagonalization with overlap
     ethr =  4.66E-12,  avg # of iterations =  2.0

     total cpu time spent up to now is       10.4 secs

     total energy              =    -329.48911014 Ry
     Harris-Foulkes estimate   =    -329.48911017 Ry
     estimated scf accuracy    <          5.6E-10 Ry

     iteration # 10     ecut=    30.00 Ry     beta=0.70
     Davidson diagonalization with overlap
     ethr =  1.03E-12,  avg # of iterations =  2.0

     total cpu time spent up to now is       10.6 secs

     End of self-consistent calculation

          k = 0.0000 0.0000 0.0000 ( 22119 PWs)   bands (ev):

    -8.4115  -7.7298  -7.6256  -7.2017  -6.9357  -6.7628  -6.6981  -6.4506
    -6.2912  -6.0278  -5.9957  -5.7637  -5.7196  -5.6684  -5.4013  -5.3828
    -5.3296  -5.2079  -5.1917  -5.1853  -5.1729  -5.1386  -5.0072  -4.8881
    -4.8560  -4.7195  -4.4154  -3.7982  -2.5691  -2.1400  -0.5629  -0.2312
     0.5412   0.9178

     the Fermi energy is    -3.7780 ev

!    total energy              =    -329.48911014 Ry
     Harris-Foulkes estimate   =    -329.48911014 Ry
     estimated scf accuracy    <          5.1E-11 Ry

     The total energy is the sum of the following terms:

     one-electron contribution =    -609.41355702 Ry
     hartree contribution      =     326.16557281 Ry
     xc contribution           =     -51.40866819 Ry
     ewald contribution        =       5.16927753 Ry
     smearing contrib. (-TS)   =      -0.00173526 Ry

     convergence has been achieved in  10 iterations

     Forces acting on atoms (Ry/au):

     atom    1 type  1   force =     0.00056237   -0.00269170   -0.00487549
     atom    2 type  1   force =    -0.00050271    0.00095793   -0.00249878
     atom    3 type  1   force =    -0.00337858    0.00354753    0.01101615
     atom    4 type  1   force =     0.00103711   -0.00050978    0.00051225
     atom    5 type  1   force =     0.00228181   -0.00130398   -0.00415415

     Total force =     0.014487     Total SCF correction =     0.000028

     number of scf cycles    =   4
     number of bfgs steps    =   3

     energy   old            =    -329.4886233792 Ry
     energy   new            =    -329.4891101409 Ry

     CASE: energy  _new < energy  _old

     new trust radius        =       0.0387419141 bohr
     new conv_thr            =       0.0000000005 Ry


ATOMIC_POSITIONS (bohr)
Au      -1.901843890   1.709625858  -0.514998836
Au      -0.812874418   3.037353694   4.317551965
Au       3.064187023   1.709875910   0.477671385
Au       4.145780526   3.636455490   5.486451268
Au       7.786467759   2.135423048   2.239477218



     Writing output data file pwscf.save
     Check: negative starting charge=   -0.006500
     NEW-OLD atomic charge density approx. for the potential
     Check: negative starting charge=   -0.006496

     negative rho (up, down):  1.965E-04 0.000E+00

     total cpu time spent up to now is       10.8 secs

     per-process dynamical memory:    50.6 Mb

     Self-consistent Calculation

     iteration #  1     ecut=    30.00 Ry     beta=0.70
     Davidson diagonalization with overlap
     ethr =  1.00E-06,  avg # of iterations =  4.0

     negative rho (up, down):  3.519E-06 0.000E+00

     total cpu time spent up to now is       11.2 secs

     total energy              =    -329.48963263 Ry
     Harris-Foulkes estimate   =    -329.48964102 Ry
     estimated scf accuracy    <       0.00017345 Ry

     iteration #  2     ecut=    30.00 Ry     beta=0.70
     Davidson diagonalization with overlap
     ethr =  3.15E-07,  avg # of iterations =  3.0

     negative rho (up, down):  5.422E-07 0.000E+00

     total cpu time spent up to now is       11.4 secs

     total energy              =    -329.48962618 Ry
     Harris-Foulkes estimate   =    -329.48975036 Ry
     estimated scf accuracy    <       0.00027410 Ry

     iteration #  3     ecut=    30.00 Ry     beta=0.70
     Davidson diagonalization with overlap
     ethr =  3.15E-07,  avg # of iterations =  2.0

     total cpu time spent up to now is       11.6 secs

     total energy              =    -329.48968566 Ry
     Harris-Foulkes estimate   =    -329.48970867 Ry
     estimated scf accuracy    <       0.00006949 Ry

     iteration #  4     ecut=    30.00 Ry     beta=0.70
     Davidson diagonalization with overlap
     ethr =  1.26E-07,  avg # of iterations =  2.0

     total cpu time spent up to now is       11.8 secs

     total energy              =    -329.48969830 Ry
     Harris-Foulkes estimate   =    -329.48969897 Ry
     estimated scf accuracy    <       0.00000344 Ry

     iteration #  5     ecut=    30.00 Ry     beta=0.70
     Davidson diagonalization with overlap
     ethr =  6.26E-09,  avg # of iterations =  3.0

     total cpu time spent up to now is       12.1 secs

     total energy              =    -329.48969885 Ry
     Harris-Foulkes estimate   =    -329.48969979 Ry
     estimated scf accuracy    <       0.00000196 Ry

     iteration #  6     ecut=    30.00 Ry     beta=0.70
     Davidson diagonalization with overlap
     ethr =  3.56E-09,  avg # of iterations =  2.0

     total cpu time spent up to now is       12.3 secs

     total energy              =    -329.48969913 Ry
     Harris-Foulkes estimate   =    -329.48969928 Ry
     estimated scf accuracy    <       0.00000019 Ry

     iteration #  7     ecut=    30.00 Ry     beta=0.70
     Davidson diagonalization with overlap
     ethr =  3.41E-10,  avg # of iterations =  2.0

     total cpu time spent up to now is       12.5 secs

     total energy              =    -329.48969913 Ry
     Harris-Foulkes estimate   =    -329.48969918 Ry
     estimated scf accuracy    <       0.00000003 Ry

     iteration #  8     ecut=    30.00 Ry     beta=0.70
     Davidson diagonalization with overlap
     ethr =  5.34E-11,  avg # of iterations =  2.0

     total cpu time spent up to now is       12.7 secs

     total energy              =    -329.48969910 Ry
     Harris-Foulkes estimate   =    -329.48969914 Ry
     estimated scf accuracy    <          5.6E-09 Ry

     iteration #  9     ecut=    30.00 Ry     beta=0.70
     Davidson diagonalization with overlap
     ethr =  1.02E-11,  avg # of iterations =  2.0

     total cpu time spent up to now is       12.9 secs

     total energy              =    -329.48969912 Ry
     Harris-Foulkes estimate   =    -329.48969910 Ry
     estimated scf accuracy    <          1.1E-09 Ry

     iteration # 10     ecut=    30.00 Ry     beta=0.70
     Davidson diagonalization with overlap
     ethr =  1.97E-12,  avg # of iterations =  2.0

     total cpu time spent up to now is       13.1 secs

     End of self-consistent calculation

          k = 0.0000 0.0000 0.0000 ( 22119 PWs)   bands (ev):

    -8.4329  -7.7404  -7.6299  -7.2186  -6.9243  -6.7735  -6.6766  -6.4536
    -6.3014  -6.0157  -6.0039  -5.7672  -5.7224  -5.6742  -5.4025  -5.3962
    -5.3280  -5.2051  -5.2031  -5.1854  -5.1758  -5.1364  -5.0075  -4.8959
    -4.8562  -4.7214  -4.4282  -3.7956  -2.5639  -2.1471  -0.5657  -0.2251
     0.5400   0.9202

     the Fermi energy is    -3.7729 ev

!    total energy              =    -329.48969915 Ry
     Harris-Foulkes estimate   =    -329.48969913 Ry
     estimated scf accuracy    <          1.1E-10 Ry

     The total energy is the sum of the following terms:

     one-electron contribution =    -609.71618250 Ry
     hartree contribution      =     326.30924504 Ry
     xc contribution           =     -51.40742015 Ry
     ewald contribution        =       5.32690971 Ry
     smearing contrib. (-TS)   =      -0.00225124 Ry

     convergence has been achieved in  10 iterations

     Forces acting on atoms (Ry/au):

     atom    1 type  1   force =     0.00204631   -0.00187338   -0.00272960
     atom    2 type  1   force =    -0.00096363    0.00070305   -0.00308113
     atom    3 type  1   force =    -0.00435375    0.00273485    0.00795854
     atom    4 type  1   force =     0.00115350   -0.00046577    0.00085634
     atom    5 type  1   force =     0.00211757   -0.00109874   -0.00300416

     Total force =     0.011525     Total SCF correction =     0.000049

     number of scf cycles    =   5
     number of bfgs steps    =   4

     energy   old            =    -329.4891101409 Ry
     energy   new            =    -329.4896991511 Ry

     CASE: energy  _new < energy  _old

     new trust radius        =       0.0581128711 bohr
     new conv_thr            =       0.0000000006 Ry


ATOMIC_POSITIONS (bohr)
Au      -1.902340097   1.695543253  -0.541074600
Au      -0.814763557   3.042307635   4.308187831
Au       3.052474490   1.728595003   0.531425621
Au       4.150269731   3.633530354   5.489207567
Au       7.796076432   2.128757756   2.218406581



     Writing output data file pwscf.save
     Check: negative starting charge=   -0.006496
     NEW-OLD atomic charge density approx. for the potential
     Check: negative starting charge=   -0.006500

     negative rho (up, down):  4.680E-04 0.000E+00

     total cpu time spent up to now is       13.4 secs

     per-process dynamical memory:    50.7 Mb

     Self-consistent Calculation

     iteration #  1     ecut=    30.00 Ry     beta=0.70
     Davidson diagonalization with overlap
     ethr =  1.00E-06,  avg # of iterations =  5.0

     negative rho (up, down):  1.817E-05 0.000E+00

     total cpu time spent up to now is       13.7 secs

     total energy              =    -329.49012688 Ry
     Harris-Foulkes estimate   =    -329.49002983 Ry
     estimated scf accuracy    <       0.00037565 Ry

     iteration #  2     ecut=    30.00 Ry     beta=0.70
     Davidson diagonalization with overlap
     ethr =  6.83E-07,  avg # of iterations =  4.0

     negative rho (up, down):  3.962E-06 0.000E+00

     total cpu time spent up to now is       14.0 secs

     total energy              =    -329.49012641 Ry
     Harris-Foulkes estimate   =    -329.49037223 Ry
     estimated scf accuracy    <       0.00053897 Ry

     iteration #  3     ecut=    30.00 Ry     beta=0.70
     Davidson diagonalization with overlap
     ethr =  6.83E-07,  avg # of iterations =  2.0

     negative rho (up, down):  1.238E-07 0.000E+00

     total cpu time spent up to now is       14.2 secs

     total energy              =    -329.49024383 Ry
     Harris-Foulkes estimate   =    -329.49029344 Ry
     estimated scf accuracy    <       0.00014750 Ry

     iteration #  4     ecut=    30.00 Ry     beta=0.70
     Davidson diagonalization with overlap
     ethr =  2.68E-07,  avg # of iterations =  2.0

     total cpu time spent up to now is       14.4 secs

     total energy              =    -329.49027124 Ry
     Harris-Foulkes estimate   =    -329.49027288 Ry
     estimated scf accuracy    <       0.00000747 Ry

     iteration #  5     ecut=    30.00 Ry     beta=0.70
     Davidson diagonalization with overlap
     ethr =  1.36E-08,  avg # of iterations =  3.0

     total cpu time spent up to now is       14.6 secs

     total energy              =    -329.49027245 Ry
     Harris-Foulkes estimate   =    -329.49027416 Ry
     estimated scf accuracy    <       0.00000332 Ry

     iteration #  6     ecut=    30.00 Ry     beta=0.70
     Davidson diagonalization with overlap
     ethr =  6.03E-09,  avg # of iterations =  2.0

     total cpu time spent up to now is       14.8 secs

     total energy              =    -329.49027313 Ry
     Harris-Foulkes estimate   =    -329.49027319 Ry
     estimated scf accuracy    <       0.00000032 Ry

     iteration #  7     ecut=    30.00 Ry     beta=0.70
     Davidson diagonalization with overlap
     ethr =  5.81E-10,  avg # of iterations =  2.0

     total cpu time spent up to now is       15.0 secs

     total energy              =    -329.49027317 Ry
     Harris-Foulkes estimate   =    -329.49027321 Ry
     estimated scf accuracy    <       0.00000007 Ry

     iteration #  8     ecut=    30.00 Ry     beta=0.70
     Davidson diagonalization with overlap
     ethr =  1.20E-10,  avg # of iterations =  2.0

     total cpu time spent up to now is       15.2 secs

     total energy              =    -329.49027319 Ry
     Harris-Foulkes estimate   =    -329.49027318 Ry
     estimated scf accuracy    <       0.00000001 Ry

     iteration #  9     ecut=    30.00 Ry     beta=0.70
     Davidson diagonalization with overlap
     ethr =  2.11E-11,  avg # of iterations =  2.0

     total cpu time spent up to now is       15.5 secs

     total energy              =    -329.49027314 Ry
     Harris-Foulkes estimate   =    -329.49027319 Ry
     estimated scf accuracy    <          2.2E-09 Ry

     iteration # 10     ecut=    30.00 Ry     beta=0.70
     Davidson diagonalization with overlap
     ethr =  4.01E-12,  avg # of iterations =  2.0

     total cpu time spent up to now is       15.7 secs

     End of self-consistent calculation

          k = 0.0000 0.0000 0.0000 ( 22119 PWs)   bands (ev):

    -8.4656  -7.7589  -7.6442  -7.2390  -6.9057  -6.7897  -6.6483  -6.4651
    -6.3118  -6.0314  -5.9876  -5.7708  -5.7261  -5.6825  -5.4274  -5.3906
    -5.3250  -5.2204  -5.2047  -5.1835  -5.1778  -5.1317  -5.0074  -4.9080
    -4.8522  -4.7242  -4.4472  -3.7915  -2.5557  -2.1577  -0.5701  -0.2154
     0.5394   0.9233

     the Fermi energy is    -3.7651 ev

!    total energy              =    -329.49027317 Ry
     Harris-Foulkes estimate   =    -329.49027314 Ry
     estimated scf accuracy    <          2.4E-10 Ry

     The total energy is the sum of the following terms:

     one-electron contribution =    -610.23253369 Ry
     hartree contribution      =     326.55614429 Ry
     xc contribution           =     -51.40616777 Ry
     ewald contribution        =       5.59528583 Ry
     smearing contrib. (-TS)   =      -0.00300182 Ry

     convergence has been achieved in  10 iterations

     Forces acting on atoms (Ry/au):

     atom    1 type  1   force =     0.00342937   -0.00135334   -0.00050415
     atom    2 type  1   force =    -0.00144695    0.00036028   -0.00326036
     atom    3 type  1   force =    -0.00489313    0.00212674    0.00342006
     atom    4 type  1   force =     0.00140780   -0.00046188    0.00158393
     atom    5 type  1   force =     0.00150290   -0.00067180   -0.00123948

     Total force =     0.008707     Total SCF correction =     0.000082

     number of scf cycles    =   6
     number of bfgs steps    =   5

     energy   old            =    -329.4896991511 Ry
     energy   new            =    -329.4902731685 Ry

     CASE: energy  _new < energy  _old

     new trust radius        =       0.0691187952 bohr
     new conv_thr            =       0.0000000005 Ry


ATOMIC_POSITIONS (bohr)
Au      -1.898936402   1.677875102  -0.570676727
Au      -0.818733552   3.048218435   4.294387365
Au       3.034361544   1.752435105   0.593723121
Au       4.157093528   3.629561660   5.494758404
Au       7.807931882   2.120643697   2.193960837



     Writing output data file pwscf.save
     Check: negative starting charge=   -0.006500
     NEW-OLD atomic charge density approx. for the potential
     Check: negative starting charge=   -0.006522

     negative rho (up, down):  6.636E-04 0.000E+00

     total cpu time spent up to now is       15.9 secs

     per-process dynamical memory:    50.7 Mb

     Self-consistent Calculation

     iteration #  1     ecut=    30.00 Ry     beta=0.70
     Davidson diagonalization with overlap
     ethr =  1.00E-06,  avg # of iterations =  6.0

     negative rho (up, down):  3.360E-05 0.000E+00

     total cpu time spent up to now is       16.3 secs

     total energy              =    -329.49036048 Ry
     Harris-Foulkes estimate   =    -329.49014459 Ry
     estimated scf accuracy    <       0.00051335 Ry

     iteration #  2     ecut=    30.00 Ry     beta=0.70
     Davidson diagonalization with overlap
     ethr =  9.33E-07,  avg # of iterations =  5.0

     negative rho (up, down):  8.209E-06 0.000E+00

     total cpu time spent up to now is       16.6 secs

     total energy              =    -329.49037469 Ry
     Harris-Foulkes estimate   =    -329.49068023 Ry
     estimated scf accuracy    <       0.00065799 Ry

     iteration #  3     ecut=    30.00 Ry     beta=0.70
     Davidson diagonalization with overlap
     ethr =  9.33E-07,  avg # of iterations =  2.0

     negative rho (up, down):  3.909E-07 0.000E+00

     total cpu time spent up to now is       16.8 secs

     total energy              =    -329.49051754 Ry
     Harris-Foulkes estimate   =    -329.49058599 Ry
     estimated scf accuracy    <       0.00019864 Ry

     iteration #  4     ecut=    30.00 Ry     beta=0.70
     Davidson diagonalization with overlap
     ethr =  3.61E-07,  avg # of iterations =  2.0

     total cpu time spent up to now is       17.0 secs

     total energy              =    -329.49055613 Ry
     Harris-Foulkes estimate   =    -329.49055765 Ry
     estimated scf accuracy    <       0.00001097 Ry

     iteration #  5     ecut=    30.00 Ry     beta=0.70
     Davidson diagonalization with overlap
     ethr =  1.99E-08,  avg # of iterations =  3.0

     total cpu time spent up to now is       17.2 secs

     total energy              =    -329.49055810 Ry
     Harris-Foulkes estimate   =    -329.49056023 Ry
     estimated scf accuracy    <       0.00000441 Ry

     iteration #  6     ecut=    30.00 Ry     beta=0.70
     Davidson diagonalization with overlap
     ethr =  8.01E-09,  avg # of iterations =  2.0

     total cpu time spent up to now is       17.4 secs

     total energy              =    -329.49055904 Ry
     Harris-Foulkes estimate   =    -329.49055903 Ry
     estimated scf accuracy    <       0.00000031 Ry

     iteration #  7     ecut=    30.00 Ry     beta=0.70
     Davidson diagonalization with overlap
     ethr =  5.56E-10,  avg # of iterations =  2.0

     total cpu time spent up to now is       17.6 secs

     total energy              =    -329.49055903 Ry
     Harris-Foulkes estimate   =    -329.49055912 Ry
     estimated scf accuracy    <       0.00000007 Ry

     iteration #  8     ecut=    30.00 Ry     beta=0.70
     Davidson diagonalization with overlap
     ethr =  1.36E-10,  avg # of iterations =  2.0

     total cpu time spent up to now is       17.8 secs

     total energy              =    -329.49055907 Ry
     Harris-Foulkes estimate   =    -329.49055906 Ry
     estimated scf accuracy    <       0.00000002 Ry

     iteration #  9     ecut=    30.00 Ry     beta=0.70
     Davidson diagonalization with overlap
     ethr =  3.49E-11,  avg # of iterations =  2.0

     total cpu time spent up to now is       18.0 secs

     total energy              =    -329.49055905 Ry
     Harris-Foulkes estimate   =    -329.49055907 Ry
     estimated scf accuracy    <          3.1E-09 Ry

     iteration # 10     ecut=    30.00 Ry     beta=0.70
     Davidson diagonalization with overlap
     ethr =  5.56E-12,  avg # of iterations =  2.0

     total cpu time spent up to now is       18.2 secs

     End of self-consistent calculation

          k = 0.0000 0.0000 0.0000 ( 22119 PWs)   bands (ev):

    -8.5038  -7.7838  -7.6720  -7.2524  -6.8809  -6.8072  -6.6204  -6.4886
    -6.3154  -6.0606  -5.9636  -5.7735  -5.7297  -5.6906  -5.4556  -5.3797
    -5.3205  -5.2409  -5.2055  -5.1832  -5.1756  -5.1249  -5.0062  -4.9223
    -4.8404  -4.7274  -4.4688  -3.7864  -2.5448  -2.1704  -0.5752  -0.2029
     0.5400   0.9264

     the Fermi energy is    -3.7562 ev

!    total energy              =    -329.49055906 Ry
     Harris-Foulkes estimate   =    -329.49055905 Ry
     estimated scf accuracy    <          3.1E-10 Ry

     The total energy is the sum of the following terms:

     one-electron contribution =    -610.87930658 Ry
     hartree contribution      =     326.86754993 Ry
     xc contribution           =     -51.40558878 Ry
     ewald contribution        =       5.93059502 Ry
     smearing contrib. (-TS)   =      -0.00380864 Ry

     convergence has been achieved in  10 iterations

     Forces acting on atoms (Ry/au):

     atom    1 type  1   force =     0.00358169   -0.00086346    0.00093322
     atom    2 type  1   force =    -0.00182007    0.00071202   -0.00273059
     atom    3 type  1   force =    -0.00352751   -0.00052931   -0.00161084
     atom    4 type  1   force =     0.00169234    0.00019639    0.00260257
     atom    5 type  1   force =     0.00007354    0.00048437    0.00080564

     Total force =     0.007184     Total SCF correction =     0.000093

     number of scf cycles    =   7
     number of bfgs steps    =   6

     energy   old            =    -329.4902731685 Ry
     energy   new            =    -329.4905590605 Ry

     CASE: energy  _new < energy  _old

     new trust radius        =       0.0034036958 bohr
     new conv_thr            =       0.0000000003 Ry


ATOMIC_POSITIONS (bohr)
Au      -1.895850429   1.676452055  -0.570868698
Au      -0.820509316   3.049116805   4.291772478
Au       3.031158410   1.752617162   0.593750754
Au       4.158846069   3.629630561   5.497448875
Au       7.808072266   2.120917417   2.194049591



     Writing output data file pwscf.save
     Check: negative starting charge=   -0.006522
     NEW-OLD atomic charge density approx. for the potential
     Check: negative starting charge=   -0.006521

     negative rho (up, down):  3.591E-08 0.000E+00

     total cpu time spent up to now is       18.5 secs

     per-process dynamical memory:    50.7 Mb

     Self-consistent Calculation

     iteration #  1     ecut=    30.00 Ry     beta=0.70
     Davidson diagonalization with overlap
     ethr =  1.00E-06,  avg # of iterations =  3.0

     Threshold (ethr) on eigenvalues was too large:
     Diagonalizing with lowered threshold

     Davidson diagonalization with overlap
     ethr =  5.29E-09,  avg # of iterations =  2.0

     total cpu time spent up to now is       18.9 secs

     total energy              =    -329.49059798 Ry
     Harris-Foulkes estimate   =    -329.49059790 Ry
     estimated scf accuracy    <       0.00000302 Ry

     iteration #  2     ecut=    30.00 Ry     beta=0.70
     Davidson diagonalization with overlap
     ethr =  5.50E-09,  avg # of iterations =  3.0

     total cpu time spent up to now is       19.1 secs

     total energy              =    -329.49059746 Ry
     Harris-Foulkes estimate   =    -329.49060084 Ry
     estimated scf accuracy    <       0.00000867 Ry

     iteration #  3     ecut=    30.00 Ry     beta=0.70
     Davidson diagonalization with overlap
     ethr =  5.50E-09,  avg # of iterations =  2.0

     total cpu time spent up to now is       19.4 secs

     total energy              =    -329.49059915 Ry
     Harris-Foulkes estimate   =    -329.49059934 Ry
     estimated scf accuracy    <       0.00000064 Ry

     iteration #  4     ecut=    30.00 Ry     beta=0.70
     Davidson diagonalization with overlap
     ethr =  1.16E-09,  avg # of iterations =  2.0

     total cpu time spent up to now is       19.6 secs

     total energy              =    -329.49059912 Ry
     Harris-Foulkes estimate   =    -329.49059930 Ry
     estimated scf accuracy    <       0.00000006 Ry

     iteration #  5     ecut=    30.00 Ry     beta=0.70
     Davidson diagonalization with overlap
     ethr =  1.04E-10,  avg # of iterations =  2.0

     total cpu time spent up to now is       19.8 secs

     total energy              =    -329.49059917 Ry
     Harris-Foulkes estimate   =    -329.49059913 Ry
     estimated scf accuracy    <          5.4E-09 Ry

     iteration #  6     ecut=    30.00 Ry     beta=0.70
     Davidson diagonalization with overlap
     ethr =  9.88E-12,  avg # of iterations =  2.0

     total cpu time spent up to now is       20.1 secs

     total energy              =    -329.49059922 Ry
     Harris-Foulkes estimate   =    -329.49059917 Ry
     estimated scf accuracy    <          1.4E-09 Ry

     iteration #  7     ecut=    30.00 Ry     beta=0.70
     Davidson diagonalization with overlap
     ethr =  2.62E-12,  avg # of iterations =  3.0

     total cpu time spent up to now is       20.3 secs

     End of self-consistent calculation

          k = 0.0000 0.0000 0.0000 ( 22119 PWs)   bands (ev):

    -8.5053  -7.7853  -7.6690  -7.2507  -6.8791  -6.8081  -6.6228  -6.4882
    -6.3135  -6.0621  -5.9653  -5.7734  -5.7306  -5.6903  -5.4560  -5.3788
    -5.3199  -5.2414  -5.2052  -5.1831  -5.1761  -5.1251  -5.0055  -4.9232
    -4.8407  -4.7278  -4.4697  -3.7856  -2.5440  -2.1718  -0.5751  -0.2027
     0.5401   0.9261

     the Fermi energy is    -3.7551 ev

!    total energy              =    -329.49059921 Ry
     Harris-Foulkes estimate   =    -329.49059922 Ry
     estimated scf accuracy    <          1.8E-10 Ry

     The total energy is the sum of the following terms:

     one-electron contribution =    -610.86644522 Ry
     hartree contribution      =     326.86100332 Ry
     xc contribution           =     -51.40549086 Ry
     ewald contribution        =       5.92419668 Ry
     smearing contrib. (-TS)   =      -0.00386315 Ry

     convergence has been achieved in   7 iterations

     Forces acting on atoms (Ry/au):

     atom    1 type  1   force =     0.00280451   -0.00096289    0.00054093
     atom    2 type  1   force =    -0.00137645    0.00082092   -0.00236308
     atom    3 type  1   force =    -0.00232411   -0.00049556   -0.00125344
     atom    4 type  1   force =     0.00131241    0.00013525    0.00230434
     atom    5 type  1   force =    -0.00041636    0.00050228    0.00077125

     Total force =     0.005703     Total SCF correction =     0.000052

     number of scf cycles    =   8
     number of bfgs steps    =   7

     energy   old            =    -329.4905590605 Ry
     energy   new            =    -329.4905992117 Ry

     CASE: energy  _new < energy  _old

     new trust radius        =       0.0037440654 bohr
     new conv_thr            =            1.0E-10 Ry


ATOMIC_POSITIONS (bohr)
Au      -1.892574713   1.674667520  -0.571189863
Au      -0.822312668   3.050358919   4.288754833
Au       3.028314650   1.752642124   0.593620206
Au       4.160658172   3.629691271   5.500582161
Au       7.807631558   2.121374167   2.194385664



     Writing output data file pwscf.save
     Check: negative starting charge=   -0.006521
     NEW-OLD atomic charge density approx. for the potential
     Check: negative starting charge=   -0.006519

     negative rho (up, down):  5.446E-08 0.000E+00

     total cpu time spent up to now is       20.5 secs

     per-process dynamical memory:    50.7 Mb

     Self-consistent Calculation

     iteration #  1     ecut=    30.00 Ry     beta=0.70
     Davidson diagonalization with overlap
     ethr =  1.00E-06,  avg # of iterations =  3.0

     Threshold (ethr) on eigenvalues was too large:
     Diagonalizing with lowered threshold

     Davidson diagonalization with overlap
     ethr =  5.98E-09,  avg # of iterations =  2.0

     total cpu time spent up to now is       21.0 secs

     total energy              =    -329.49063218 Ry
     Harris-Foulkes estimate   =    -329.49063237 Ry
     estimated scf accuracy    <       0.00000346 Ry

     iteration #  2     ecut=    30.00 Ry     beta=0.70
     Davidson diagonalization with overlap
     ethr =  6.29E-09,  avg # of iterations =  3.0

     total cpu time spent up to now is       21.2 secs

     total energy              =    -329.49063180 Ry
     Harris-Foulkes estimate   =    -329.49063513 Ry
     estimated scf accuracy    <       0.00000838 Ry

     iteration #  3     ecut=    30.00 Ry     beta=0.70
     Davidson diagonalization with overlap
     ethr =  6.29E-09,  avg # of iterations =  2.0

     total cpu time spent up to now is       21.4 secs

     total energy              =    -329.49063336 Ry
     Harris-Foulkes estimate   =    -329.49063377 Ry
     estimated scf accuracy    <       0.00000091 Ry

     iteration #  4     ecut=    30.00 Ry     beta=0.70
     Davidson diagonalization with overlap
     ethr =  1.66E-09,  avg # of iterations =  2.0

     total cpu time spent up to now is       21.6 secs

     total energy              =    -329.49063325 Ry
     Harris-Foulkes estimate   =    -329.49063357 Ry
     estimated scf accuracy    <       0.00000008 Ry

     iteration #  5     ecut=    30.00 Ry     beta=0.70
     Davidson diagonalization with overlap
     ethr =  1.44E-10,  avg # of iterations =  2.0

     total cpu time spent up to now is       21.8 secs

     total energy              =    -329.49063325 Ry
     Harris-Foulkes estimate   =    -329.49063328 Ry
     estimated scf accuracy    <       0.00000001 Ry

     iteration #  6     ecut=    30.00 Ry     beta=0.70
     Davidson diagonalization with overlap
     ethr =  2.28E-11,  avg # of iterations =  2.0

     total cpu time spent up to now is       22.0 secs

     total energy              =    -329.49063331 Ry
     Harris-Foulkes estimate   =    -329.49063325 Ry
     estimated scf accuracy    <          2.0E-09 Ry

     iteration #  7     ecut=    30.00 Ry     beta=0.70
     Davidson diagonalization with overlap
     ethr =  3.66E-12,  avg # of iterations =  2.0

     total cpu time spent up to now is       22.3 secs

     total energy              =    -329.49063331 Ry
     Harris-Foulkes estimate   =    -329.49063331 Ry
     estimated scf accuracy    <          2.9E-10 Ry

     iteration #  8     ecut=    30.00 Ry     beta=0.70
     Davidson diagonalization with overlap
     ethr =  5.29E-13,  avg # of iterations =  2.0

     total cpu time spent up to now is       22.5 secs

     total energy              =    -329.49063330 Ry
     Harris-Foulkes estimate   =    -329.49063331 Ry
     estimated scf accuracy    <          1.0E-10 Ry

     iteration #  9     ecut=    30.00 Ry     beta=0.70
     Davidson diagonalization with overlap
     ethr =  1.87E-13,  avg # of iterations =  2.0

     total cpu time spent up to now is       22.7 secs

     End of self-consistent calculation

          k = 0.0000 0.0000 0.0000 ( 22119 PWs)   bands (ev):

    -8.5070  -7.7869  -7.6658  -7.2490  -6.8774  -6.8092  -6.6256  -6.4877
    -6.3114  -6.0636  -5.9672  -5.7734  -5.7316  -5.6900  -5.4563  -5.3779
    -5.3192  -5.2418  -5.2048  -5.1832  -5.1764  -5.1254  -5.0047  -4.9240
    -4.8411  -4.7280  -4.4705  -3.7847  -2.5430  -2.1732  -0.5751  -0.2026
     0.5401   0.9259

     the Fermi energy is    -3.7540 ev

!    total energy              =    -329.49063330 Ry
     Harris-Foulkes estimate   =    -329.49063330 Ry
     estimated scf accuracy    <          1.6E-11 Ry

     The total energy is the sum of the following terms:

     one-electron contribution =    -610.85661585 Ry
     hartree contribution      =     326.85590877 Ry
     xc contribution           =     -51.40542669 Ry
     ewald contribution        =       5.91941600 Ry
     smearing contrib. (-TS)   =      -0.00391553 Ry

     convergence has been achieved in   9 iterations

     Forces acting on atoms (Ry/au):

     atom    1 type  1   force =     0.00202559   -0.00106494    0.00014326
     atom    2 type  1   force =    -0.00091050    0.00092130   -0.00200059
     atom    3 type  1   force =    -0.00123625   -0.00045032   -0.00089891
     atom    4 type  1   force =     0.00090170    0.00008332    0.00202122
     atom    5 type  1   force =    -0.00078054    0.00051064    0.00073503

     Total force =     0.004449     Total SCF correction =     0.000012

     number of scf cycles    =   9
     number of bfgs steps    =   8

     energy   old            =    -329.4905992117 Ry
     energy   new            =    -329.4906333007 Ry

     CASE: energy  _new < energy  _old

     new trust radius        =       0.0056160980 bohr
     new conv_thr            =            1.0E-10 Ry


ATOMIC_POSITIONS (bohr)
Au      -1.888104627   1.671620986  -0.572144778
Au      -0.824645140   3.052547474   4.284138519
Au       3.024953009   1.752679249   0.593844930
Au       4.163072469   3.629731044   5.505360456
Au       7.806441289   2.122155247   2.194953874



     Writing output data file pwscf.save
     Check: negative starting charge=   -0.006519
     NEW-OLD atomic charge density approx. for the potential
     Check: negative starting charge=   -0.006517

     negative rho (up, down):  6.070E-07 0.000E+00

     total cpu time spent up to now is       22.9 secs

     per-process dynamical memory:    50.7 Mb

     Self-consistent Calculation

     iteration #  1     ecut=    30.00 Ry     beta=0.70
     Davidson diagonalization with overlap
     ethr =  1.00E-06,  avg # of iterations =  3.0

     Threshold (ethr) on eigenvalues was too large:
     Diagonalizing with lowered threshold

     Davidson diagonalization with overlap
     ethr =  1.21E-08,  avg # of iterations =  2.0

     total cpu time spent up to now is       23.4 secs

     total energy              =    -329.49066691 Ry
     Harris-Foulkes estimate   =    -329.49066801 Ry
     estimated scf accuracy    <       0.00000705 Ry

     iteration #  2     ecut=    30.00 Ry     beta=0.70
     Davidson diagonalization with overlap
     ethr =  1.28E-08,  avg # of iterations =  3.0

     total cpu time spent up to now is       23.6 secs

     total energy              =    -329.49066677 Ry
     Harris-Foulkes estimate   =    -329.49067208 Ry
     estimated scf accuracy    <       0.00001292 Ry

     iteration #  3     ecut=    30.00 Ry     beta=0.70
     Davidson diagonalization with overlap
     ethr =  1.28E-08,  avg # of iterations =  2.0

     total cpu time spent up to now is       23.8 secs

     total energy              =    -329.49066929 Ry
     Harris-Foulkes estimate   =    -329.49067022 Ry
     estimated scf accuracy    <       0.00000228 Ry

     iteration #  4     ecut=    30.00 Ry     beta=0.70
     Davidson diagonalization with overlap
     ethr =  4.15E-09,  avg # of iterations =  2.0

     total cpu time spent up to now is       24.0 secs

     total energy              =    -329.49066964 Ry
     Harris-Foulkes estimate   =    -329.49066981 Ry
     estimated scf accuracy    <       0.00000019 Ry

     iteration #  5     ecut=    30.00 Ry     beta=0.70
     Davidson diagonalization with overlap
     ethr =  3.46E-10,  avg # of iterations =  2.0

     total cpu time spent up to now is       24.2 secs

     total energy              =    -329.49066974 Ry
     Harris-Foulkes estimate   =    -329.49066970 Ry
     estimated scf accuracy    <       0.00000003 Ry

     iteration #  6     ecut=    30.00 Ry     beta=0.70
     Davidson diagonalization with overlap
     ethr =  5.00E-11,  avg # of iterations =  2.0

     total cpu time spent up to now is       24.4 secs

     total energy              =    -329.49066976 Ry
     Harris-Foulkes estimate   =    -329.49066974 Ry
     estimated scf accuracy    <          4.4E-09 Ry

     iteration #  7     ecut=    30.00 Ry     beta=0.70
     Davidson diagonalization with overlap
     ethr =  7.94E-12,  avg # of iterations =  2.0

     total cpu time spent up to now is       24.6 secs

     total energy              =    -329.49066974 Ry
     Harris-Foulkes estimate   =    -329.49066976 Ry
     estimated scf accuracy    <          8.9E-10 Ry

     iteration #  8     ecut=    30.00 Ry     beta=0.70
     Davidson diagonalization with overlap
     ethr =  1.61E-12,  avg # of iterations =  2.0

     total cpu time spent up to now is       24.9 secs

     total energy              =    -329.49066973 Ry
     Harris-Foulkes estimate   =    -329.49066974 Ry
     estimated scf accuracy    <          2.9E-10 Ry

     iteration #  9     ecut=    30.00 Ry     beta=0.70
     Davidson diagonalization with overlap
     ethr =  5.24E-13,  avg # of iterations =  2.0

     total cpu time spent up to now is       25.1 secs

     End of self-consistent calculation

          k = 0.0000 0.0000 0.0000 ( 22119 PWs)   bands (ev):

    -8.5098  -7.7893  -7.6615  -7.2467  -6.8750  -6.8112  -6.6292  -6.4870
    -6.3084  -6.0659  -5.9697  -5.7736  -5.7330  -5.6897  -5.4566  -5.3765
    -5.3182  -5.2425  -5.2042  -5.1834  -5.1767  -5.1256  -5.0034  -4.9252
    -4.8418  -4.7282  -4.4715  -3.7835  -2.5412  -2.1754  -0.5751  -0.2024
     0.5402   0.9259

     the Fermi energy is    -3.7525 ev

!    total energy              =    -329.49066970 Ry
     Harris-Foulkes estimate   =    -329.49066973 Ry
     estimated scf accuracy    <          4.5E-11 Ry

     The total energy is the sum of the following terms:

     one-electron contribution =    -610.84965182 Ry
     hartree contribution      =     326.85213993 Ry
     xc contribution           =     -51.40539755 Ry
     ewald contribution        =       5.91622489 Ry
     smearing contrib. (-TS)   =      -0.00398515 Ry

     convergence has been achieved in   9 iterations

     Forces acting on atoms (Ry/au):

     atom    1 type  1   force =     0.00100634   -0.00118289   -0.00035101
     atom    2 type  1   force =    -0.00029481    0.00103384   -0.00153196
     atom    3 type  1   force =     0.00004255   -0.00040335   -0.00050540
     atom    4 type  1   force =     0.00035083    0.00003261    0.00168886
     atom    5 type  1   force =    -0.00110490    0.00051979    0.00069952

     Total force =     0.003379     Total SCF correction =     0.000023

     number of scf cycles    =  10
     number of bfgs steps    =   9

     energy   old            =    -329.4906333007 Ry
     energy   new            =    -329.4906696953 Ry

     CASE: energy  _new < energy  _old

     new trust radius        =       0.0084241471 bohr
     new conv_thr            =            1.0E-10 Ry


ATOMIC_POSITIONS (bohr)
Au      -1.882154384   1.666577597  -0.574143032
Au      -0.827504942   3.056286879   4.277152488
Au       3.021234244   1.752592882   0.594399051
Au       4.166137388   3.629757309   5.512686367
Au       7.804004695   2.123519333   2.196058126



     Writing output data file pwscf.save
     Check: negative starting charge=   -0.006517
     NEW-OLD atomic charge density approx. for the potential
     Check: negative starting charge=   -0.006514

     negative rho (up, down):  4.504E-06 0.000E+00

     total cpu time spent up to now is       25.3 secs

     per-process dynamical memory:    50.7 Mb

     Self-consistent Calculation

     iteration #  1     ecut=    30.00 Ry     beta=0.70
     Davidson diagonalization with overlap
     ethr =  1.00E-06,  avg # of iterations =  3.0

     Threshold (ethr) on eigenvalues was too large:
     Diagonalizing with lowered threshold

     Davidson diagonalization with overlap
     ethr =  2.56E-08,  avg # of iterations =  2.0

     total cpu time spent up to now is       25.8 secs

     total energy              =    -329.49069886 Ry
     Harris-Foulkes estimate   =    -329.49070166 Ry
     estimated scf accuracy    <       0.00001502 Ry

     iteration #  2     ecut=    30.00 Ry     beta=0.70
     Davidson diagonalization with overlap
     ethr =  2.73E-08,  avg # of iterations =  3.0

     total cpu time spent up to now is       26.0 secs

     total energy              =    -329.49069916 Ry
     Harris-Foulkes estimate   =    -329.49070861 Ry
     estimated scf accuracy    <       0.00002130 Ry

     iteration #  3     ecut=    30.00 Ry     beta=0.70
     Davidson diagonalization with overlap
     ethr =  2.73E-08,  avg # of iterations =  2.0

     total cpu time spent up to now is       26.2 secs

     total energy              =    -329.49070347 Ry
     Harris-Foulkes estimate   =    -329.49070534 Ry
     estimated scf accuracy    <       0.00000507 Ry

     iteration #  4     ecut=    30.00 Ry     beta=0.70
     Davidson diagonalization with overlap
     ethr =  9.22E-09,  avg # of iterations =  2.0

     total cpu time spent up to now is       26.4 secs

     total energy              =    -329.49070480 Ry
     Harris-Foulkes estimate   =    -329.49070468 Ry
     estimated scf accuracy    <       0.00000050 Ry

     iteration #  5     ecut=    30.00 Ry     beta=0.70
     Davidson diagonalization with overlap
     ethr =  9.15E-10,  avg # of iterations =  2.0

     total cpu time spent up to now is       26.6 secs

     total energy              =    -329.49070497 Ry
     Harris-Foulkes estimate   =    -329.49070493 Ry
     estimated scf accuracy    <       0.00000006 Ry

     iteration #  6     ecut=    30.00 Ry     beta=0.70
     Davidson diagonalization with overlap
     ethr =  1.09E-10,  avg # of iterations =  2.0

     total cpu time spent up to now is       26.8 secs

     total energy              =    -329.49070500 Ry
     Harris-Foulkes estimate   =    -329.49070498 Ry
     estimated scf accuracy    <          9.5E-09 Ry

     iteration #  7     ecut=    30.00 Ry     beta=0.70
     Davidson diagonalization with overlap
     ethr =  1.72E-11,  avg # of iterations =  2.0

     total cpu time spent up to now is       27.1 secs

     total energy              =    -329.49070500 Ry
     Harris-Foulkes estimate   =    -329.49070500 Ry
     estimated scf accuracy    <          1.9E-09 Ry

     iteration #  8     ecut=    30.00 Ry     beta=0.70
     Davidson diagonalization with overlap
     ethr =  3.46E-12,  avg # of iterations =  2.0

     total cpu time spent up to now is       27.3 secs

     total energy              =    -329.49070500 Ry
     Harris-Foulkes estimate   =    -329.49070500 Ry
     estimated scf accuracy    <          6.6E-10 Ry

     iteration #  9     ecut=    30.00 Ry     beta=0.70
     Davidson diagonalization with overlap
     ethr =  1.20E-12,  avg # of iterations =  2.0

     total cpu time spent up to now is       27.5 secs

     End of self-consistent calculation

          k = 0.0000 0.0000 0.0000 ( 22119 PWs)   bands (ev):

    -8.5140  -7.7924  -7.6559  -7.2434  -6.8716  -6.8141  -6.6339  -6.4859
    -6.3044  -6.0689  -5.9729  -5.7740  -5.7350  -5.6894  -5.4568  -5.3745
    -5.3169  -5.2434  -5.2033  -5.1839  -5.1769  -5.1258  -5.0016  -4.9266
    -4.8428  -4.7285  -4.4727  -3.7820  -2.5384  -2.1785  -0.5751  -0.2022
     0.5400   0.9262

     the Fermi energy is    -3.7506 ev

!    total energy              =    -329.49070498 Ry
     Harris-Foulkes estimate   =    -329.49070500 Ry
     estimated scf accuracy    <          8.4E-11 Ry

     The total energy is the sum of the following terms:

     one-electron contribution =    -610.83700985 Ry
     hartree contribution      =     326.84548272 Ry
     xc contribution           =     -51.40539757 Ry
     ewald contribution        =       5.91029097 Ry
     smearing contrib. (-TS)   =      -0.00407125 Ry

     convergence has been achieved in   9 iterations

     Forces acting on atoms (Ry/au):

     atom    1 type  1   force =    -0.00030955   -0.00130160   -0.00094305
     atom    2 type  1   force =     0.00050173    0.00114729   -0.00094002
     atom    3 type  1   force =     0.00147581   -0.00034105   -0.00007463
     atom    4 type  1   force =    -0.00034854   -0.00002518    0.00130586
     atom    5 type  1   force =    -0.00131946    0.00052055    0.00065183

     Total force =     0.003420     Total SCF correction =     0.000031

     number of scf cycles    =  11
     number of bfgs steps    =  10

     energy   old            =    -329.4906696953 Ry
     energy   new            =    -329.4907049776 Ry

     CASE: energy  _new < energy  _old

     new trust radius        =       0.0121785632 bohr
     new conv_thr            =            1.0E-10 Ry


ATOMIC_POSITIONS (bohr)
Au      -1.875066396   1.658544680  -0.577973641
Au      -0.830408778   3.062422450   4.267041112
Au       3.017969564   1.752212185   0.595422935
Au       4.169517567   3.629746857   5.523562279
Au       7.799705043   2.125807828   2.198100314



     Writing output data file pwscf.save
     Check: negative starting charge=   -0.006514
     NEW-OLD atomic charge density approx. for the potential
     Check: negative starting charge=   -0.006509

     negative rho (up, down):  1.921E-05 0.000E+00

     total cpu time spent up to now is       27.7 secs

     per-process dynamical memory:    50.7 Mb

     Self-consistent Calculation

     iteration #  1     ecut=    30.00 Ry     beta=0.70
     Davidson diagonalization with overlap
     ethr =  1.00E-06,  avg # of iterations =  4.0

     Threshold (ethr) on eigenvalues was too large:
     Diagonalizing with lowered threshold

     Davidson diagonalization with overlap
     ethr =  5.48E-08,  avg # of iterations =  1.0

     negative rho (up, down):  2.374E-08 0.000E+00

     total cpu time spent up to now is       28.2 secs

     total energy              =    -329.49072353 Ry
     Harris-Foulkes estimate   =    -329.49072980 Ry
     estimated scf accuracy    <       0.00003047 Ry

     iteration #  2     ecut=    30.00 Ry     beta=0.70
     Davidson diagonalization with overlap
     ethr =  5.54E-08,  avg # of iterations =  3.0

     total cpu time spent up to now is       28.4 secs

     total energy              =    -329.49072586 Ry
     Harris-Foulkes estimate   =    -329.49074107 Ry
     estimated scf accuracy    <       0.00003231 Ry

     iteration #  3     ecut=    30.00 Ry     beta=0.70
     Davidson diagonalization with overlap
     ethr =  5.54E-08,  avg # of iterations =  2.0

     total cpu time spent up to now is       28.7 secs

     total energy              =    -329.49073229 Ry
     Harris-Foulkes estimate   =    -329.49073567 Ry
     estimated scf accuracy    <       0.00000884 Ry

     iteration #  4     ecut=    30.00 Ry     beta=0.70
     Davidson diagonalization with overlap
     ethr =  1.61E-08,  avg # of iterations =  2.0

     total cpu time spent up to now is       28.9 secs

     total energy              =    -329.49073454 Ry
     Harris-Foulkes estimate   =    -329.49073467 Ry
     estimated scf accuracy    <       0.00000143 Ry

     iteration #  5     ecut=    30.00 Ry     beta=0.70
     Davidson diagonalization with overlap
     ethr =  2.61E-09,  avg # of iterations =  2.0

     total cpu time spent up to now is       29.1 secs

     total energy              =    -329.49073477 Ry
     Harris-Foulkes estimate   =    -329.49073484 Ry
     estimated scf accuracy    <       0.00000011 Ry

     iteration #  6     ecut=    30.00 Ry     beta=0.70
     Davidson diagonalization with overlap
     ethr =  2.07E-10,  avg # of iterations =  2.0

     total cpu time spent up to now is       29.3 secs

     total energy              =    -329.49073477 Ry
     Harris-Foulkes estimate   =    -329.49073480 Ry
     estimated scf accuracy    <       0.00000002 Ry

     iteration #  7     ecut=    30.00 Ry     beta=0.70
     Davidson diagonalization with overlap
     ethr =  2.80E-11,  avg # of iterations =  2.0

     total cpu time spent up to now is       29.5 secs

     total energy              =    -329.49073478 Ry
     Harris-Foulkes estimate   =    -329.49073478 Ry
     estimated scf accuracy    <          3.1E-09 Ry

     iteration #  8     ecut=    30.00 Ry     beta=0.70
     Davidson diagonalization with overlap
     ethr =  5.65E-12,  avg # of iterations =  2.0

     total cpu time spent up to now is       29.8 secs

     total energy              =    -329.49073474 Ry
     Harris-Foulkes estimate   =    -329.49073478 Ry
     estimated scf accuracy    <          6.8E-10 Ry

     iteration #  9     ecut=    30.00 Ry     beta=0.70
     Davidson diagonalization with overlap
     ethr =  1.23E-12,  avg # of iterations =  2.0

     total cpu time spent up to now is       30.0 secs

     total energy              =    -329.49073474 Ry
     Harris-Foulkes estimate   =    -329.49073474 Ry
     estimated scf accuracy    <          2.0E-10 Ry

     iteration # 10     ecut=    30.00 Ry     beta=0.70
     Davidson diagonalization with overlap
     ethr =  3.71E-13,  avg # of iterations =  2.0

     total cpu time spent up to now is       30.2 secs

     End of self-consistent calculation

          k = 0.0000 0.0000 0.0000 ( 22119 PWs)   bands (ev):

    -8.5193  -7.7956  -7.6489  -7.2390  -6.8672  -6.8177  -6.6389  -6.4843
    -6.2993  -6.0727  -5.9764  -5.7748  -5.7374  -5.6889  -5.4568  -5.3721
    -5.3154  -5.2444  -5.2023  -5.1844  -5.1771  -5.1261  -4.9991  -4.9283
    -4.8443  -4.7287  -4.4741  -3.7804  -2.5342  -2.1828  -0.5750  -0.2021
     0.5395   0.9270

     the Fermi energy is    -3.7487 ev

!    total energy              =    -329.49073474 Ry
     Harris-Foulkes estimate   =    -329.49073474 Ry
     estimated scf accuracy    <          1.9E-11 Ry

     The total energy is the sum of the following terms:

     one-electron contribution =    -610.79832974 Ry
     hartree contribution      =     326.82595388 Ry
     xc contribution           =     -51.40538650 Ry
     ewald contribution        =       5.89119073 Ry
     smearing contrib. (-TS)   =      -0.00416310 Ry

     convergence has been achieved in  10 iterations

     Forces acting on atoms (Ry/au):

     atom    1 type  1   force =    -0.00181462   -0.00134244   -0.00151753
     atom    2 type  1   force =     0.00143020    0.00121892   -0.00026429
     atom    3 type  1   force =     0.00276352   -0.00026564    0.00030003
     atom    4 type  1   force =    -0.00112647   -0.00010487    0.00089302
     atom    5 type  1   force =    -0.00125263    0.00049403    0.00058877

     Total force =     0.004799     Total SCF correction =     0.000018

     number of scf cycles    =  12
     number of bfgs steps    =  11

     energy   old            =    -329.4907049776 Ry
     energy   new            =    -329.4907347419 Ry

     CASE: energy  _new < energy  _old

     new trust radius        =       0.0100962760 bohr
     new conv_thr            =            1.0E-10 Ry


ATOMIC_POSITIONS (bohr)
Au      -1.871216079   1.651247780  -0.582022815
Au      -0.831187807   3.068257913   4.258838962
Au       3.017596835   1.751476179   0.596061606
Au       4.170959996   3.629670790   5.532836684
Au       7.795564055   2.128081338   2.200438563



     Writing output data file pwscf.save
     Check: negative starting charge=   -0.006509
     NEW-OLD atomic charge density approx. for the potential
     Check: negative starting charge=   -0.006504

     negative rho (up, down):  9.386E-06 0.000E+00

     total cpu time spent up to now is       30.4 secs

     per-process dynamical memory:    50.7 Mb

     Self-consistent Calculation

     iteration #  1     ecut=    30.00 Ry     beta=0.70
     Davidson diagonalization with overlap
     ethr =  1.00E-06,  avg # of iterations =  4.0

     Threshold (ethr) on eigenvalues was too large:
     Diagonalizing with lowered threshold

     Davidson diagonalization with overlap
     ethr =  3.81E-08,  avg # of iterations =  1.0

     total cpu time spent up to now is       30.9 secs

     total energy              =    -329.49075248 Ry
     Harris-Foulkes estimate   =    -329.49075856 Ry
     estimated scf accuracy    <       0.00002156 Ry

     iteration #  2     ecut=    30.00 Ry     beta=0.70
     Davidson diagonalization with overlap
     ethr =  3.92E-08,  avg # of iterations =  3.0

     total cpu time spent up to now is       31.1 secs

     total energy              =    -329.49075533 Ry
     Harris-Foulkes estimate   =    -329.49076444 Ry
     estimated scf accuracy    <       0.00001949 Ry

     iteration #  3     ecut=    30.00 Ry     beta=0.70
     Davidson diagonalization with overlap
     ethr =  3.54E-08,  avg # of iterations =  2.0

     total cpu time spent up to now is       31.3 secs

     total energy              =    -329.49075920 Ry
     Harris-Foulkes estimate   =    -329.49076110 Ry
     estimated scf accuracy    <       0.00000475 Ry

     iteration #  4     ecut=    30.00 Ry     beta=0.70
     Davidson diagonalization with overlap
     ethr =  8.64E-09,  avg # of iterations =  2.0

     total cpu time spent up to now is       31.5 secs

     total energy              =    -329.49076057 Ry
     Harris-Foulkes estimate   =    -329.49076071 Ry
     estimated scf accuracy    <       0.00000129 Ry

     iteration #  5     ecut=    30.00 Ry     beta=0.70
     Davidson diagonalization with overlap
     ethr =  2.34E-09,  avg # of iterations =  2.0

     total cpu time spent up to now is       31.7 secs

     total energy              =    -329.49076086 Ry
     Harris-Foulkes estimate   =    -329.49076082 Ry
     estimated scf accuracy    <       0.00000006 Ry

     iteration #  6     ecut=    30.00 Ry     beta=0.70
     Davidson diagonalization with overlap
     ethr =  1.18E-10,  avg # of iterations =  3.0

     total cpu time spent up to now is       32.0 secs

     total energy              =    -329.49076089 Ry
     Harris-Foulkes estimate   =    -329.49076088 Ry
     estimated scf accuracy    <          9.3E-09 Ry

     iteration #  7     ecut=    30.00 Ry     beta=0.70
     Davidson diagonalization with overlap
     ethr =  1.68E-11,  avg # of iterations =  3.0

     total cpu time spent up to now is       32.2 secs

     total energy              =    -329.49076088 Ry
     Harris-Foulkes estimate   =    -329.49076089 Ry
     estimated scf accuracy    <          2.6E-09 Ry

     iteration #  8     ecut=    30.00 Ry     beta=0.70
     Davidson diagonalization with overlap
     ethr =  4.73E-12,  avg # of iterations =  2.0

     total cpu time spent up to now is       32.4 secs

     total energy              =    -329.49076088 Ry
     Harris-Foulkes estimate   =    -329.49076088 Ry
     estimated scf accuracy    <          3.7E-10 Ry

     iteration #  9     ecut=    30.00 Ry     beta=0.70
     Davidson diagonalization with overlap
     ethr =  6.74E-13,  avg # of iterations =  2.0

     total cpu time spent up to now is       32.6 secs

     total energy              =    -329.49076089 Ry
     Harris-Foulkes estimate   =    -329.49076088 Ry
     estimated scf accuracy    <          1.1E-10 Ry

[...]

     total cpu time spent up to now is       43.9 secs

     per-process dynamical memory:    50.7 Mb

     Self-consistent Calculation

     iteration #  1     ecut=    30.00 Ry     beta=0.70
     Davidson diagonalization with overlap
     ethr =  1.00E-06,  avg # of iterations =  5.0

     negative rho (up, down):  1.121E-05 0.000E+00

     total cpu time spent up to now is       44.3 secs

     total energy              =    -329.49087364 Ry
     Harris-Foulkes estimate   =    -329.49082448 Ry
     estimated scf accuracy    <       0.00027812 Ry

     iteration #  2     ecut=    30.00 Ry     beta=0.70
     Davidson diagonalization with overlap
     ethr =  5.06E-07,  avg # of iterations =  3.0

     negative rho (up, down):  1.408E-06 0.000E+00

     total cpu time spent up to now is       44.5 secs

     total energy              =    -329.49091469 Ry
     Harris-Foulkes estimate   =    -329.49103115 Ry
     estimated scf accuracy    <       0.00024444 Ry

     iteration #  3     ecut=    30.00 Ry     beta=0.70
     Davidson diagonalization with overlap
     ethr =  4.44E-07,  avg # of iterations =  2.0

     negative rho (up, down):  3.705E-08 0.000E+00

     total cpu time spent up to now is       44.7 secs

     total energy              =    -329.49096322 Ry
     Harris-Foulkes estimate   =    -329.49098635 Ry
     estimated scf accuracy    <       0.00005773 Ry

     iteration #  4     ecut=    30.00 Ry     beta=0.70
     Davidson diagonalization with overlap
     ethr =  1.05E-07,  avg # of iterations =  2.0

     total cpu time spent up to now is       45.0 secs

     total energy              =    -329.49097685 Ry
     Harris-Foulkes estimate   =    -329.49098217 Ry
     estimated scf accuracy    <       0.00001738 Ry

     iteration #  5     ecut=    30.00 Ry     beta=0.70
     Davidson diagonalization with overlap
     ethr =  3.16E-08,  avg # of iterations =  1.0

     total cpu time spent up to now is       45.1 secs

     total energy              =    -329.49097963 Ry
     Harris-Foulkes estimate   =    -329.49097995 Ry
     estimated scf accuracy    <       0.00000075 Ry

     iteration #  6     ecut=    30.00 Ry     beta=0.70
     Davidson diagonalization with overlap
     ethr =  1.36E-09,  avg # of iterations =  3.0

     total cpu time spent up to now is       45.4 secs

     total energy              =    -329.49097993 Ry
     Harris-Foulkes estimate   =    -329.49097995 Ry
     estimated scf accuracy    <       0.00000016 Ry

     iteration #  7     ecut=    30.00 Ry     beta=0.70
     Davidson diagonalization with overlap
     ethr =  2.88E-10,  avg # of iterations =  2.0

     total cpu time spent up to now is       45.6 secs

     total energy              =    -329.49097999 Ry
     Harris-Foulkes estimate   =    -329.49097999 Ry
     estimated scf accuracy    <       0.00000006 Ry

     iteration #  8     ecut=    30.00 Ry     beta=0.70
     Davidson diagonalization with overlap
     ethr =  1.09E-10,  avg # of iterations =  2.0

     total cpu time spent up to now is       45.8 secs

     total energy              =    -329.49097997 Ry
     Harris-Foulkes estimate   =    -329.49098001 Ry
     estimated scf accuracy    <          7.8E-09 Ry

     iteration #  9     ecut=    30.00 Ry     beta=0.70
     Davidson diagonalization with overlap
     ethr =  1.41E-11,  avg # of iterations =  2.0

     total cpu time spent up to now is       46.0 secs

     total energy              =    -329.49097996 Ry
     Harris-Foulkes estimate   =    -329.49097997 Ry
     estimated scf accuracy    <          1.6E-09 Ry

     iteration # 10     ecut=    30.00 Ry     beta=0.70
     Davidson diagonalization with overlap
     ethr =  2.92E-12,  avg # of iterations =  2.0

     total cpu time spent up to now is       46.3 secs

     total energy              =    -329.49097999 Ry
     Harris-Foulkes estimate   =    -329.49097996 Ry
     estimated scf accuracy    <          1.2E-10 Ry

     iteration # 11     ecut=    30.00 Ry     beta=0.70
     Davidson diagonalization with overlap
     ethr =  2.25E-13,  avg # of iterations =  3.0

     total cpu time spent up to now is       46.5 secs

     End of self-consistent calculation

          k = 0.0000 0.0000 0.0000 ( 22119 PWs)   bands (ev):

    -8.5072  -7.7729  -7.6381  -7.2174  -6.8575  -6.8170  -6.6132  -6.4698
    -6.2964  -6.0724  -5.9617  -5.7730  -5.7342  -5.6843  -5.4490  -5.3676
    -5.3179  -5.2412  -5.2042  -5.1881  -5.1706  -5.1272  -4.9954  -4.9247
    -4.8486  -4.7392  -4.4744  -3.7913  -2.5144  -2.2021  -0.5737  -0.2080
     0.5156   0.9396

     the Fermi energy is    -3.7610 ev

!    total energy              =    -329.49097999 Ry
     Harris-Foulkes estimate   =    -329.49097999 Ry
     estimated scf accuracy    <          1.7E-11 Ry

     The total energy is the sum of the following terms:

     one-electron contribution =    -609.45716738 Ry
     hartree contribution      =     326.16330460 Ry
     xc contribution           =     -51.40183592 Ry
     ewald contribution        =       5.20857867 Ry
     smearing contrib. (-TS)   =      -0.00385996 Ry

     convergence has been achieved in  11 iterations

     Forces acting on atoms (Ry/au):

     atom    1 type  1   force =     0.00046693    0.00051594    0.00163432
     atom    2 type  1   force =     0.00057335   -0.00026984   -0.00184117
     atom    3 type  1   force =    -0.00338022    0.00038102   -0.00022596
     atom    4 type  1   force =     0.00052670   -0.00081901   -0.00140894
     atom    5 type  1   force =     0.00181323    0.00019189    0.00184175

     Total force =     0.005312     Total SCF correction =     0.000020

     number of scf cycles    =  18
     number of bfgs steps    =  17

     energy   old            =    -329.4909533027 Ry
     energy   new            =    -329.4909799882 Ry

     CASE: energy  _new < energy  _old

     new trust radius        =       0.0076036306 bohr
     new conv_thr            =            1.0E-10 Ry


ATOMIC_POSITIONS (bohr)
Au      -1.874747932   1.571465752  -0.630452365
Au      -0.795099910   3.141423325   4.172638763
Au       3.029980797   1.739612353   0.598774744
Au       4.155203265   3.621866369   5.623694837
Au       7.766380781   2.154366202   2.241497022



     Writing output data file pwscf.save
     Check: negative starting charge=   -0.006463
     NEW-OLD atomic charge density approx. for the potential
     Check: negative starting charge=   -0.006466

     negative rho (up, down):  2.938E-06 0.000E+00

     total cpu time spent up to now is       46.7 secs

     per-process dynamical memory:    50.7 Mb

     Self-consistent Calculation

     iteration #  1     ecut=    30.00 Ry     beta=0.70
     Davidson diagonalization with overlap
     ethr =  1.00E-06,  avg # of iterations =  3.0

     Threshold (ethr) on eigenvalues was too large:
     Diagonalizing with lowered threshold

     Davidson diagonalization with overlap
     ethr =  2.25E-08,  avg # of iterations =  2.0

     total cpu time spent up to now is       47.2 secs

     total energy              =    -329.49099867 Ry
     Harris-Foulkes estimate   =    -329.49100245 Ry
     estimated scf accuracy    <       0.00001321 Ry

     iteration #  2     ecut=    30.00 Ry     beta=0.70
     Davidson diagonalization with overlap
     ethr =  2.40E-08,  avg # of iterations =  2.0

     total cpu time spent up to now is       47.4 secs

     total energy              =    -329.49099936 Ry
     Harris-Foulkes estimate   =    -329.49100748 Ry
     estimated scf accuracy    <       0.00001836 Ry

     iteration #  3     ecut=    30.00 Ry     beta=0.70
     Davidson diagonalization with overlap
     ethr =  2.40E-08,  avg # of iterations =  2.0

     total cpu time spent up to now is       47.6 secs

     total energy              =    -329.49100327 Ry
     Harris-Foulkes estimate   =    -329.49100469 Ry
     estimated scf accuracy    <       0.00000433 Ry

     iteration #  4     ecut=    30.00 Ry     beta=0.70
     Davidson diagonalization with overlap
     ethr =  7.87E-09,  avg # of iterations =  2.0

     total cpu time spent up to now is       47.8 secs

     total energy              =    -329.49100438 Ry
     Harris-Foulkes estimate   =    -329.49100429 Ry
     estimated scf accuracy    <       0.00000043 Ry

     iteration #  5     ecut=    30.00 Ry     beta=0.70
     Davidson diagonalization with overlap
     ethr =  7.73E-10,  avg # of iterations =  2.0

     total cpu time spent up to now is       48.0 secs

     total energy              =    -329.49100430 Ry
     Harris-Foulkes estimate   =    -329.49100449 Ry
     estimated scf accuracy    <       0.00000004 Ry

     iteration #  6     ecut=    30.00 Ry     beta=0.70
     Davidson diagonalization with overlap
     ethr =  7.00E-11,  avg # of iterations =  2.0

     total cpu time spent up to now is       48.2 secs

     total energy              =    -329.49100428 Ry
     Harris-Foulkes estimate   =    -329.49100431 Ry
     estimated scf accuracy    <          3.3E-09 Ry

     iteration #  7     ecut=    30.00 Ry     beta=0.70
     Davidson diagonalization with overlap
     ethr =  6.03E-12,  avg # of iterations =  3.0

     total cpu time spent up to now is       48.4 secs

     total energy              =    -329.49100430 Ry
     Harris-Foulkes estimate   =    -329.49100428 Ry
     estimated scf accuracy    <          1.9E-09 Ry

     iteration #  8     ecut=    30.00 Ry     beta=0.70
     Davidson diagonalization with overlap
     ethr =  3.50E-12,  avg # of iterations =  2.0

     total cpu time spent up to now is       48.7 secs

     total energy              =    -329.49100433 Ry
     Harris-Foulkes estimate   =    -329.49100430 Ry
     estimated scf accuracy    <          5.9E-10 Ry

     iteration #  9     ecut=    30.00 Ry     beta=0.70
     Davidson diagonalization with overlap
     ethr =  1.07E-12,  avg # of iterations =  2.0

     total cpu time spent up to now is       48.9 secs

     End of self-consistent calculation

          k = 0.0000 0.0000 0.0000 ( 22119 PWs)   bands (ev):

    -8.5077  -7.7757  -7.6414  -7.2222  -6.8586  -6.8166  -6.6166  -6.4721
    -6.2990  -6.0718  -5.9630  -5.7735  -5.7346  -5.6850  -5.4508  -5.3680
    -5.3178  -5.2415  -5.2037  -5.1873  -5.1720  -5.1269  -4.9968  -4.9238
    -4.8464  -4.7400  -4.4735  -3.7901  -2.5169  -2.1987  -0.5743  -0.2071
     0.5166   0.9389

     the Fermi energy is    -3.7596 ev

!    total energy              =    -329.49100430 Ry
     Harris-Foulkes estimate   =    -329.49100433 Ry
     estimated scf accuracy    <          6.8E-11 Ry

     The total energy is the sum of the following terms:

     one-electron contribution =    -609.64548990 Ry
     hartree contribution      =     326.25623650 Ry
     xc contribution           =     -51.40240924 Ry
     ewald contribution        =       5.30453711 Ry
     smearing contrib. (-TS)   =      -0.00387877 Ry

     convergence has been achieved in   9 iterations

     Forces acting on atoms (Ry/au):

     atom    1 type  1   force =    -0.00000543    0.00044580    0.00120066
     atom    2 type  1   force =     0.00044362   -0.00005872   -0.00159921
     atom    3 type  1   force =    -0.00218205    0.00029229   -0.00014352
     atom    4 type  1   force =     0.00052097   -0.00071061   -0.00087954
     atom    5 type  1   force =     0.00122289    0.00003123    0.00142162

     Total force =     0.003786     Total SCF correction =     0.000039

     number of scf cycles    =  19
     number of bfgs steps    =  18

     energy   old            =    -329.4909799882 Ry
     energy   new            =    -329.4910043013 Ry

     CASE: energy  _new < energy  _old

     new trust radius        =       0.0083639937 bohr
     new conv_thr            =            1.0E-10 Ry


ATOMIC_POSITIONS (bohr)
Au      -1.878198933   1.572304379  -0.626581207
Au      -0.789609010   3.142773492   4.167069552
Au       3.024695909   1.739591877   0.596080810
Au       4.154167219   3.618924237   5.620943269
Au       7.770661815   2.155140015   2.248640575



     Writing output data file pwscf.save
     Check: negative starting charge=   -0.006466
     NEW-OLD atomic charge density approx. for the potential
     Check: negative starting charge=   -0.006467

     negative rho (up, down):  3.995E-06 0.000E+00

     total cpu time spent up to now is       49.1 secs

     per-process dynamical memory:    50.7 Mb

     Self-consistent Calculation

     iteration #  1     ecut=    30.00 Ry     beta=0.70
     Davidson diagonalization with overlap
     ethr =  1.00E-06,  avg # of iterations =  3.0

     Threshold (ethr) on eigenvalues was too large:
     Diagonalizing with lowered threshold

     Davidson diagonalization with overlap
     ethr =  1.87E-08,  avg # of iterations =  2.0

     total cpu time spent up to now is       49.6 secs

     total energy              =    -329.49102865 Ry
     Harris-Foulkes estimate   =    -329.49102601 Ry
     estimated scf accuracy    <       0.00001086 Ry

     iteration #  2     ecut=    30.00 Ry     beta=0.70
     Davidson diagonalization with overlap
     ethr =  1.98E-08,  avg # of iterations =  3.0

     total cpu time spent up to now is       49.8 secs

     total energy              =    -329.49102838 Ry
     Harris-Foulkes estimate   =    -329.49103553 Ry
     estimated scf accuracy    <       0.00001665 Ry

     iteration #  3     ecut=    30.00 Ry     beta=0.70
     Davidson diagonalization with overlap
     ethr =  1.98E-08,  avg # of iterations =  2.0

     total cpu time spent up to now is       50.1 secs

     total energy              =    -329.49103213 Ry
     Harris-Foulkes estimate   =    -329.49103319 Ry
     estimated scf accuracy    <       0.00000362 Ry

     iteration #  4     ecut=    30.00 Ry     beta=0.70
     Davidson diagonalization with overlap
     ethr =  6.58E-09,  avg # of iterations =  2.0

     total cpu time spent up to now is       50.3 secs

     total energy              =    -329.49103317 Ry
     Harris-Foulkes estimate   =    -329.49103302 Ry
     estimated scf accuracy    <       0.00000048 Ry

     iteration #  5     ecut=    30.00 Ry     beta=0.70
     Davidson diagonalization with overlap
     ethr =  8.79E-10,  avg # of iterations =  2.0

     total cpu time spent up to now is       50.5 secs

     total energy              =    -329.49103331 Ry
     Harris-Foulkes estimate   =    -329.49103330 Ry
     estimated scf accuracy    <       0.00000007 Ry

     iteration #  6     ecut=    30.00 Ry     beta=0.70
     Davidson diagonalization with overlap
     ethr =  1.31E-10,  avg # of iterations =  2.0

     total cpu time spent up to now is       50.7 secs

     total energy              =    -329.49103324 Ry
     Harris-Foulkes estimate   =    -329.49103332 Ry
     estimated scf accuracy    <          6.3E-09 Ry

     iteration #  7     ecut=    30.00 Ry     beta=0.70
     Davidson diagonalization with overlap
     ethr =  1.15E-11,  avg # of iterations =  2.0

     total cpu time spent up to now is       50.9 secs

     total energy              =    -329.49103327 Ry
     Harris-Foulkes estimate   =    -329.49103324 Ry
     estimated scf accuracy    <          1.7E-09 Ry

     iteration #  8     ecut=    30.00 Ry     beta=0.70
     Davidson diagonalization with overlap
     ethr =  3.07E-12,  avg # of iterations =  2.0

     total cpu time spent up to now is       51.1 secs

     total energy              =    -329.49103325 Ry
     Harris-Foulkes estimate   =    -329.49103327 Ry
     estimated scf accuracy    <          2.1E-10 Ry

     iteration #  9     ecut=    30.00 Ry     beta=0.70
     Davidson diagonalization with overlap
     ethr =  3.89E-13,  avg # of iterations =  2.0

     total cpu time spent up to now is       51.4 secs

     End of self-consistent calculation

          k = 0.0000 0.0000 0.0000 ( 22119 PWs)   bands (ev):

    -8.5065  -7.7799  -7.6485  -7.2325  -6.8626  -6.8149  -6.6212  -6.4768
    -6.3059  -6.0694  -5.9649  -5.7734  -5.7343  -5.6859  -5.4545  -5.3689
    -5.3182  -5.2414  -5.2026  -5.1870  -5.1736  -5.1263  -5.0005  -4.9211
    -4.8445  -4.7401  -4.4719  -3.7879  -2.5216  -2.1924  -0.5754  -0.2055
     0.5150   0.9381

     the Fermi energy is    -3.7574 ev

!    total energy              =    -329.49103327 Ry
     Harris-Foulkes estimate   =    -329.49103325 Ry
     estimated scf accuracy    <          9.8E-11 Ry

     The total energy is the sum of the following terms:

     one-electron contribution =    -609.92304024 Ry
     hartree contribution      =     326.39278392 Ry
     xc contribution           =     -51.40327110 Ry
     ewald contribution        =       5.44639881 Ry
     smearing contrib. (-TS)   =      -0.00390466 Ry

     convergence has been achieved in   9 iterations

     Forces acting on atoms (Ry/au):

     atom    1 type  1   force =    -0.00056641    0.00024497    0.00035984
     atom    2 type  1   force =    -0.00030073    0.00007901   -0.00074521
     atom    3 type  1   force =     0.00006027    0.00025566    0.00009831
     atom    4 type  1   force =     0.00085731   -0.00049547   -0.00039787
     atom    5 type  1   force =    -0.00005044   -0.00008417    0.00068493

     Total force =     0.001691     Total SCF correction =     0.000034

     bfgs converged in  20 scf cycles and  19 bfgs steps
     (criteria: energy <  1.0E-04, force <  1.0E-03)

     End of BFGS Geometry Optimization

     Final energy   =    -329.4910332714 Ry
Begin final coordinates

ATOMIC_POSITIONS (bohr)
Au      -1.878198933   1.572304379  -0.626581207
Au      -0.789609010   3.142773492   4.167069552
Au       3.024695909   1.739591877   0.596080810
Au       4.154167219   3.618924237   5.620943269
Au       7.770661815   2.155140015   2.248640575
End final coordinates



     Writing output data file pwscf.save
 
     init_run     :      0.16s CPU      0.18s WALL (       1 calls)
     electrons    :     44.43s CPU     47.50s WALL (      20 calls)
     update_pot   :      1.23s CPU      1.50s WALL (      19 calls)
     forces       :      0.83s CPU      0.84s WALL (      20 calls)

     Called by init_run:
     wfcinit      :      0.07s CPU      0.08s WALL (       1 calls)
     potinit      :      0.03s CPU      0.03s WALL (       1 calls)

     Called by electrons:
     c_bands      :     33.90s CPU     34.33s WALL (     206 calls)
     sum_band     :      4.84s CPU      4.96s WALL (     206 calls)
     v_of_rho     :      3.75s CPU      3.80s WALL (     214 calls)
     mix_rho      :      1.44s CPU      3.08s WALL (     206 calls)

     Called by c_bands:
     init_us_2    :      0.63s CPU      0.66s WALL (     413 calls)
     cegterg      :     30.19s CPU     30.46s WALL (     206 calls)

     Called by sum_band:

     Called by *egterg:
     h_psi        :     23.69s CPU     23.86s WALL (     702 calls)
     g_psi        :      0.24s CPU      0.24s WALL (     495 calls)
     cdiaghg      :      1.61s CPU      1.63s WALL (     670 calls)

     Called by h_psi:
     h_psi:pot    :     23.35s CPU     23.51s WALL (     702 calls)
     h_psi:calbec :      1.30s CPU      1.31s WALL (     702 calls)
     vloc_psi     :     20.60s CPU     20.76s WALL (     702 calls)
     add_vuspsi   :      1.44s CPU      1.45s WALL (     702 calls)

     General routines
     calbec       :      1.54s CPU      1.56s WALL (     782 calls)
     fft          :      2.06s CPU      2.11s WALL (    2417 calls)
     fftw         :     21.67s CPU     21.99s WALL (   45506 calls)
     davcio       :      0.25s CPU      1.55s WALL (    2033 calls)
 
     Parallel routines
     fft_scatter  :      5.60s CPU      5.39s WALL (   47923 calls)
 
     PWSCF        :    47.22s CPU        51.58s WALL

 
   This run was terminated on:  19:11:14   3Aug2017            

=------------------------------------------------------------------------------=
   JOB DONE.
=------------------------------------------------------------------------------=
