
     Program PWSCF v.6.0 (svn rev. 13079) starts on  4Aug2017 at  1: 6:58 

     This program is part of the open-source Quantum ESPRESSO suite
     for quantum simulation of materials; please cite
         "P. Giannozzi et al., J. Phys.:Condens. Matter 21 395502 (2009);
          URL http://www.quantum-espresso.org", 
     in publications or presentations arising from this work. More details at
     http://www.quantum-espresso.org/quote

     Parallel version (MPI), running on    10 processors
     R & G space division:  proc/nbgrp/npool/nimage =      10
     Reading input from input/multi/minchecks-Gold5-622.in

     Current dimensions of program PWSCF are:
     Max number of different atomic species (ntypx) = 10
     Max number of k-points (npk) =  40000
     Max angular momentum in pseudopotentials (lmaxx) =  3
     Message from routine iosys:
     pot_extrapolation='second-order' not available, using 'atomic'
     Message from routine iosys:
     wfc_extrapolation='second-order' not available, using 'atomic'

     Subspace diagonalization in iterative solution of the eigenvalue problem:
     a serial algorithm will be used

 
     Parallelization info
     --------------------
     sticks:   dense  smooth     PW     G-vecs:    dense   smooth      PW
     Min         380     380     94                17748    17748    2208
     Max         381     381     95                17753    17753    2213
     Sum        3809    3809    949               177509   177509   22119
 


     bravais-lattice index     =            1
     lattice parameter (alat)  =      20.0000  a.u.
     unit-cell volume          =    8000.0000 (a.u.)^3
     number of atoms/cell      =            5
     number of atomic types    =            1
     number of electrons       =        55.00
     number of Kohn-Sham states=           34
     kinetic-energy cutoff     =      30.0000  Ry
     charge density cutoff     =     120.0000  Ry
     convergence threshold     =      1.0E-08
     mixing beta               =       0.7000
     number of iterations used =            8  plain     mixing
     Exchange-correlation      = BLYP ( 1  3  1  3 0 0)
     nstep                     =           50


     celldm(1)=  20.000000  celldm(2)=   0.000000  celldm(3)=   0.000000
     celldm(4)=   0.000000  celldm(5)=   0.000000  celldm(6)=   0.000000

     crystal axes: (cart. coord. in units of alat)
               a(1) = (   1.000000   0.000000   0.000000 )  
               a(2) = (   0.000000   1.000000   0.000000 )  
               a(3) = (   0.000000   0.000000   1.000000 )  

     reciprocal axes: (cart. coord. in units 2 pi/alat)
               b(1) = (  1.000000  0.000000  0.000000 )  
               b(2) = (  0.000000  1.000000  0.000000 )  
               b(3) = (  0.000000  0.000000  1.000000 )  


     PseudoPot. # 1 for Au read from file:
     ./Au.blyp-d-hgh.UPF
     MD5 check sum: c10d8bae01f806c36a1643a1c69a8479
     Pseudo is Norm-conserving, Zval = 11.0
     Generated in analytical, separable form
     Using radial grid of 1279 points,  6 beta functions with: 
                l(1) =   0
                l(2) =   0
                l(3) =   1
                l(4) =   1
                l(5) =   2
                l(6) =   2

     atomic species   valence    mass     pseudopotential
        Au            11.00    28.08600     Au( 1.00)

     No symmetry found



   Cartesian axes

     site n.     atom                  positions (alat units)
         1           Au  tau(   1) = (  -0.1275769   0.1726527  -0.0164571  )
         2           Au  tau(   2) = (  -0.0243141   0.2494592   0.2044759  )
         3           Au  tau(   3) = (   0.1395282   0.1116313   0.0161423  )
         4           Au  tau(   4) = (   0.2210921   0.2181043   0.2710114  )
         5           Au  tau(   5) = (   0.3626514   0.0606696   0.1353022  )

     number of k points=     1  Marzari-Vanderbilt smearing, width (Ry)=  0.0250
                       cart. coord. in units 2pi/alat
        k(    1) = (   0.0000000   0.0000000   0.0000000), wk =   2.0000000

     Dense  grid:   177509 G-vectors     FFT dimensions: (  72,  72,  72)

     Estimated max dynamical RAM per process >      15.04Mb

     Estimated total allocated dynamical RAM >     150.39Mb

     Initial potential from superposition of free atoms
     Check: negative starting charge=   -0.006191

     starting charge   54.99940, renormalised to   55.00000

     negative rho (up, down):  6.191E-03 0.000E+00
     Starting wfc are   45 randomized atomic wfcs

     total cpu time spent up to now is        0.3 secs

     per-process dynamical memory:    41.0 Mb

     Self-consistent Calculation

     iteration #  1     ecut=    30.00 Ry     beta=0.70
     Davidson diagonalization with overlap
     ethr =  1.00E-02,  avg # of iterations =  3.0

     Threshold (ethr) on eigenvalues was too large:
     Diagonalizing with lowered threshold

     Davidson diagonalization with overlap
     ethr =  3.96E-04,  avg # of iterations =  7.0

     negative rho (up, down):  8.239E-04 0.000E+00

     total cpu time spent up to now is        0.7 secs

     total energy              =    -329.36646392 Ry
     Harris-Foulkes estimate   =    -329.53070768 Ry
     estimated scf accuracy    <       0.27266685 Ry

     iteration #  2     ecut=    30.00 Ry     beta=0.70
     Davidson diagonalization with overlap
     ethr =  4.96E-04,  avg # of iterations =  3.0

     negative rho (up, down):  3.814E-04 0.000E+00

     total cpu time spent up to now is        1.0 secs

     total energy              =    -329.39453634 Ry
     Harris-Foulkes estimate   =    -329.55645337 Ry
     estimated scf accuracy    <       0.34019929 Ry

     iteration #  3     ecut=    30.00 Ry     beta=0.70
     Davidson diagonalization with overlap
     ethr =  4.96E-04,  avg # of iterations =  2.0

     negative rho (up, down):  1.426E-04 0.000E+00

     total cpu time spent up to now is        1.2 secs

     total energy              =    -329.46259212 Ry
     Harris-Foulkes estimate   =    -329.49097056 Ry
     estimated scf accuracy    <       0.07455440 Ry

     iteration #  4     ecut=    30.00 Ry     beta=0.70
     Davidson diagonalization with overlap
     ethr =  1.36E-04,  avg # of iterations =  2.0

     negative rho (up, down):  1.289E-05 0.000E+00

     total cpu time spent up to now is        1.4 secs

     total energy              =    -329.47572210 Ry
     Harris-Foulkes estimate   =    -329.47744341 Ry
     estimated scf accuracy    <       0.00408458 Ry

     iteration #  5     ecut=    30.00 Ry     beta=0.70
     Davidson diagonalization with overlap
     ethr =  7.43E-06,  avg # of iterations =  5.0

     total cpu time spent up to now is        1.7 secs

     total energy              =    -329.47669113 Ry
     Harris-Foulkes estimate   =    -329.47770787 Ry
     estimated scf accuracy    <       0.00281174 Ry

     iteration #  6     ecut=    30.00 Ry     beta=0.70
     Davidson diagonalization with overlap
     ethr =  5.11E-06,  avg # of iterations =  2.0

     total cpu time spent up to now is        1.9 secs

     total energy              =    -329.47712824 Ry
     Harris-Foulkes estimate   =    -329.47731934 Ry
     estimated scf accuracy    <       0.00046592 Ry

     iteration #  7     ecut=    30.00 Ry     beta=0.70
     Davidson diagonalization with overlap
     ethr =  8.47E-07,  avg # of iterations =  2.0

     total cpu time spent up to now is        2.1 secs

     total energy              =    -329.47721886 Ry
     Harris-Foulkes estimate   =    -329.47723698 Ry
     estimated scf accuracy    <       0.00004375 Ry

     iteration #  8     ecut=    30.00 Ry     beta=0.70
     Davidson diagonalization with overlap
     ethr =  7.95E-08,  avg # of iterations =  2.0

     total cpu time spent up to now is        2.3 secs

     total energy              =    -329.47722839 Ry
     Harris-Foulkes estimate   =    -329.47723416 Ry
     estimated scf accuracy    <       0.00001244 Ry

     iteration #  9     ecut=    30.00 Ry     beta=0.70
     Davidson diagonalization with overlap
     ethr =  2.26E-08,  avg # of iterations =  2.0

     total cpu time spent up to now is        2.5 secs

     total energy              =    -329.47723059 Ry
     Harris-Foulkes estimate   =    -329.47723155 Ry
     estimated scf accuracy    <       0.00000135 Ry

     iteration # 10     ecut=    30.00 Ry     beta=0.70
     Davidson diagonalization with overlap
     ethr =  2.46E-09,  avg # of iterations =  2.0

     total cpu time spent up to now is        2.8 secs

     total energy              =    -329.47723075 Ry
     Harris-Foulkes estimate   =    -329.47723102 Ry
     estimated scf accuracy    <       0.00000028 Ry

     iteration # 11     ecut=    30.00 Ry     beta=0.70
     Davidson diagonalization with overlap
     ethr =  5.01E-10,  avg # of iterations =  2.0

     total cpu time spent up to now is        3.0 secs

     total energy              =    -329.47723076 Ry
     Harris-Foulkes estimate   =    -329.47723082 Ry
     estimated scf accuracy    <       0.00000002 Ry

     iteration # 12     ecut=    30.00 Ry     beta=0.70
     Davidson diagonalization with overlap
     ethr =  4.40E-11,  avg # of iterations =  3.0

     total cpu time spent up to now is        3.2 secs

     End of self-consistent calculation

          k = 0.0000 0.0000 0.0000 ( 22119 PWs)   bands (ev):

    -8.0575  -7.5259  -7.5021  -7.1247  -6.8347  -6.6743  -6.5692  -6.3733
    -6.2252  -6.0255  -5.8137  -5.6299  -5.6144  -5.5567  -5.4384  -5.4134
    -5.3404  -5.2141  -5.1992  -5.1705  -5.1389  -5.1119  -5.0523  -4.8909
    -4.8313  -4.7623  -4.4112  -3.7982  -2.7479  -2.0943  -0.4796  -0.1997
     0.4281   0.6291

     the Fermi energy is    -3.7779 ev

!    total energy              =    -329.47723071 Ry
     Harris-Foulkes estimate   =    -329.47723077 Ry
     estimated scf accuracy    <          9.1E-09 Ry

     The total energy is the sum of the following terms:

     one-electron contribution =    -592.89040217 Ry
     hartree contribution      =     317.99459716 Ry
     xc contribution           =     -51.36424381 Ry
     ewald contribution        =      -3.21536363 Ry
     smearing contrib. (-TS)   =      -0.00181827 Ry

     convergence has been achieved in  12 iterations

     Forces acting on atoms (Ry/au):

     atom    1 type  1   force =     0.03168277   -0.00540476    0.00291603
     atom    2 type  1   force =     0.00067839   -0.00465422   -0.01146214
     atom    3 type  1   force =    -0.02398771    0.01128807    0.02150081
     atom    4 type  1   force =    -0.00328257    0.00375443   -0.00017215
     atom    5 type  1   force =    -0.00509088   -0.00498352   -0.01278255

     Total force =     0.050982     Total SCF correction =     0.000389

     BFGS Geometry Optimization

     number of scf cycles    =   1
     number of bfgs steps    =   0

     energy   new            =    -329.4772307101 Ry

     new trust radius        =       0.0341337906 bohr
     new conv_thr            =       0.0000000100 Ry


ATOMIC_POSITIONS (bohr)
Au      -2.519856233   3.447649243  -0.326224972
Au      -0.485602605   4.984530781   4.078055865
Au       2.766577291   2.243914068   0.344347814
Au       4.418560431   4.365840427   5.420056847
Au       7.247938116   1.208407480   2.693260447



     Writing output data file pwscf.save
     Check: negative starting charge=   -0.006191
     NEW-OLD atomic charge density approx. for the potential
     Check: negative starting charge=   -0.006192

     negative rho (up, down):  2.083E-04 0.000E+00

     total cpu time spent up to now is        3.4 secs

     per-process dynamical memory:    42.9 Mb

     Self-consistent Calculation

     iteration #  1     ecut=    30.00 Ry     beta=0.70
     Davidson diagonalization with overlap
     ethr =  1.00E-06,  avg # of iterations =  4.0

     negative rho (up, down):  3.995E-06 0.000E+00

     total cpu time spent up to now is        3.8 secs

     total energy              =    -329.47960369 Ry
     Harris-Foulkes estimate   =    -329.47959775 Ry
     estimated scf accuracy    <       0.00017137 Ry

     iteration #  2     ecut=    30.00 Ry     beta=0.70
     Davidson diagonalization with overlap
     ethr =  3.12E-07,  avg # of iterations =  3.0

     negative rho (up, down):  1.066E-06 0.000E+00

     total cpu time spent up to now is        4.0 secs

     total energy              =    -329.47956775 Ry
     Harris-Foulkes estimate   =    -329.47977188 Ry
     estimated scf accuracy    <       0.00054669 Ry

     iteration #  3     ecut=    30.00 Ry     beta=0.70
     Davidson diagonalization with overlap
     ethr =  3.12E-07,  avg # of iterations =  2.0

     total cpu time spent up to now is        4.3 secs

     total energy              =    -329.47967284 Ry
     Harris-Foulkes estimate   =    -329.47968370 Ry
     estimated scf accuracy    <       0.00004167 Ry

     iteration #  4     ecut=    30.00 Ry     beta=0.70
     Davidson diagonalization with overlap
     ethr =  7.58E-08,  avg # of iterations =  2.0

     total cpu time spent up to now is        4.5 secs

     total energy              =    -329.47968032 Ry
     Harris-Foulkes estimate   =    -329.47968271 Ry
     estimated scf accuracy    <       0.00000575 Ry

     iteration #  5     ecut=    30.00 Ry     beta=0.70
     Davidson diagonalization with overlap
     ethr =  1.05E-08,  avg # of iterations =  2.0

     total cpu time spent up to now is        4.7 secs

     total energy              =    -329.47968112 Ry
     Harris-Foulkes estimate   =    -329.47968195 Ry
     estimated scf accuracy    <       0.00000113 Ry

     iteration #  6     ecut=    30.00 Ry     beta=0.70
     Davidson diagonalization with overlap
     ethr =  2.06E-09,  avg # of iterations =  2.0

     total cpu time spent up to now is        4.9 secs

     total energy              =    -329.47968117 Ry
     Harris-Foulkes estimate   =    -329.47968143 Ry
     estimated scf accuracy    <       0.00000021 Ry

     iteration #  7     ecut=    30.00 Ry     beta=0.70
     Davidson diagonalization with overlap
     ethr =  3.82E-10,  avg # of iterations =  2.0

     total cpu time spent up to now is        5.1 secs

     total energy              =    -329.47968123 Ry
     Harris-Foulkes estimate   =    -329.47968123 Ry
     estimated scf accuracy    <       0.00000004 Ry

     iteration #  8     ecut=    30.00 Ry     beta=0.70
     Davidson diagonalization with overlap
     ethr =  6.98E-11,  avg # of iterations =  2.0

     total cpu time spent up to now is        5.3 secs

     End of self-consistent calculation

          k = 0.0000 0.0000 0.0000 ( 22119 PWs)   bands (ev):

    -8.0833  -7.5538  -7.5233  -7.1488  -6.8539  -6.6868  -6.5721  -6.3939
    -6.2460  -6.0308  -5.8288  -5.6420  -5.6337  -5.5688  -5.4403  -5.4150
    -5.3387  -5.2181  -5.1966  -5.1695  -5.1468  -5.1119  -5.0600  -4.8883
    -4.8343  -4.7549  -4.4145  -3.7911  -2.7260  -2.0921  -0.4844  -0.1969
     0.4363   0.6331

     the Fermi energy is    -3.7691 ev

!    total energy              =    -329.47968117 Ry
     Harris-Foulkes estimate   =    -329.47968124 Ry
     estimated scf accuracy    <          2.2E-09 Ry

     The total energy is the sum of the following terms:

     one-electron contribution =    -594.81181040 Ry
     hartree contribution      =     318.94101882 Ry
     xc contribution           =     -51.36875273 Ry
     ewald contribution        =      -2.23798065 Ry
     smearing contrib. (-TS)   =      -0.00215621 Ry

     convergence has been achieved in   8 iterations

     Forces acting on atoms (Ry/au):

     atom    1 type  1   force =     0.02785648   -0.00606421    0.00005366
     atom    2 type  1   force =     0.00115596   -0.00285844   -0.00774203
     atom    3 type  1   force =    -0.02123448    0.00978198    0.01997828
     atom    4 type  1   force =    -0.00196350    0.00323287   -0.00012407
     atom    5 type  1   force =    -0.00581446   -0.00409221   -0.01216585

     Total force =     0.045175     Total SCF correction =     0.000216

     number of scf cycles    =   2
     number of bfgs steps    =   1

     energy   old            =    -329.4772307101 Ry
     energy   new            =    -329.4796811673 Ry

     CASE: energy  _new < energy  _old


     WARNING: bfgs curvature condition failed, Theta= 0.907
     new trust radius        =       0.0375471697 bohr
     new conv_thr            =       0.0000000025 Ry


ATOMIC_POSITIONS (bohr)
Au      -2.485695789   3.440501090  -0.325607464
Au      -0.484308017   4.980754327   4.068048418
Au       2.740569009   2.255941122   0.368611144
Au       4.415949804   4.369819877   5.419898704
Au       7.241101992   1.203325584   2.678545198



     Writing output data file pwscf.save
     Check: negative starting charge=   -0.006192
     NEW-OLD atomic charge density approx. for the potential
     Check: negative starting charge=   -0.006200

     negative rho (up, down):  2.517E-04 0.000E+00

     total cpu time spent up to now is        5.5 secs

     per-process dynamical memory:    50.7 Mb

     Self-consistent Calculation

     iteration #  1     ecut=    30.00 Ry     beta=0.70
     Davidson diagonalization with overlap
     ethr =  1.00E-06,  avg # of iterations =  4.0

     negative rho (up, down):  5.818E-06 0.000E+00

     total cpu time spent up to now is        5.9 secs

     total energy              =    -329.48189196 Ry
     Harris-Foulkes estimate   =    -329.48186973 Ry
     estimated scf accuracy    <       0.00019191 Ry

     iteration #  2     ecut=    30.00 Ry     beta=0.70
     Davidson diagonalization with overlap
     ethr =  3.49E-07,  avg # of iterations =  3.0

     negative rho (up, down):  1.540E-06 0.000E+00

     total cpu time spent up to now is        6.1 secs

     total energy              =    -329.48185831 Ry
     Harris-Foulkes estimate   =    -329.48206505 Ry
     estimated scf accuracy    <       0.00053698 Ry

     iteration #  3     ecut=    30.00 Ry     beta=0.70
     Davidson diagonalization with overlap
     ethr =  3.49E-07,  avg # of iterations =  2.0

     negative rho (up, down):  1.302E-08 0.000E+00

     total cpu time spent up to now is        6.3 secs

     total energy              =    -329.48196468 Ry
     Harris-Foulkes estimate   =    -329.48198027 Ry
     estimated scf accuracy    <       0.00005445 Ry

     iteration #  4     ecut=    30.00 Ry     beta=0.70
     Davidson diagonalization with overlap
     ethr =  9.90E-08,  avg # of iterations =  2.0

     total cpu time spent up to now is        6.5 secs

     total energy              =    -329.48197493 Ry
     Harris-Foulkes estimate   =    -329.48197702 Ry
     estimated scf accuracy    <       0.00000635 Ry

     iteration #  5     ecut=    30.00 Ry     beta=0.70
     Davidson diagonalization with overlap
     ethr =  1.15E-08,  avg # of iterations =  2.0

     total cpu time spent up to now is        6.7 secs

     total energy              =    -329.48197593 Ry
     Harris-Foulkes estimate   =    -329.48197674 Ry
     estimated scf accuracy    <       0.00000124 Ry

     iteration #  6     ecut=    30.00 Ry     beta=0.70
     Davidson diagonalization with overlap
     ethr =  2.26E-09,  avg # of iterations =  2.0

     total cpu time spent up to now is        6.9 secs

     total energy              =    -329.48197603 Ry
     Harris-Foulkes estimate   =    -329.48197628 Ry
     estimated scf accuracy    <       0.00000023 Ry

     iteration #  7     ecut=    30.00 Ry     beta=0.70
     Davidson diagonalization with overlap
     ethr =  4.09E-10,  avg # of iterations =  2.0

     total cpu time spent up to now is        7.2 secs

     total energy              =    -329.48197614 Ry
     Harris-Foulkes estimate   =    -329.48197610 Ry
     estimated scf accuracy    <       0.00000005 Ry

     iteration #  8     ecut=    30.00 Ry     beta=0.70
     Davidson diagonalization with overlap
     ethr =  8.71E-11,  avg # of iterations =  2.0

     total cpu time spent up to now is        7.4 secs

     total energy              =    -329.48197614 Ry
     Harris-Foulkes estimate   =    -329.48197615 Ry
     estimated scf accuracy    <          2.7E-09 Ry

     iteration #  9     ecut=    30.00 Ry     beta=0.70
     Davidson diagonalization with overlap
     ethr =  4.87E-12,  avg # of iterations =  3.0

     total cpu time spent up to now is        7.6 secs

     End of self-consistent calculation

          k = 0.0000 0.0000 0.0000 ( 22119 PWs)   bands (ev):

    -8.1180  -7.5876  -7.5428  -7.1739  -6.8738  -6.6970  -6.5816  -6.4147
    -6.2668  -6.0343  -5.8458  -5.6580  -5.6508  -5.5810  -5.4420  -5.4157
    -5.3363  -5.2217  -5.1934  -5.1682  -5.1553  -5.1112  -5.0656  -4.8862
    -4.8375  -4.7457  -4.4177  -3.7842  -2.7012  -2.0906  -0.4896  -0.1942
     0.4452   0.6384

     the Fermi energy is    -3.7605 ev

!    total energy              =    -329.48197610 Ry
     Harris-Foulkes estimate   =    -329.48197614 Ry
     estimated scf accuracy    <          6.1E-10 Ry

     The total energy is the sum of the following terms:

     one-electron contribution =    -596.85606632 Ry
     hartree contribution      =     319.94725413 Ry
     xc contribution           =     -51.37364837 Ry
     ewald contribution        =      -1.19703931 Ry
     smearing contrib. (-TS)   =      -0.00247622 Ry

     convergence has been achieved in   9 iterations

     Forces acting on atoms (Ry/au):

     atom    1 type  1   force =     0.02318068   -0.00650128   -0.00254698
     atom    2 type  1   force =     0.00135991   -0.00090422   -0.00389386
     atom    3 type  1   force =    -0.01724531    0.00768421    0.01762172
     atom    4 type  1   force =    -0.00077776    0.00286916    0.00023229
     atom    5 type  1   force =    -0.00651751   -0.00314787   -0.01141316

     Total force =     0.038242     Total SCF correction =     0.000113

     number of scf cycles    =   3
     number of bfgs steps    =   2

     energy   old            =    -329.4796811673 Ry
     energy   new            =    -329.4819761037 Ry

     CASE: energy  _new < energy  _old

     new trust radius        =       0.0563207545 bohr
     new conv_thr            =       0.0000000023 Ry


ATOMIC_POSITIONS (bohr)
Au      -2.434726266   3.427525376  -0.328783840
Au      -0.481764576   4.977470341   4.057159730
Au       2.702490429   2.273135597   0.406378844
Au       4.413398942   4.376064566   5.420223071
Au       7.228218472   1.196146121   2.654518195



     Writing output data file pwscf.save
     Check: negative starting charge=   -0.006200
     NEW-OLD atomic charge density approx. for the potential
     Check: negative starting charge=   -0.006216

     negative rho (up, down):  5.768E-04 0.000E+00

     total cpu time spent up to now is        7.8 secs

     per-process dynamical memory:    50.7 Mb

     Self-consistent Calculation

     iteration #  1     ecut=    30.00 Ry     beta=0.70
     Davidson diagonalization with overlap
     ethr =  1.00E-06,  avg # of iterations =  5.0

     negative rho (up, down):  2.697E-05 0.000E+00

     total cpu time spent up to now is        8.2 secs

     total energy              =    -329.48459467 Ry
     Harris-Foulkes estimate   =    -329.48435789 Ry
     estimated scf accuracy    <       0.00041236 Ry

     iteration #  2     ecut=    30.00 Ry     beta=0.70
     Davidson diagonalization with overlap
     ethr =  7.50E-07,  avg # of iterations =  4.0

     negative rho (up, down):  8.836E-06 0.000E+00

     total cpu time spent up to now is        8.4 secs

     total energy              =    -329.48453960 Ry
     Harris-Foulkes estimate   =    -329.48492783 Ry
     estimated scf accuracy    <       0.00096534 Ry

     iteration #  3     ecut=    30.00 Ry     beta=0.70
     Davidson diagonalization with overlap
     ethr =  7.50E-07,  avg # of iterations =  2.0

     negative rho (up, down):  2.119E-07 0.000E+00

     total cpu time spent up to now is        8.7 secs

     total energy              =    -329.48473879 Ry
     Harris-Foulkes estimate   =    -329.48478097 Ry
     estimated scf accuracy    <       0.00014071 Ry

     iteration #  4     ecut=    30.00 Ry     beta=0.70
     Davidson diagonalization with overlap
     ethr =  2.56E-07,  avg # of iterations =  2.0

     total cpu time spent up to now is        8.8 secs

     total energy              =    -329.48476551 Ry
     Harris-Foulkes estimate   =    -329.48476939 Ry
     estimated scf accuracy    <       0.00001347 Ry

     iteration #  5     ecut=    30.00 Ry     beta=0.70
     Davidson diagonalization with overlap
     ethr =  2.45E-08,  avg # of iterations =  2.0

     total cpu time spent up to now is        9.1 secs

     total energy              =    -329.48476831 Ry
     Harris-Foulkes estimate   =    -329.48476945 Ry
     estimated scf accuracy    <       0.00000277 Ry

     iteration #  6     ecut=    30.00 Ry     beta=0.70
     Davidson diagonalization with overlap
     ethr =  5.03E-09,  avg # of iterations =  2.0

     total cpu time spent up to now is        9.3 secs

     total energy              =    -329.48476894 Ry
     Harris-Foulkes estimate   =    -329.48476905 Ry
     estimated scf accuracy    <       0.00000044 Ry

     iteration #  7     ecut=    30.00 Ry     beta=0.70
     Davidson diagonalization with overlap
     ethr =  7.91E-10,  avg # of iterations =  2.0

     total cpu time spent up to now is        9.5 secs

     total energy              =    -329.48476902 Ry
     Harris-Foulkes estimate   =    -329.48476907 Ry
     estimated scf accuracy    <       0.00000011 Ry

     iteration #  8     ecut=    30.00 Ry     beta=0.70
     Davidson diagonalization with overlap
     ethr =  2.04E-10,  avg # of iterations =  2.0

     total cpu time spent up to now is        9.7 secs

     total energy              =    -329.48476899 Ry
     Harris-Foulkes estimate   =    -329.48476904 Ry
     estimated scf accuracy    <          6.9E-09 Ry

     iteration #  9     ecut=    30.00 Ry     beta=0.70
     Davidson diagonalization with overlap
     ethr =  1.26E-11,  avg # of iterations =  3.0

     total cpu time spent up to now is        9.9 secs

     End of self-consistent calculation

          k = 0.0000 0.0000 0.0000 ( 22119 PWs)   bands (ev):

    -8.1814  -7.6363  -7.5726  -7.2098  -6.9012  -6.7069  -6.6096  -6.4389
    -6.2945  -6.0374  -5.8726  -5.6860  -5.6707  -5.5983  -5.4434  -5.4158
    -5.3325  -5.2245  -5.1898  -5.1679  -5.1664  -5.1120  -5.0660  -4.8848
    -4.8425  -4.7303  -4.4221  -3.7756  -2.6617  -2.0906  -0.4974  -0.1912
     0.4590   0.6479

     the Fermi energy is    -3.7500 ev

!    total energy              =    -329.48476895 Ry
     Harris-Foulkes estimate   =    -329.48476899 Ry
     estimated scf accuracy    <          1.8E-09 Ry

     The total energy is the sum of the following terms:

     one-electron contribution =    -599.82361656 Ry
     hartree contribution      =     321.40847915 Ry
     xc contribution           =     -51.38133827 Ry
     ewald contribution        =       0.31456800 Ry
     smearing contrib. (-TS)   =      -0.00286128 Ry

     convergence has been achieved in   9 iterations

     Forces acting on atoms (Ry/au):

     atom    1 type  1   force =     0.01637611   -0.00698443   -0.00612053
     atom    2 type  1   force =     0.00131192    0.00168449    0.00073929
     atom    3 type  1   force =    -0.01153947    0.00498910    0.01578720
     atom    4 type  1   force =     0.00090088    0.00227728    0.00046591
     atom    5 type  1   force =    -0.00704945   -0.00196644   -0.01087186

     Total force =     0.030737     Total SCF correction =     0.000192

     number of scf cycles    =   4
     number of bfgs steps    =   3

     energy   old            =    -329.4819761037 Ry
     energy   new            =    -329.4847689477 Ry

     CASE: energy  _new < energy  _old

     new trust radius        =       0.0844811317 bohr
     new conv_thr            =       0.0000000016 Ry


ATOMIC_POSITIONS (bohr)
Au      -2.360936389   3.404983387  -0.340153890
Au      -0.477628595   4.976360537   4.046724250
Au       2.648451521   2.297358272   0.466629322
Au       4.411967862   4.385527965   5.421160543
Au       7.205762601   1.186111839   2.615135775



     Writing output data file pwscf.save
     Check: negative starting charge=   -0.006216
     NEW-OLD atomic charge density approx. for the potential
     Check: negative starting charge=   -0.006241

     negative rho (up, down):  1.179E-03 0.000E+00

     total cpu time spent up to now is       10.1 secs

     per-process dynamical memory:    50.7 Mb

     Self-consistent Calculation

     iteration #  1     ecut=    30.00 Ry     beta=0.70
     Davidson diagonalization with overlap
     ethr =  1.00E-06,  avg # of iterations = 10.0

     negative rho (up, down):  8.654E-05 0.000E+00

     total cpu time spent up to now is       10.6 secs

     total energy              =    -329.48750465 Ry
     Harris-Foulkes estimate   =    -329.48668998 Ry
     estimated scf accuracy    <       0.00086580 Ry

     iteration #  2     ecut=    30.00 Ry     beta=0.70
     Davidson diagonalization with overlap
     ethr =  1.57E-06,  avg # of iterations =  6.0

     negative rho (up, down):  3.207E-05 0.000E+00

     total cpu time spent up to now is       10.9 secs

     total energy              =    -329.48743541 Ry
     Harris-Foulkes estimate   =    -329.48809556 Ry
     estimated scf accuracy    <       0.00156247 Ry

     iteration #  3     ecut=    30.00 Ry     beta=0.70
     Davidson diagonalization with overlap
     ethr =  1.57E-06,  avg # of iterations =  3.0

     negative rho (up, down):  1.803E-06 0.000E+00

     total cpu time spent up to now is       11.1 secs

     total energy              =    -329.48777481 Ry
     Harris-Foulkes estimate   =    -329.48788516 Ry
     estimated scf accuracy    <       0.00035733 Ry

     iteration #  4     ecut=    30.00 Ry     beta=0.70
     Davidson diagonalization with overlap
     ethr =  6.50E-07,  avg # of iterations =  2.0

     total cpu time spent up to now is       11.3 secs

     total energy              =    -329.48784313 Ry
     Harris-Foulkes estimate   =    -329.48784892 Ry
     estimated scf accuracy    <       0.00002755 Ry

     iteration #  5     ecut=    30.00 Ry     beta=0.70
     Davidson diagonalization with overlap
     ethr =  5.01E-08,  avg # of iterations =  2.0

     total cpu time spent up to now is       11.5 secs

     total energy              =    -329.48784918 Ry
     Harris-Foulkes estimate   =    -329.48785113 Ry
     estimated scf accuracy    <       0.00000511 Ry

     iteration #  6     ecut=    30.00 Ry     beta=0.70
     Davidson diagonalization with overlap
     ethr =  9.30E-09,  avg # of iterations =  2.0

     total cpu time spent up to now is       11.7 secs

     total energy              =    -329.48785014 Ry
     Harris-Foulkes estimate   =    -329.48785052 Ry
     estimated scf accuracy    <       0.00000074 Ry

     iteration #  7     ecut=    30.00 Ry     beta=0.70
     Davidson diagonalization with overlap
     ethr =  1.34E-09,  avg # of iterations =  2.0

     total cpu time spent up to now is       12.0 secs

     total energy              =    -329.48785019 Ry
     Harris-Foulkes estimate   =    -329.48785038 Ry
     estimated scf accuracy    <       0.00000023 Ry

     iteration #  8     ecut=    30.00 Ry     beta=0.70
     Davidson diagonalization with overlap
     ethr =  4.19E-10,  avg # of iterations =  2.0

     total cpu time spent up to now is       12.2 secs

     total energy              =    -329.48785022 Ry
     Harris-Foulkes estimate   =    -329.48785025 Ry
     estimated scf accuracy    <       0.00000002 Ry

     iteration #  9     ecut=    30.00 Ry     beta=0.70
     Davidson diagonalization with overlap
     ethr =  2.84E-11,  avg # of iterations =  3.0

     total cpu time spent up to now is       12.4 secs

     total energy              =    -329.48785016 Ry
     Harris-Foulkes estimate   =    -329.48785022 Ry
     estimated scf accuracy    <          4.4E-09 Ry

     iteration # 10     ecut=    30.00 Ry     beta=0.70
     Davidson diagonalization with overlap
     ethr =  8.02E-12,  avg # of iterations =  2.0

     total cpu time spent up to now is       12.6 secs

     End of self-consistent calculation

          k = 0.0000 0.0000 0.0000 ( 22119 PWs)   bands (ev):

    -8.2958  -7.7057  -7.6183  -7.2613  -6.9346  -6.7150  -6.6729  -6.4621
    -6.3291  -6.0407  -5.9139  -5.7256  -5.6970  -5.6242  -5.4445  -5.4140
    -5.3264  -5.2231  -5.1918  -5.1765  -5.1706  -5.1156  -5.0516  -4.8859
    -4.8492  -4.7057  -4.4288  -3.7652  -2.6002  -2.0938  -0.5090  -0.1876
     0.4807   0.6640

     the Fermi energy is    -3.7374 ev

!    total energy              =    -329.48785018 Ry
     Harris-Foulkes estimate   =    -329.48785016 Ry
     estimated scf accuracy    <          7.7E-10 Ry

     The total energy is the sum of the following terms:

     one-electron contribution =    -604.06995472 Ry
     hartree contribution      =     323.49987075 Ry
     xc contribution           =     -51.39382268 Ry
     ewald contribution        =       2.47937168 Ry
     smearing contrib. (-TS)   =      -0.00331522 Ry

     convergence has been achieved in  10 iterations

     Forces acting on atoms (Ry/au):

     atom    1 type  1   force =     0.00772873   -0.00660829   -0.01036494
     atom    2 type  1   force =     0.00020483    0.00500176    0.00635925
     atom    3 type  1   force =    -0.00369228    0.00079121    0.01343413
     atom    4 type  1   force =     0.00292765    0.00137626    0.00084964
     atom    5 type  1   force =    -0.00716892   -0.00056094   -0.01027808

     Total force =     0.025290     Total SCF correction =     0.000115

     number of scf cycles    =   5
     number of bfgs steps    =   4

     energy   old            =    -329.4847689477 Ry
     energy   new            =    -329.4878501833 Ry

     CASE: energy  _new < energy  _old

     new trust radius        =       0.1267216976 bohr
     new conv_thr            =       0.0000000013 Ry


ATOMIC_POSITIONS (bohr)
Au      -2.254557293   3.367472984  -0.368725097
Au      -0.473001402   4.981710238   4.041212518
Au       2.573850154   2.329377344   0.563931961
Au       4.413959443   4.399651128   5.423580456
Au       7.167366098   1.172130306   2.549496162



     Writing output data file pwscf.save
     Check: negative starting charge=   -0.006241
     NEW-OLD atomic charge density approx. for the potential
     Check: negative starting charge=   -0.006282

     negative rho (up, down):  2.302E-03 0.000E+00

     total cpu time spent up to now is       12.8 secs

     per-process dynamical memory:    50.7 Mb

     Self-consistent Calculation

     iteration #  1     ecut=    30.00 Ry     beta=0.70
     Davidson diagonalization with overlap
     ethr =  1.00E-06,  avg # of iterations = 11.0

     negative rho (up, down):  2.286E-04 0.000E+00

     total cpu time spent up to now is       13.3 secs

     total energy              =    -329.48917291 Ry
     Harris-Foulkes estimate   =    -329.48765052 Ry
     estimated scf accuracy    <       0.00189637 Ry

     iteration #  2     ecut=    30.00 Ry     beta=0.70
     Davidson diagonalization with overlap
     ethr =  3.45E-06,  avg # of iterations =  9.0

     negative rho (up, down):  8.612E-05 0.000E+00

     total cpu time spent up to now is       13.6 secs

     total energy              =    -329.48918806 Ry
     Harris-Foulkes estimate   =    -329.49024281 Ry
     estimated scf accuracy    <       0.00239385 Ry

     iteration #  3     ecut=    30.00 Ry     beta=0.70
     Davidson diagonalization with overlap
     ethr =  3.45E-06,  avg # of iterations =  3.0

     negative rho (up, down):  9.500E-06 0.000E+00

     total cpu time spent up to now is       13.9 secs

     total energy              =    -329.48972060 Ry
     Harris-Foulkes estimate   =    -329.49000137 Ry
     estimated scf accuracy    <       0.00087285 Ry

     iteration #  4     ecut=    30.00 Ry     beta=0.70
     Davidson diagonalization with overlap
     ethr =  1.59E-06,  avg # of iterations =  2.0

     total cpu time spent up to now is       14.1 secs

     total energy              =    -329.48988895 Ry
     Harris-Foulkes estimate   =    -329.48990189 Ry
     estimated scf accuracy    <       0.00006078 Ry

     iteration #  5     ecut=    30.00 Ry     beta=0.70
     Davidson diagonalization with overlap
     ethr =  1.11E-07,  avg # of iterations =  2.0

     total cpu time spent up to now is       14.3 secs

     total energy              =    -329.48990108 Ry
     Harris-Foulkes estimate   =    -329.48990500 Ry
     estimated scf accuracy    <       0.00000776 Ry

     iteration #  6     ecut=    30.00 Ry     beta=0.70
     Davidson diagonalization with overlap
     ethr =  1.41E-08,  avg # of iterations =  2.0

     total cpu time spent up to now is       14.5 secs

     total energy              =    -329.48990227 Ry
     Harris-Foulkes estimate   =    -329.48990313 Ry
     estimated scf accuracy    <       0.00000098 Ry

     iteration #  7     ecut=    30.00 Ry     beta=0.70
     Davidson diagonalization with overlap
     ethr =  1.78E-09,  avg # of iterations =  2.0

     total cpu time spent up to now is       14.7 secs

     total energy              =    -329.48990237 Ry
     Harris-Foulkes estimate   =    -329.48990258 Ry
     estimated scf accuracy    <       0.00000030 Ry

     iteration #  8     ecut=    30.00 Ry     beta=0.70
     Davidson diagonalization with overlap
     ethr =  5.42E-10,  avg # of iterations =  2.0

     total cpu time spent up to now is       14.9 secs

     total energy              =    -329.48990233 Ry
     Harris-Foulkes estimate   =    -329.48990245 Ry
     estimated scf accuracy    <       0.00000005 Ry

     iteration #  9     ecut=    30.00 Ry     beta=0.70
     Davidson diagonalization with overlap
     ethr =  9.64E-11,  avg # of iterations =  2.0

     total cpu time spent up to now is       15.2 secs

     total energy              =    -329.48990234 Ry
     Harris-Foulkes estimate   =    -329.48990235 Ry
     estimated scf accuracy    <          8.7E-09 Ry

     iteration # 10     ecut=    30.00 Ry     beta=0.70
     Davidson diagonalization with overlap
     ethr =  1.59E-11,  avg # of iterations =  2.0

     total cpu time spent up to now is       15.4 secs

     total energy              =    -329.48990234 Ry
     Harris-Foulkes estimate   =    -329.48990235 Ry
     estimated scf accuracy    <          2.2E-09 Ry

     iteration # 11     ecut=    30.00 Ry     beta=0.70
     Davidson diagonalization with overlap
     ethr =  3.92E-12,  avg # of iterations =  2.0

     total cpu time spent up to now is       15.6 secs

     End of self-consistent calculation

          k = 0.0000 0.0000 0.0000 ( 22119 PWs)   bands (ev):

    -8.4905  -7.8102  -7.6913  -7.3228  -6.9656  -6.8129  -6.6891  -6.4963
    -6.3603  -6.0531  -5.9701  -5.7780  -5.7300  -5.6651  -5.4443  -5.4060
    -5.3172  -5.2209  -5.2028  -5.1849  -5.1721  -5.1124  -5.0149  -4.8928
    -4.8545  -4.6698  -4.4399  -3.7547  -2.5040  -2.1054  -0.5253  -0.1839
     0.5159   0.6897

     the Fermi energy is    -3.7245 ev

!    total energy              =    -329.48990234 Ry
     Harris-Foulkes estimate   =    -329.48990234 Ry
     estimated scf accuracy    <          1.4E-10 Ry

     The total energy is the sum of the following terms:

     one-electron contribution =    -609.95255309 Ry
     hartree contribution      =     326.39894920 Ry
     xc contribution           =     -51.41447585 Ry
     ewald contribution        =       5.48196975 Ry
     smearing contrib. (-TS)   =      -0.00379234 Ry

     convergence has been achieved in  11 iterations

     Forces acting on atoms (Ry/au):

     atom    1 type  1   force =    -0.00958731   -0.00363956   -0.01566931
     atom    2 type  1   force =    -0.00273010    0.00898338    0.01316095
     atom    3 type  1   force =     0.01253231   -0.00660708    0.00697932
     atom    4 type  1   force =     0.00571352   -0.00007004    0.00201738
     atom    5 type  1   force =    -0.00592842    0.00133330   -0.00648834

     Total force =     0.031261     Total SCF correction =     0.000052

     number of scf cycles    =   6
     number of bfgs steps    =   5

     energy   old            =    -329.4878501833 Ry
     energy   new            =    -329.4899023361 Ry

     CASE: energy  _new < energy  _old

     new trust radius        =       0.0144010509 bohr
     new conv_thr            =       0.0000000016 Ry


ATOMIC_POSITIONS (bohr)
Au      -2.258107830   3.363549531  -0.382118769
Au      -0.475531997   4.988909318   4.050885019
Au       2.581384094   2.325222436   0.573706041
Au       4.418481309   4.400198337   5.425378818
Au       7.161391424   1.172462379   2.541644892



     Writing output data file pwscf.save
     Check: negative starting charge=   -0.006282
     NEW-OLD atomic charge density approx. for the potential
     Check: negative starting charge=   -0.006278

     negative rho (up, down):  3.594E-05 0.000E+00

     total cpu time spent up to now is       15.8 secs

     per-process dynamical memory:    50.7 Mb

     Self-consistent Calculation

     iteration #  1     ecut=    30.00 Ry     beta=0.70
     Davidson diagonalization with overlap
     ethr =  1.00E-06,  avg # of iterations =  4.0

     Threshold (ethr) on eigenvalues was too large:
     Diagonalizing with lowered threshold

     Davidson diagonalization with overlap
     ethr =  8.88E-08,  avg # of iterations =  1.0

     negative rho (up, down):  1.095E-07 0.000E+00

     total cpu time spent up to now is       16.3 secs

     total energy              =    -329.49056014 Ry
     Harris-Foulkes estimate   =    -329.49056926 Ry
     estimated scf accuracy    <       0.00004919 Ry

     iteration #  2     ecut=    30.00 Ry     beta=0.70
     Davidson diagonalization with overlap
     ethr =  8.94E-08,  avg # of iterations =  3.0

     negative rho (up, down):  1.558E-08 0.000E+00

     total cpu time spent up to now is       16.5 secs

     total energy              =    -329.49055066 Ry
     Harris-Foulkes estimate   =    -329.49061166 Ry
     estimated scf accuracy    <       0.00016293 Ry

     iteration #  3     ecut=    30.00 Ry     beta=0.70
     Davidson diagonalization with overlap
     ethr =  8.94E-08,  avg # of iterations =  2.0

     total cpu time spent up to now is       16.7 secs

     total energy              =    -329.49058171 Ry
     Harris-Foulkes estimate   =    -329.49058380 Ry
     estimated scf accuracy    <       0.00000857 Ry

     iteration #  4     ecut=    30.00 Ry     beta=0.70
     Davidson diagonalization with overlap
     ethr =  1.56E-08,  avg # of iterations =  2.0

     total cpu time spent up to now is       16.9 secs

     total energy              =    -329.49058297 Ry
     Harris-Foulkes estimate   =    -329.49058380 Ry
     estimated scf accuracy    <       0.00000106 Ry

     iteration #  5     ecut=    30.00 Ry     beta=0.70
     Davidson diagonalization with overlap
     ethr =  1.92E-09,  avg # of iterations =  2.0

     total cpu time spent up to now is       17.1 secs

     total energy              =    -329.49058307 Ry
     Harris-Foulkes estimate   =    -329.49058338 Ry
     estimated scf accuracy    <       0.00000060 Ry

     iteration #  6     ecut=    30.00 Ry     beta=0.70
     Davidson diagonalization with overlap
     ethr =  1.10E-09,  avg # of iterations =  2.0

     total cpu time spent up to now is       17.3 secs

     total energy              =    -329.49058315 Ry
     Harris-Foulkes estimate   =    -329.49058319 Ry
     estimated scf accuracy    <       0.00000002 Ry

     iteration #  7     ecut=    30.00 Ry     beta=0.70
     Davidson diagonalization with overlap
     ethr =  4.24E-11,  avg # of iterations =  3.0

     total cpu time spent up to now is       17.6 secs

     total energy              =    -329.49058306 Ry
     Harris-Foulkes estimate   =    -329.49058315 Ry
     estimated scf accuracy    <          3.5E-09 Ry

     iteration #  8     ecut=    30.00 Ry     beta=0.70
     Davidson diagonalization with overlap
     ethr =  6.34E-12,  avg # of iterations =  2.0

     total cpu time spent up to now is       17.8 secs

     End of self-consistent calculation

          k = 0.0000 0.0000 0.0000 ( 22119 PWs)   bands (ev):

    -8.4785  -7.8008  -7.6812  -7.3074  -6.9571  -6.8022  -6.6810  -6.4924
    -6.3504  -6.0495  -5.9711  -5.7741  -5.7305  -5.6632  -5.4412  -5.4040
    -5.3169  -5.2213  -5.2024  -5.1806  -5.1756  -5.1147  -5.0122  -4.8954
    -4.8550  -4.6755  -4.4435  -3.7591  -2.4995  -2.1154  -0.5236  -0.1860
     0.5163   0.6897

     the Fermi energy is    -3.7290 ev

!    total energy              =    -329.49058303 Ry
     Harris-Foulkes estimate   =    -329.49058306 Ry
     estimated scf accuracy    <          6.2E-10 Ry

     The total energy is the sum of the following terms:

     one-electron contribution =    -609.33206101 Ry
     hartree contribution      =     326.09301640 Ry
     xc contribution           =     -51.41158157 Ry
     ewald contribution        =       5.16381651 Ry
     smearing contrib. (-TS)   =      -0.00377337 Ry

     convergence has been achieved in   8 iterations

     Forces acting on atoms (Ry/au):

     atom    1 type  1   force =    -0.00614049   -0.00300909   -0.01228388
     atom    2 type  1   force =    -0.00300714    0.00743018    0.01018977
     atom    3 type  1   force =     0.00836095   -0.00541102    0.00590705
     atom    4 type  1   force =     0.00490757    0.00012399    0.00193284
     atom    5 type  1   force =    -0.00412089    0.00086594   -0.00574578

     Total force =     0.024050     Total SCF correction =     0.000118

     number of scf cycles    =   7
     number of bfgs steps    =   6

     energy   old            =    -329.4899023361 Ry
     energy   new            =    -329.4905830349 Ry

     CASE: energy  _new < energy  _old

     new trust radius        =       0.0158411560 bohr
     new conv_thr            =       0.0000000007 Ry


ATOMIC_POSITIONS (bohr)
Au      -2.253462436   3.357561267  -0.396029313
Au      -0.478370382   4.996092587   4.059128252
Au       2.582297892   2.323235604   0.589048756
Au       4.423081756   4.401746622   5.427496934
Au       7.154070169   1.171705919   2.529851371



     Writing output data file pwscf.save
     Check: negative starting charge=   -0.006278
     NEW-OLD atomic charge density approx. for the potential
     Check: negative starting charge=   -0.006280

     negative rho (up, down):  5.462E-05 0.000E+00

     total cpu time spent up to now is       18.0 secs

     per-process dynamical memory:    50.7 Mb

     Self-consistent Calculation

     iteration #  1     ecut=    30.00 Ry     beta=0.70
     Davidson diagonalization with overlap
     ethr =  1.00E-06,  avg # of iterations =  4.0

     Threshold (ethr) on eigenvalues was too large:
     Diagonalizing with lowered threshold

     Davidson diagonalization with overlap
     ethr =  9.65E-08,  avg # of iterations =  1.0

     negative rho (up, down):  2.358E-07 0.000E+00

     total cpu time spent up to now is       18.5 secs

     total energy              =    -329.49105296 Ry
     Harris-Foulkes estimate   =    -329.49105732 Ry
     estimated scf accuracy    <       0.00005307 Ry

     iteration #  2     ecut=    30.00 Ry     beta=0.70
     Davidson diagonalization with overlap
     ethr =  9.65E-08,  avg # of iterations =  3.0

     negative rho (up, down):  2.269E-08 0.000E+00

     total cpu time spent up to now is       18.8 secs

     total energy              =    -329.49105220 Ry
     Harris-Foulkes estimate   =    -329.49108678 Ry
     estimated scf accuracy    <       0.00007709 Ry

     iteration #  3     ecut=    30.00 Ry     beta=0.70
     Davidson diagonalization with overlap
     ethr =  9.65E-08,  avg # of iterations =  2.0

     total cpu time spent up to now is       19.0 secs

     total energy              =    -329.49106835 Ry
     Harris-Foulkes estimate   =    -329.49107571 Ry
     estimated scf accuracy    <       0.00002063 Ry

     iteration #  4     ecut=    30.00 Ry     beta=0.70
     Davidson diagonalization with overlap
     ethr =  3.75E-08,  avg # of iterations =  2.0

     total cpu time spent up to now is       19.2 secs

     total energy              =    -329.49107201 Ry
     Harris-Foulkes estimate   =    -329.49107277 Ry
     estimated scf accuracy    <       0.00000137 Ry

     iteration #  5     ecut=    30.00 Ry     beta=0.70
     Davidson diagonalization with overlap
     ethr =  2.50E-09,  avg # of iterations =  2.0

     total cpu time spent up to now is       19.4 secs

     total energy              =    -329.49107229 Ry
     Harris-Foulkes estimate   =    -329.49107248 Ry
     estimated scf accuracy    <       0.00000053 Ry

     iteration #  6     ecut=    30.00 Ry     beta=0.70
     Davidson diagonalization with overlap
     ethr =  9.67E-10,  avg # of iterations =  2.0

     total cpu time spent up to now is       19.6 secs

     total energy              =    -329.49107225 Ry
     Harris-Foulkes estimate   =    -329.49107240 Ry
     estimated scf accuracy    <       0.00000004 Ry

     iteration #  7     ecut=    30.00 Ry     beta=0.70
     Davidson diagonalization with overlap
     ethr =  7.37E-11,  avg # of iterations =  2.0

     total cpu time spent up to now is       19.8 secs

     total energy              =    -329.49107213 Ry
     Harris-Foulkes estimate   =    -329.49107226 Ry
     estimated scf accuracy    <          4.2E-09 Ry

     iteration #  8     ecut=    30.00 Ry     beta=0.70
     Davidson diagonalization with overlap
     ethr =  7.65E-12,  avg # of iterations =  2.0

     total cpu time spent up to now is       20.0 secs

     total energy              =    -329.49107216 Ry
     Harris-Foulkes estimate   =    -329.49107214 Ry
     estimated scf accuracy    <          1.1E-09 Ry

     iteration #  9     ecut=    30.00 Ry     beta=0.70
     Davidson diagonalization with overlap
     ethr =  2.07E-12,  avg # of iterations =  2.0

     total cpu time spent up to now is       20.2 secs

     End of self-consistent calculation

          k = 0.0000 0.0000 0.0000 ( 22119 PWs)   bands (ev):

    -8.4831  -7.7994  -7.6772  -7.2960  -6.9504  -6.8035  -6.6719  -6.4912
    -6.3419  -6.0497  -5.9736  -5.7740  -5.7327  -5.6645  -5.4385  -5.4011
    -5.3159  -5.2227  -5.2023  -5.1784  -5.1769  -5.1160  -5.0070  -4.8992
    -4.8550  -4.6780  -4.4477  -3.7623  -2.4889  -2.1257  -0.5230  -0.1877
     0.5191   0.6914

     the Fermi energy is    -3.7321 ev

!    total energy              =    -329.49107218 Ry
     Harris-Foulkes estimate   =    -329.49107216 Ry
     estimated scf accuracy    <          1.9E-10 Ry

     The total energy is the sum of the following terms:

     one-electron contribution =    -609.12966916 Ry
     hartree contribution      =     325.99323294 Ry
     xc contribution           =     -51.41046498 Ry
     ewald contribution        =       5.05962048 Ry
     smearing contrib. (-TS)   =      -0.00379146 Ry

     convergence has been achieved in   9 iterations

     Forces acting on atoms (Ry/au):

     atom    1 type  1   force =    -0.00495337   -0.00215935   -0.01010377
     atom    2 type  1   force =    -0.00319554    0.00635270    0.00824880
     atom    3 type  1   force =     0.00632743   -0.00488334    0.00467072
     atom    4 type  1   force =     0.00431345    0.00013682    0.00188176
     atom    5 type  1   force =    -0.00249197    0.00055317   -0.00469752

     Total force =     0.019656     Total SCF correction =     0.000065

     number of scf cycles    =   8
     number of bfgs steps    =   7

     energy   old            =    -329.4905830349 Ry
     energy   new            =    -329.4910721849 Ry

     CASE: energy  _new < energy  _old

     new trust radius        =       0.0237617339 bohr
     new conv_thr            =       0.0000000005 Ry


ATOMIC_POSITIONS (bohr)
Au      -2.247319511   3.349225468  -0.417416200
Au      -0.484167045   5.007703162   4.071858022
Au       2.583588808   2.318948530   0.611456369
Au       4.430760686   4.404053486   5.431309084
Au       7.144754062   1.170411354   2.512288725



     Writing output data file pwscf.save
     Check: negative starting charge=   -0.006280
     NEW-OLD atomic charge density approx. for the potential
     Check: negative starting charge=   -0.006283

     negative rho (up, down):  1.629E-04 0.000E+00

     total cpu time spent up to now is       20.5 secs

     per-process dynamical memory:    50.7 Mb

     Self-consistent Calculation

     iteration #  1     ecut=    30.00 Ry     beta=0.70
     Davidson diagonalization with overlap
     ethr =  1.00E-06,  avg # of iterations =  4.0

     negative rho (up, down):  2.291E-06 0.000E+00

     total cpu time spent up to now is       20.8 secs

     total energy              =    -329.49159584 Ry
     Harris-Foulkes estimate   =    -329.49159055 Ry
     estimated scf accuracy    <       0.00012121 Ry

     iteration #  2     ecut=    30.00 Ry     beta=0.70
     Davidson diagonalization with overlap
     ethr =  2.20E-07,  avg # of iterations =  3.0

     negative rho (up, down):  2.842E-07 0.000E+00

     total cpu time spent up to now is       21.1 secs

     total energy              =    -329.49159801 Ry
     Harris-Foulkes estimate   =    -329.49167260 Ry
     estimated scf accuracy    <       0.00016525 Ry

     iteration #  3     ecut=    30.00 Ry     beta=0.70
     Davidson diagonalization with overlap
     ethr =  2.20E-07,  avg # of iterations =  2.0

     total cpu time spent up to now is       21.3 secs

     total energy              =    -329.49163267 Ry
     Harris-Foulkes estimate   =    -329.49164920 Ry
     estimated scf accuracy    <       0.00004703 Ry

     iteration #  4     ecut=    30.00 Ry     beta=0.70
     Davidson diagonalization with overlap
     ethr =  8.55E-08,  avg # of iterations =  2.0

     total cpu time spent up to now is       21.5 secs

     total energy              =    -329.49164111 Ry
     Harris-Foulkes estimate   =    -329.49164291 Ry
     estimated scf accuracy    <       0.00000331 Ry

     iteration #  5     ecut=    30.00 Ry     beta=0.70
     Davidson diagonalization with overlap
     ethr =  6.03E-09,  avg # of iterations =  2.0

     total cpu time spent up to now is       21.7 secs

     total energy              =    -329.49164151 Ry
     Harris-Foulkes estimate   =    -329.49164211 Ry
     estimated scf accuracy    <       0.00000098 Ry

     iteration #  6     ecut=    30.00 Ry     beta=0.70
     Davidson diagonalization with overlap
     ethr =  1.79E-09,  avg # of iterations =  2.0

     total cpu time spent up to now is       21.9 secs

     total energy              =    -329.49164162 Ry
     Harris-Foulkes estimate   =    -329.49164172 Ry
     estimated scf accuracy    <       0.00000010 Ry

     iteration #  7     ecut=    30.00 Ry     beta=0.70
     Davidson diagonalization with overlap
     ethr =  1.81E-10,  avg # of iterations =  2.0

     total cpu time spent up to now is       22.1 secs

     total energy              =    -329.49164159 Ry
     Harris-Foulkes estimate   =    -329.49164165 Ry
     estimated scf accuracy    <       0.00000001 Ry

     iteration #  8     ecut=    30.00 Ry     beta=0.70
     Davidson diagonalization with overlap
     ethr =  1.99E-11,  avg # of iterations =  2.0

     total cpu time spent up to now is       22.3 secs

     total energy              =    -329.49164158 Ry
     Harris-Foulkes estimate   =    -329.49164159 Ry
     estimated scf accuracy    <          2.4E-09 Ry

     iteration #  9     ecut=    30.00 Ry     beta=0.70
     Davidson diagonalization with overlap
     ethr =  4.40E-12,  avg # of iterations =  2.0

     total cpu time spent up to now is       22.5 secs

     End of self-consistent calculation

          k = 0.0000 0.0000 0.0000 ( 22119 PWs)   bands (ev):

    -8.4882  -7.7940  -7.6685  -7.2756  -6.9377  -6.8048  -6.6564  -6.4869
    -6.3272  -6.0517  -5.9736  -5.7725  -5.7350  -5.6657  -5.4345  -5.3963
    -5.3144  -5.2255  -5.2026  -5.1801  -5.1727  -5.1178  -4.9995  -4.9062
    -4.8547  -4.6825  -4.4546  -3.7674  -2.4745  -2.1425  -0.5216  -0.1901
     0.5227   0.6936

     the Fermi energy is    -3.7371 ev

!    total energy              =    -329.49164155 Ry
     Harris-Foulkes estimate   =    -329.49164158 Ry
     estimated scf accuracy    <          4.2E-10 Ry

     The total energy is the sum of the following terms:

     one-electron contribution =    -608.62361593 Ry
     hartree contribution      =     325.74342843 Ry
     xc contribution           =     -51.40813584 Ry
     ewald contribution        =       4.80051004 Ry
     smearing contrib. (-TS)   =      -0.00382824 Ry

     convergence has been achieved in   9 iterations

     Forces acting on atoms (Ry/au):

     atom    1 type  1   force =    -0.00315131   -0.00090511   -0.00713588
     atom    2 type  1   force =    -0.00301226    0.00467517    0.00535915
     atom    3 type  1   force =     0.00308159   -0.00392940    0.00316773
     atom    4 type  1   force =     0.00319373    0.00006907    0.00162306
     atom    5 type  1   force =    -0.00011175    0.00009027   -0.00301406

     Total force =     0.013351     Total SCF correction =     0.000090

     number of scf cycles    =   9
     number of bfgs steps    =   8

     energy   old            =    -329.4910721849 Ry
     energy   new            =    -329.4916415484 Ry

     CASE: energy  _new < energy  _old

     new trust radius        =       0.0356426009 bohr
     new conv_thr            =       0.0000000006 Ry


ATOMIC_POSITIONS (bohr)
Au      -2.238010727   3.337986938  -0.449934456
Au      -0.494476019   5.025784168   4.090450244
Au       2.583220444   2.311229408   0.644707363
Au       4.442754240   4.407403939   5.437682128
Au       7.134129061   1.167937547   2.486590720



     Writing output data file pwscf.save
     Check: negative starting charge=   -0.006283
     NEW-OLD atomic charge density approx. for the potential
     Check: negative starting charge=   -0.006288

     negative rho (up, down):  3.905E-04 0.000E+00

     total cpu time spent up to now is       22.7 secs

     per-process dynamical memory:    50.7 Mb

     Self-consistent Calculation

     iteration #  1     ecut=    30.00 Ry     beta=0.70
     Davidson diagonalization with overlap
     ethr =  1.00E-06,  avg # of iterations =  4.0

     negative rho (up, down):  1.312E-05 0.000E+00

     total cpu time spent up to now is       23.1 secs

     total energy              =    -329.49200741 Ry
     Harris-Foulkes estimate   =    -329.49191534 Ry
     estimated scf accuracy    <       0.00027124 Ry

     iteration #  2     ecut=    30.00 Ry     beta=0.70
     Davidson diagonalization with overlap
     ethr =  4.93E-07,  avg # of iterations =  3.0

     negative rho (up, down):  2.152E-06 0.000E+00

     total cpu time spent up to now is       23.4 secs

     total energy              =    -329.49202480 Ry
     Harris-Foulkes estimate   =    -329.49216904 Ry
     estimated scf accuracy    <       0.00031336 Ry

     iteration #  3     ecut=    30.00 Ry     beta=0.70
     Davidson diagonalization with overlap
     ethr =  4.93E-07,  avg # of iterations =  2.0

     negative rho (up, down):  7.689E-08 0.000E+00

     total cpu time spent up to now is       23.6 secs

     total energy              =    -329.49208913 Ry
     Harris-Foulkes estimate   =    -329.49212610 Ry
     estimated scf accuracy    <       0.00010165 Ry

     iteration #  4     ecut=    30.00 Ry     beta=0.70
     Davidson diagonalization with overlap
     ethr =  1.85E-07,  avg # of iterations =  2.0

     total cpu time spent up to now is       23.8 secs

     total energy              =    -329.49210962 Ry
     Harris-Foulkes estimate   =    -329.49211221 Ry
     estimated scf accuracy    <       0.00000830 Ry

     iteration #  5     ecut=    30.00 Ry     beta=0.70
     Davidson diagonalization with overlap
     ethr =  1.51E-08,  avg # of iterations =  2.0

     total cpu time spent up to now is       24.0 secs

     total energy              =    -329.49211066 Ry
     Harris-Foulkes estimate   =    -329.49211180 Ry
     estimated scf accuracy    <       0.00000174 Ry

     iteration #  6     ecut=    30.00 Ry     beta=0.70
     Davidson diagonalization with overlap
     ethr =  3.17E-09,  avg # of iterations =  2.0

     total cpu time spent up to now is       24.2 secs

     total energy              =    -329.49211108 Ry
     Harris-Foulkes estimate   =    -329.49211107 Ry
     estimated scf accuracy    <       0.00000022 Ry

     iteration #  7     ecut=    30.00 Ry     beta=0.70
     Davidson diagonalization with overlap
     ethr =  4.01E-10,  avg # of iterations =  2.0

     total cpu time spent up to now is       24.4 secs

     total energy              =    -329.49211108 Ry
     Harris-Foulkes estimate   =    -329.49211114 Ry
     estimated scf accuracy    <       0.00000003 Ry

     iteration #  8     ecut=    30.00 Ry     beta=0.70
     Davidson diagonalization with overlap
     ethr =  5.08E-11,  avg # of iterations =  2.0

     total cpu time spent up to now is       24.6 secs

     total energy              =    -329.49211112 Ry
     Harris-Foulkes estimate   =    -329.49211109 Ry
     estimated scf accuracy    <          5.4E-09 Ry

     iteration #  9     ecut=    30.00 Ry     beta=0.70
     Davidson diagonalization with overlap
     ethr =  9.83E-12,  avg # of iterations =  2.0

     total cpu time spent up to now is       24.9 secs

     total energy              =    -329.49211108 Ry
     Harris-Foulkes estimate   =    -329.49211112 Ry
     estimated scf accuracy    <          9.5E-10 Ry

     iteration # 10     ecut=    30.00 Ry     beta=0.70
     Davidson diagonalization with overlap
     ethr =  1.73E-12,  avg # of iterations =  3.0

     total cpu time spent up to now is       25.1 secs

     End of self-consistent calculation

          k = 0.0000 0.0000 0.0000 ( 22119 PWs)   bands (ev):

    -8.4963  -7.7832  -7.6539  -7.2426  -6.9160  -6.8079  -6.6301  -6.4782
    -6.3042  -6.0592  -5.9667  -5.7696  -5.7369  -5.6672  -5.4296  -5.3883
    -5.3120  -5.2307  -5.2042  -5.1818  -5.1656  -5.1195  -4.9891  -4.9179
    -4.8538  -4.6891  -4.4658  -3.7752  -2.4550  -2.1688  -0.5190  -0.1934
     0.5270   0.6969

     the Fermi energy is    -3.7445 ev

!    total energy              =    -329.49211110 Ry
     Harris-Foulkes estimate   =    -329.49211108 Ry
     estimated scf accuracy    <          2.7E-10 Ry

     The total energy is the sum of the following terms:

     one-electron contribution =    -607.67361517 Ry
     hartree contribution      =     325.27422369 Ry
     xc contribution           =     -51.40421614 Ry
     ewald contribution        =       4.31539709 Ry
     smearing contrib. (-TS)   =      -0.00390056 Ry

     convergence has been achieved in  10 iterations

     Forces acting on atoms (Ry/au):

     atom    1 type  1   force =    -0.00105756    0.00079504   -0.00304943
     atom    2 type  1   force =    -0.00207062    0.00241647    0.00115968
     atom    3 type  1   force =    -0.00137360   -0.00250335    0.00156986
     atom    4 type  1   force =     0.00141379   -0.00023550    0.00083303
     atom    5 type  1   force =     0.00308799   -0.00047266   -0.00051314

     Total force =     0.006776     Total SCF correction =     0.000064

     number of scf cycles    =  10
     number of bfgs steps    =   9

     energy   old            =    -329.4916415484 Ry
     energy   new            =    -329.4921110973 Ry

     CASE: energy  _new < energy  _old

     new trust radius        =       0.0216749834 bohr
     new conv_thr            =       0.0000000003 Ry


ATOMIC_POSITIONS (bohr)
Au      -2.232786490   3.332918525  -0.470309446
Au      -0.501995301   5.037800141   4.100682543
Au       2.579703510   2.304874823   0.665129296
Au       4.450357998   4.408962107   5.441826278
Au       7.132337283   1.165786403   2.472167329



     Writing output data file pwscf.save
     Check: negative starting charge=   -0.006288
     NEW-OLD atomic charge density approx. for the potential
     Check: negative starting charge=   -0.006288

     negative rho (up, down):  1.247E-04 0.000E+00

     total cpu time spent up to now is       25.3 secs

     per-process dynamical memory:    50.7 Mb

     Self-consistent Calculation

     iteration #  1     ecut=    30.00 Ry     beta=0.70
     Davidson diagonalization with overlap
     ethr =  1.00E-06,  avg # of iterations =  4.0

     negative rho (up, down):  1.454E-06 0.000E+00

     total cpu time spent up to now is       25.6 secs

     total energy              =    -329.49218496 Ry
     Harris-Foulkes estimate   =    -329.49219199 Ry
     estimated scf accuracy    <       0.00010521 Ry

     iteration #  2     ecut=    30.00 Ry     beta=0.70
     Davidson diagonalization with overlap
     ethr =  1.91E-07,  avg # of iterations =  3.0

     negative rho (up, down):  9.407E-08 0.000E+00

     total cpu time spent up to now is       25.9 secs

     total energy              =    -329.49219858 Ry
     Harris-Foulkes estimate   =    -329.49224091 Ry
     estimated scf accuracy    <       0.00008757 Ry

     iteration #  3     ecut=    30.00 Ry     beta=0.70
     Davidson diagonalization with overlap
     ethr =  1.59E-07,  avg # of iterations =  2.0

     total cpu time spent up to now is       26.1 secs

     total energy              =    -329.49221561 Ry
     Harris-Foulkes estimate   =    -329.49222685 Ry
     estimated scf accuracy    <       0.00002861 Ry

     iteration #  4     ecut=    30.00 Ry     beta=0.70
     Davidson diagonalization with overlap
     ethr =  5.20E-08,  avg # of iterations =  2.0

     total cpu time spent up to now is       26.3 secs

     total energy              =    -329.49222127 Ry
     Harris-Foulkes estimate   =    -329.49222359 Ry
     estimated scf accuracy    <       0.00000503 Ry

     iteration #  5     ecut=    30.00 Ry     beta=0.70
     Davidson diagonalization with overlap
     ethr =  9.15E-09,  avg # of iterations =  2.0

     total cpu time spent up to now is       26.5 secs

     total energy              =    -329.49222207 Ry
     Harris-Foulkes estimate   =    -329.49222228 Ry
     estimated scf accuracy    <       0.00000042 Ry

     iteration #  6     ecut=    30.00 Ry     beta=0.70
     Davidson diagonalization with overlap
     ethr =  7.65E-10,  avg # of iterations =  2.0

     total cpu time spent up to now is       26.7 secs

     total energy              =    -329.49222224 Ry
     Harris-Foulkes estimate   =    -329.49222219 Ry
     estimated scf accuracy    <       0.00000007 Ry

     iteration #  7     ecut=    30.00 Ry     beta=0.70
     Davidson diagonalization with overlap
     ethr =  1.21E-10,  avg # of iterations =  2.0

     total cpu time spent up to now is       26.9 secs

     total energy              =    -329.49222222 Ry
     Harris-Foulkes estimate   =    -329.49222226 Ry
     estimated scf accuracy    <       0.00000002 Ry

     iteration #  8     ecut=    30.00 Ry     beta=0.70
     Davidson diagonalization with overlap
     ethr =  2.86E-11,  avg # of iterations =  2.0

     total cpu time spent up to now is       27.1 secs

     total energy              =    -329.49222221 Ry
     Harris-Foulkes estimate   =    -329.49222222 Ry
     estimated scf accuracy    <          1.8E-09 Ry

     iteration #  9     ecut=    30.00 Ry     beta=0.70
     Davidson diagonalization with overlap
     ethr =  3.27E-12,  avg # of iterations =  2.0

     total cpu time spent up to now is       27.4 secs

     total energy              =    -329.49222223 Ry
     Harris-Foulkes estimate   =    -329.49222221 Ry
     estimated scf accuracy    <          4.1E-10 Ry

     iteration # 10     ecut=    30.00 Ry     beta=0.70
     Davidson diagonalization with overlap
     ethr =  7.47E-13,  avg # of iterations =  2.0

     total cpu time spent up to now is       27.6 secs

     End of self-consistent calculation

          k = 0.0000 0.0000 0.0000 ( 22119 PWs)   bands (ev):

    -8.4988  -7.7739  -7.6429  -7.2212  -6.9001  -6.8077  -6.6119  -6.4714
    -6.2896  -6.0645  -5.9587  -5.7673  -5.7364  -5.6680  -5.4280  -5.3829
    -5.3105  -5.2345  -5.2057  -5.1818  -5.1619  -5.1201  -4.9844  -4.9258
    -4.8535  -4.6933  -4.4737  -3.7798  -2.4457  -2.1855  -0.5169  -0.1947
     0.5284   0.6986

     the Fermi energy is    -3.7487 ev

!    total energy              =    -329.49222222 Ry
     Harris-Foulkes estimate   =    -329.49222223 Ry
     estimated scf accuracy    <          6.9E-11 Ry

     The total energy is the sum of the following terms:

     one-electron contribution =    -606.89590541 Ry
     hartree contribution      =     324.88971221 Ry
     xc contribution           =     -51.40111704 Ry
     ewald contribution        =       3.91906843 Ry
     smearing contrib. (-TS)   =      -0.00398041 Ry

     convergence has been achieved in  10 iterations

     Forces acting on atoms (Ry/au):

     atom    1 type  1   force =    -0.00013108    0.00159566   -0.00038165
     atom    2 type  1   force =    -0.00115310    0.00127265   -0.00128476
     atom    3 type  1   force =    -0.00316231   -0.00182626    0.00110689
     atom    4 type  1   force =     0.00028283   -0.00059904   -0.00010283
     atom    5 type  1   force =     0.00416366   -0.00044301    0.00066235

     Total force =     0.006347     Total SCF correction =     0.000037

     number of scf cycles    =  11
     number of bfgs steps    =  10

     energy   old            =    -329.4921110973 Ry
     energy   new            =    -329.4922222163 Ry

     CASE: energy  _new < energy  _old

     new trust radius        =       0.0105142162 bohr
     new conv_thr            =       0.0000000001 Ry


ATOMIC_POSITIONS (bohr)
Au      -2.231597736   3.332949759  -0.478094841
Au      -0.505819922   5.043639376   4.103050329
Au       2.575293566   2.300379076   0.673548880
Au       4.453388910   4.408732343   5.443067517
Au       7.136352183   1.164641447   2.467924115



     Writing output data file pwscf.save
     Check: negative starting charge=   -0.006288
     NEW-OLD atomic charge density approx. for the potential
     Check: negative starting charge=   -0.006287

     negative rho (up, down):  7.022E-06 0.000E+00

     total cpu time spent up to now is       27.8 secs

     per-process dynamical memory:    50.7 Mb

     Self-consistent Calculation

     iteration #  1     ecut=    30.00 Ry     beta=0.70
     Davidson diagonalization with overlap
     ethr =  1.00E-06,  avg # of iterations =  4.0

     Threshold (ethr) on eigenvalues was too large:
     Diagonalizing with lowered threshold

     Davidson diagonalization with overlap
     ethr =  3.90E-08,  avg # of iterations =  1.0

     total cpu time spent up to now is       28.2 secs

     total energy              =    -329.49226543 Ry
     Harris-Foulkes estimate   =    -329.49227245 Ry
     estimated scf accuracy    <       0.00002226 Ry

     iteration #  2     ecut=    30.00 Ry     beta=0.70
     Davidson diagonalization with overlap
     ethr =  4.05E-08,  avg # of iterations =  2.0

     total cpu time spent up to now is       28.5 secs

     total energy              =    -329.49226947 Ry
     Harris-Foulkes estimate   =    -329.49227676 Ry
     estimated scf accuracy    <       0.00001455 Ry

     iteration #  3     ecut=    30.00 Ry     beta=0.70
     Davidson diagonalization with overlap
     ethr =  2.65E-08,  avg # of iterations =  2.0

     total cpu time spent up to now is       28.7 secs

     total energy              =    -329.49227196 Ry
     Harris-Foulkes estimate   =    -329.49227325 Ry
     estimated scf accuracy    <       0.00000193 Ry

     iteration #  4     ecut=    30.00 Ry     beta=0.70
     Davidson diagonalization with overlap
     ethr =  3.50E-09,  avg # of iterations =  2.0

     total cpu time spent up to now is       28.9 secs

     total energy              =    -329.49227237 Ry
     Harris-Foulkes estimate   =    -329.49227303 Ry
     estimated scf accuracy    <       0.00000202 Ry

     iteration #  5     ecut=    30.00 Ry     beta=0.70
     Davidson diagonalization with overlap
     ethr =  3.50E-09,  avg # of iterations =  2.0

     total cpu time spent up to now is       29.1 secs

     total energy              =    -329.49227273 Ry
     Harris-Foulkes estimate   =    -329.49227271 Ry
     estimated scf accuracy    <       0.00000006 Ry

     iteration #  6     ecut=    30.00 Ry     beta=0.70
     Davidson diagonalization with overlap
     ethr =  1.15E-10,  avg # of iterations =  3.0

     total cpu time spent up to now is       29.3 secs

     total energy              =    -329.49227268 Ry
     Harris-Foulkes estimate   =    -329.49227276 Ry
     estimated scf accuracy    <       0.00000001 Ry

     iteration #  7     ecut=    30.00 Ry     beta=0.70
     Davidson diagonalization with overlap
     ethr =  2.32E-11,  avg # of iterations =  2.0

     total cpu time spent up to now is       29.5 secs

     total energy              =    -329.49227260 Ry
     Harris-Foulkes estimate   =    -329.49227268 Ry
     estimated scf accuracy    <          2.9E-09 Ry

     iteration #  8     ecut=    30.00 Ry     beta=0.70
     Davidson diagonalization with overlap
     ethr =  5.34E-12,  avg # of iterations =  2.0

     total cpu time spent up to now is       29.7 secs

     total energy              =    -329.49227264 Ry
     Harris-Foulkes estimate   =    -329.49227260 Ry
     estimated scf accuracy    <          6.1E-10 Ry

     iteration #  9     ecut=    30.00 Ry     beta=0.70
     Davidson diagonalization with overlap
     ethr =  1.11E-12,  avg # of iterations =  2.0

     total cpu time spent up to now is       30.0 secs

     End of self-consistent calculation

          k = 0.0000 0.0000 0.0000 ( 22119 PWs)   bands (ev):

    -8.4964  -7.7684  -7.6369  -7.2127  -6.8916  -6.8051  -6.6045  -6.4680
    -6.2839  -6.0656  -5.9545  -5.7661  -5.7350  -5.6682  -5.4287  -5.3806
    -5.3097  -5.2363  -5.2061  -5.1811  -5.1614  -5.1204  -4.9845  -4.9292
    -4.8538  -4.6955  -4.4776  -3.7810  -2.4447  -2.1923  -0.5158  -0.1946
     0.5280   0.6988

     the Fermi energy is    -3.7496 ev

!    total energy              =    -329.49227266 Ry
     Harris-Foulkes estimate   =    -329.49227264 Ry
     estimated scf accuracy    <          7.5E-11 Ry

     The total energy is the sum of the following terms:

     one-electron contribution =    -606.45302816 Ry
     hartree contribution      =     324.67038971 Ry
     xc contribution           =     -51.39927078 Ry
     ewald contribution        =       3.69369271 Ry
     smearing contrib. (-TS)   =      -0.00405614 Ry

     convergence has been achieved in   9 iterations

     Forces acting on atoms (Ry/au):

     atom    1 type  1   force =     0.00008543    0.00178484    0.00050698
     atom    2 type  1   force =    -0.00065490    0.00090200   -0.00194914
     atom    3 type  1   force =    -0.00285913   -0.00179138    0.00130685
     atom    4 type  1   force =    -0.00021005   -0.00081502   -0.00066486
     atom    5 type  1   force =     0.00363865   -0.00008043    0.00080017

     Total force =     0.006051     Total SCF correction =     0.000034

     number of scf cycles    =  12
     number of bfgs steps    =  11

     energy   old            =    -329.4922222163 Ry
     energy   new            =    -329.4922726613 Ry

     CASE: energy  _new < energy  _old

     new trust radius        =       0.0115656378 bohr
     new conv_thr            =            1.0E-10 Ry


ATOMIC_POSITIONS (bohr)
Au      -2.231140791   3.334707219  -0.484412034
Au      -0.509604919   5.049596458   4.103543663
Au       2.569557472   2.294586744   0.681753153
Au       4.455805664   4.407661867   5.443414053
Au       7.142999574   1.163789710   2.465197166



     Writing output data file pwscf.save
     Check: negative starting charge=   -0.006287
     NEW-OLD atomic charge density approx. for the potential
     Check: negative starting charge=   -0.006285

     negative rho (up, down):  7.528E-06 0.000E+00

     total cpu time spent up to now is       30.2 secs

     per-process dynamical memory:    50.7 Mb

     Self-consistent Calculation

     iteration #  1     ecut=    30.00 Ry     beta=0.70
     Davidson diagonalization with overlap
     ethr =  1.00E-06,  avg # of iterations =  4.0

     Threshold (ethr) on eigenvalues was too large:
     Diagonalizing with lowered threshold

     Davidson diagonalization with overlap
     ethr =  4.62E-08,  avg # of iterations =  1.0

     total cpu time spent up to now is       30.6 secs

     total energy              =    -329.49232258 Ry
     Harris-Foulkes estimate   =    -329.49233119 Ry
     estimated scf accuracy    <       0.00002626 Ry

     iteration #  2     ecut=    30.00 Ry     beta=0.70
     Davidson diagonalization with overlap
     ethr =  4.77E-08,  avg # of iterations =  2.0

     total cpu time spent up to now is       30.8 secs

     total energy              =    -329.49232679 Ry
     Harris-Foulkes estimate   =    -329.49233729 Ry
     estimated scf accuracy    <       0.00002203 Ry

     iteration #  3     ecut=    30.00 Ry     beta=0.70
     Davidson diagonalization with overlap
     ethr =  4.01E-08,  avg # of iterations =  2.0

     total cpu time spent up to now is       31.0 secs

     total energy              =    -329.49233078 Ry
     Harris-Foulkes estimate   =    -329.49233310 Ry
     estimated scf accuracy    <       0.00000521 Ry

     iteration #  4     ecut=    30.00 Ry     beta=0.70
     Davidson diagonalization with overlap
     ethr =  9.47E-09,  avg # of iterations =  2.0

     total cpu time spent up to now is       31.2 secs

     total energy              =    -329.49233181 Ry
     Harris-Foulkes estimate   =    -329.49233248 Ry
     estimated scf accuracy    <       0.00000150 Ry

     iteration #  5     ecut=    30.00 Ry     beta=0.70
     Davidson diagonalization with overlap
     ethr =  2.73E-09,  avg # of iterations =  2.0

     total cpu time spent up to now is       31.4 secs

     total energy              =    -329.49233201 Ry
     Harris-Foulkes estimate   =    -329.49233207 Ry
     estimated scf accuracy    <       0.00000006 Ry

     iteration #  6     ecut=    30.00 Ry     beta=0.70
     Davidson diagonalization with overlap
     ethr =  1.02E-10,  avg # of iterations =  3.0

     total cpu time spent up to now is       31.7 secs

     total energy              =    -329.49233200 Ry
     Harris-Foulkes estimate   =    -329.49233203 Ry
     estimated scf accuracy    <          7.3E-09 Ry

     iteration #  7     ecut=    30.00 Ry     beta=0.70
     Davidson diagonalization with overlap
     ethr =  1.33E-11,  avg # of iterations =  2.0

     total cpu time spent up to now is       31.9 secs

     total energy              =    -329.49233199 Ry
     Harris-Foulkes estimate   =    -329.49233200 Ry
     estimated scf accuracy    <          3.2E-09 Ry

     iteration #  8     ecut=    30.00 Ry     beta=0.70
     Davidson diagonalization with overlap
     ethr =  5.90E-12,  avg # of iterations =  2.0

     total cpu time spent up to now is       32.1 secs

     total energy              =    -329.49233198 Ry
     Harris-Foulkes estimate   =    -329.49233199 Ry
     estimated scf accuracy    <          4.5E-10 Ry

     iteration #  9     ecut=    30.00 Ry     beta=0.70
     Davidson diagonalization with overlap
     ethr =  8.26E-13,  avg # of iterations =  2.0

[...]
     Check: negative starting charge=   -0.006313

     negative rho (up, down):  1.503E-06 0.000E+00

     total cpu time spent up to now is       52.2 secs

     per-process dynamical memory:    50.7 Mb

     Self-consistent Calculation

     iteration #  1     ecut=    30.00 Ry     beta=0.70
     Davidson diagonalization with overlap
     ethr =  1.00E-06,  avg # of iterations =  3.0

     Threshold (ethr) on eigenvalues was too large:
     Diagonalizing with lowered threshold

     Davidson diagonalization with overlap
     ethr =  2.16E-08,  avg # of iterations =  1.0

     total cpu time spent up to now is       52.7 secs

     total energy              =    -329.49281177 Ry
     Harris-Foulkes estimate   =    -329.49281858 Ry
     estimated scf accuracy    <       0.00001258 Ry

     iteration #  2     ecut=    30.00 Ry     beta=0.70
     Davidson diagonalization with overlap
     ethr =  2.29E-08,  avg # of iterations =  3.0

     total cpu time spent up to now is       52.9 secs

     total energy              =    -329.49281349 Ry
     Harris-Foulkes estimate   =    -329.49281876 Ry
     estimated scf accuracy    <       0.00001011 Ry

     iteration #  3     ecut=    30.00 Ry     beta=0.70
     Davidson diagonalization with overlap
     ethr =  1.84E-08,  avg # of iterations =  2.0

     total cpu time spent up to now is       53.1 secs

     total energy              =    -329.49281535 Ry
     Harris-Foulkes estimate   =    -329.49281620 Ry
     estimated scf accuracy    <       0.00000166 Ry

     iteration #  4     ecut=    30.00 Ry     beta=0.70
     Davidson diagonalization with overlap
     ethr =  3.02E-09,  avg # of iterations =  2.0

     total cpu time spent up to now is       53.3 secs

     total energy              =    -329.49281501 Ry
     Harris-Foulkes estimate   =    -329.49281606 Ry
     estimated scf accuracy    <       0.00000096 Ry

     iteration #  5     ecut=    30.00 Ry     beta=0.70
     Davidson diagonalization with overlap
     ethr =  1.74E-09,  avg # of iterations =  2.0

     total cpu time spent up to now is       53.5 secs

     total energy              =    -329.49281509 Ry
     Harris-Foulkes estimate   =    -329.49281518 Ry
     estimated scf accuracy    <       0.00000004 Ry

     iteration #  6     ecut=    30.00 Ry     beta=0.70
     Davidson diagonalization with overlap
     ethr =  6.85E-11,  avg # of iterations =  3.0

     total cpu time spent up to now is       53.7 secs

     total energy              =    -329.49281504 Ry
     Harris-Foulkes estimate   =    -329.49281511 Ry
     estimated scf accuracy    <          5.7E-09 Ry

     iteration #  7     ecut=    30.00 Ry     beta=0.70
     Davidson diagonalization with overlap
     ethr =  1.03E-11,  avg # of iterations =  2.0

     total cpu time spent up to now is       54.0 secs

     total energy              =    -329.49281496 Ry
     Harris-Foulkes estimate   =    -329.49281505 Ry
     estimated scf accuracy    <          2.0E-09 Ry

     iteration #  8     ecut=    30.00 Ry     beta=0.70
     Davidson diagonalization with overlap
     ethr =  3.55E-12,  avg # of iterations =  2.0

     total cpu time spent up to now is       54.2 secs

     total energy              =    -329.49281495 Ry
     Harris-Foulkes estimate   =    -329.49281496 Ry
     estimated scf accuracy    <          3.1E-10 Ry

     iteration #  9     ecut=    30.00 Ry     beta=0.70
     Davidson diagonalization with overlap
     ethr =  5.65E-13,  avg # of iterations =  2.0

     total cpu time spent up to now is       54.4 secs

     End of self-consistent calculation

          k = 0.0000 0.0000 0.0000 ( 22119 PWs)   bands (ev):

    -8.5059  -7.7847  -7.6534  -7.2311  -6.8563  -6.8007  -6.6144  -6.4838
    -6.2931  -6.0720  -5.9526  -5.7637  -5.7214  -5.6860  -5.4545  -5.3667
    -5.3069  -5.2487  -5.2016  -5.1763  -5.1655  -5.1166  -5.0009  -4.9313
    -4.8316  -4.7178  -4.4844  -3.7730  -2.4534  -2.1886  -0.5189  -0.1829
     0.5347   0.7180

     the Fermi energy is    -3.7393 ev

!    total energy              =    -329.49281494 Ry
     Harris-Foulkes estimate   =    -329.49281495 Ry
     estimated scf accuracy    <          7.9E-11 Ry

     The total energy is the sum of the following terms:

     one-electron contribution =    -606.67561319 Ry
     hartree contribution      =     324.77451809 Ry
     xc contribution           =     -51.39864580 Ry
     ewald contribution        =       3.81151175 Ry
     smearing contrib. (-TS)   =      -0.00458579 Ry

     convergence has been achieved in   9 iterations

     Forces acting on atoms (Ry/au):

     atom    1 type  1   force =     0.00081413   -0.00008744    0.00023720
     atom    2 type  1   force =    -0.00065100    0.00095312    0.00030886
     atom    3 type  1   force =    -0.00113859   -0.00045574   -0.00118412
     atom    4 type  1   force =     0.00000222    0.00037488    0.00005427
     atom    5 type  1   force =     0.00097324   -0.00078482    0.00058379

     Total force =     0.002666     Total SCF correction =     0.000036

     number of scf cycles    =  22
     number of bfgs steps    =  21

     energy   old            =    -329.4928021709 Ry
     energy   new            =    -329.4928149415 Ry

     CASE: energy  _new < energy  _old

     new trust radius        =       0.0120721733 bohr
     new conv_thr            =            1.0E-10 Ry


ATOMIC_POSITIONS (bohr)
Au      -2.205695055   3.391893124  -0.502555358
Au      -0.529697185   5.118808288   4.080479936
Au       2.536687353   2.177527044   0.779052869
Au       4.429165285   4.378600933   5.404811382
Au       7.197156602   1.183512611   2.447707172



     Writing output data file pwscf.save
     Check: negative starting charge=   -0.006313
     NEW-OLD atomic charge density approx. for the potential
     Check: negative starting charge=   -0.006309

     negative rho (up, down):  8.884E-06 0.000E+00

     total cpu time spent up to now is       54.6 secs

     per-process dynamical memory:    50.7 Mb

     Self-consistent Calculation

     iteration #  1     ecut=    30.00 Ry     beta=0.70
     Davidson diagonalization with overlap
     ethr =  1.00E-06,  avg # of iterations =  4.0

     Threshold (ethr) on eigenvalues was too large:
     Diagonalizing with lowered threshold

     Davidson diagonalization with overlap
     ethr =  5.14E-08,  avg # of iterations =  1.0

     total cpu time spent up to now is       55.0 secs

     total energy              =    -329.49282120 Ry
     Harris-Foulkes estimate   =    -329.49283586 Ry
     estimated scf accuracy    <       0.00002914 Ry

     iteration #  2     ecut=    30.00 Ry     beta=0.70
     Davidson diagonalization with overlap
     ethr =  5.30E-08,  avg # of iterations =  3.0

     total cpu time spent up to now is       55.3 secs

     total energy              =    -329.49282457 Ry
     Harris-Foulkes estimate   =    -329.49283821 Ry
     estimated scf accuracy    <       0.00002678 Ry

     iteration #  3     ecut=    30.00 Ry     beta=0.70
     Davidson diagonalization with overlap
     ethr =  4.87E-08,  avg # of iterations =  2.0

     total cpu time spent up to now is       55.5 secs

     total energy              =    -329.49282931 Ry
     Harris-Foulkes estimate   =    -329.49283209 Ry
     estimated scf accuracy    <       0.00000575 Ry

     iteration #  4     ecut=    30.00 Ry     beta=0.70
     Davidson diagonalization with overlap
     ethr =  1.05E-08,  avg # of iterations =  2.0

     total cpu time spent up to now is       55.7 secs

     total energy              =    -329.49283056 Ry
     Harris-Foulkes estimate   =    -329.49283120 Ry
     estimated scf accuracy    <       0.00000165 Ry

     iteration #  5     ecut=    30.00 Ry     beta=0.70
     Davidson diagonalization with overlap
     ethr =  3.00E-09,  avg # of iterations =  2.0

     total cpu time spent up to now is       55.9 secs

     total energy              =    -329.49283071 Ry
     Harris-Foulkes estimate   =    -329.49283086 Ry
     estimated scf accuracy    <       0.00000008 Ry

     iteration #  6     ecut=    30.00 Ry     beta=0.70
     Davidson diagonalization with overlap
     ethr =  1.39E-10,  avg # of iterations =  3.0

     total cpu time spent up to now is       56.1 secs

     total energy              =    -329.49283059 Ry
     Harris-Foulkes estimate   =    -329.49283074 Ry
     estimated scf accuracy    <       0.00000001 Ry

     iteration #  7     ecut=    30.00 Ry     beta=0.70
     Davidson diagonalization with overlap
     ethr =  2.01E-11,  avg # of iterations =  2.0

     total cpu time spent up to now is       56.4 secs

     total energy              =    -329.49283061 Ry
     Harris-Foulkes estimate   =    -329.49283059 Ry
     estimated scf accuracy    <          5.1E-09 Ry

     iteration #  8     ecut=    30.00 Ry     beta=0.70
     Davidson diagonalization with overlap
     ethr =  9.24E-12,  avg # of iterations =  2.0

     total cpu time spent up to now is       56.6 secs

     total energy              =    -329.49283058 Ry
     Harris-Foulkes estimate   =    -329.49283062 Ry
     estimated scf accuracy    <          5.3E-10 Ry

     iteration #  9     ecut=    30.00 Ry     beta=0.70
     Davidson diagonalization with overlap
     ethr =  9.58E-13,  avg # of iterations =  2.0

     total cpu time spent up to now is       56.8 secs

     total energy              =    -329.49283055 Ry
     Harris-Foulkes estimate   =    -329.49283058 Ry
     estimated scf accuracy    <          2.0E-10 Ry

     iteration # 10     ecut=    30.00 Ry     beta=0.70
     Davidson diagonalization with overlap
     ethr =  3.69E-13,  avg # of iterations =  2.0

     total cpu time spent up to now is       57.0 secs

     End of self-consistent calculation

          k = 0.0000 0.0000 0.0000 ( 22119 PWs)   bands (ev):

    -8.5036  -7.7809  -7.6507  -7.2276  -6.8551  -6.7999  -6.6126  -6.4807
    -6.2918  -6.0710  -5.9516  -5.7640  -5.7210  -5.6859  -5.4520  -5.3668
    -5.3072  -5.2481  -5.2020  -5.1755  -5.1655  -5.1171  -5.0001  -4.9309
    -4.8311  -4.7200  -4.4834  -3.7748  -2.4526  -2.1894  -0.5183  -0.1842
     0.5363   0.7193

     the Fermi energy is    -3.7415 ev

!    total energy              =    -329.49283054 Ry
     Harris-Foulkes estimate   =    -329.49283055 Ry
     estimated scf accuracy    <          8.8E-12 Ry

     The total energy is the sum of the following terms:

     one-electron contribution =    -606.52643082 Ry
     hartree contribution      =     324.70145497 Ry
     xc contribution           =     -51.39826789 Ry
     ewald contribution        =       3.73492820 Ry
     smearing contrib. (-TS)   =      -0.00451501 Ry

     convergence has been achieved in  10 iterations

     Forces acting on atoms (Ry/au):

     atom    1 type  1   force =     0.00056873   -0.00013034    0.00027447
     atom    2 type  1   force =    -0.00054832    0.00090172   -0.00005065
     atom    3 type  1   force =    -0.00106732   -0.00014664   -0.00075684
     atom    4 type  1   force =     0.00027528    0.00014140   -0.00023599
     atom    5 type  1   force =     0.00077163   -0.00076614    0.00076900

     Total force =     0.002278     Total SCF correction =     0.000015

     number of scf cycles    =  23
     number of bfgs steps    =  22

     energy   old            =    -329.4928149415 Ry
     energy   new            =    -329.4928305398 Ry

     CASE: energy  _new < energy  _old

     new trust radius        =       0.0181082599 bohr
     new conv_thr            =            1.0E-10 Ry


ATOMIC_POSITIONS (bohr)
Au      -2.198371687   3.396931566  -0.504438321
Au      -0.533524327   5.131297110   4.081703299
Au       2.532714670   2.161097053   0.785547655
Au       4.424469183   4.377313335   5.400443795
Au       7.202329160   1.183702936   2.446239572



     Writing output data file pwscf.save
     Check: negative starting charge=   -0.006309
     NEW-OLD atomic charge density approx. for the potential
     Check: negative starting charge=   -0.006302

     negative rho (up, down):  3.779E-05 0.000E+00

     total cpu time spent up to now is       57.2 secs

     per-process dynamical memory:    50.7 Mb

     Self-consistent Calculation

     iteration #  1     ecut=    30.00 Ry     beta=0.70
     Davidson diagonalization with overlap
     ethr =  1.00E-06,  avg # of iterations =  4.0

     negative rho (up, down):  1.172E-07 0.000E+00

     total cpu time spent up to now is       57.6 secs

     total energy              =    -329.49282287 Ry
     Harris-Foulkes estimate   =    -329.49285041 Ry
     estimated scf accuracy    <       0.00006657 Ry

     iteration #  2     ecut=    30.00 Ry     beta=0.70
     Davidson diagonalization with overlap
     ethr =  1.21E-07,  avg # of iterations =  3.0

     total cpu time spent up to now is       57.8 secs

     total energy              =    -329.49283167 Ry
     Harris-Foulkes estimate   =    -329.49286274 Ry
     estimated scf accuracy    <       0.00006329 Ry

     iteration #  3     ecut=    30.00 Ry     beta=0.70
     Davidson diagonalization with overlap
     ethr =  1.15E-07,  avg # of iterations =  2.0

     total cpu time spent up to now is       58.0 secs

     total energy              =    -329.49284293 Ry
     Harris-Foulkes estimate   =    -329.49284940 Ry
     estimated scf accuracy    <       0.00001371 Ry

     iteration #  4     ecut=    30.00 Ry     beta=0.70
     Davidson diagonalization with overlap
     ethr =  2.49E-08,  avg # of iterations =  2.0

     total cpu time spent up to now is       58.2 secs

     total energy              =    -329.49284558 Ry
     Harris-Foulkes estimate   =    -329.49284729 Ry
     estimated scf accuracy    <       0.00000354 Ry

     iteration #  5     ecut=    30.00 Ry     beta=0.70
     Davidson diagonalization with overlap
     ethr =  6.44E-09,  avg # of iterations =  2.0

     total cpu time spent up to now is       58.4 secs

     total energy              =    -329.49284601 Ry
     Harris-Foulkes estimate   =    -329.49284620 Ry
     estimated scf accuracy    <       0.00000016 Ry

     iteration #  6     ecut=    30.00 Ry     beta=0.70
     Davidson diagonalization with overlap
     ethr =  2.87E-10,  avg # of iterations =  3.0

     total cpu time spent up to now is       58.6 secs

     total energy              =    -329.49284608 Ry
     Harris-Foulkes estimate   =    -329.49284607 Ry
     estimated scf accuracy    <       0.00000002 Ry

     iteration #  7     ecut=    30.00 Ry     beta=0.70
     Davidson diagonalization with overlap
     ethr =  3.62E-11,  avg # of iterations =  2.0

     total cpu time spent up to now is       58.9 secs

     total energy              =    -329.49284594 Ry
     Harris-Foulkes estimate   =    -329.49284609 Ry
     estimated scf accuracy    <       0.00000001 Ry

     iteration #  8     ecut=    30.00 Ry     beta=0.70
     Davidson diagonalization with overlap
     ethr =  1.95E-11,  avg # of iterations =  2.0

     total cpu time spent up to now is       59.1 secs

     total energy              =    -329.49284594 Ry
     Harris-Foulkes estimate   =    -329.49284594 Ry
     estimated scf accuracy    <          1.0E-09 Ry

     iteration #  9     ecut=    30.00 Ry     beta=0.70
     Davidson diagonalization with overlap
     ethr =  1.84E-12,  avg # of iterations =  2.0

     total cpu time spent up to now is       59.3 secs

     total energy              =    -329.49284593 Ry
     Harris-Foulkes estimate   =    -329.49284594 Ry
     estimated scf accuracy    <          4.8E-10 Ry

     iteration # 10     ecut=    30.00 Ry     beta=0.70
     Davidson diagonalization with overlap
     ethr =  8.76E-13,  avg # of iterations =  2.0

     total cpu time spent up to now is       59.5 secs

     End of self-consistent calculation

          k = 0.0000 0.0000 0.0000 ( 22119 PWs)   bands (ev):

    -8.5001  -7.7761  -7.6467  -7.2234  -6.8526  -6.7984  -6.6107  -6.4769
    -6.2901  -6.0696  -5.9504  -5.7641  -5.7205  -5.6853  -5.4496  -5.3667
    -5.3074  -5.2477  -5.2022  -5.1743  -5.1659  -5.1177  -4.9995  -4.9306
    -4.8306  -4.7229  -4.4826  -3.7767  -2.4524  -2.1906  -0.5175  -0.1852
     0.5381   0.7209

     the Fermi energy is    -3.7436 ev

!    total energy              =    -329.49284592 Ry
     Harris-Foulkes estimate   =    -329.49284593 Ry
     estimated scf accuracy    <          2.4E-11 Ry

     The total energy is the sum of the following terms:

     one-electron contribution =    -606.30735377 Ry
     hartree contribution      =     324.59381469 Ry
     xc contribution           =     -51.39762292 Ry
     ewald contribution        =       3.62276624 Ry
     smearing contrib. (-TS)   =      -0.00445014 Ry

     convergence has been achieved in  10 iterations

     Forces acting on atoms (Ry/au):

     atom    1 type  1   force =     0.00019139   -0.00028035    0.00025722
     atom    2 type  1   force =    -0.00029326    0.00093708   -0.00042217
     atom    3 type  1   force =    -0.00071896    0.00021370   -0.00012815
     atom    4 type  1   force =     0.00053886   -0.00014092   -0.00061935
     atom    5 type  1   force =     0.00028198   -0.00072951    0.00091245

     Total force =     0.002010     Total SCF correction =     0.000025

     bfgs converged in  24 scf cycles and  23 bfgs steps
     (criteria: energy <  1.0E-04, force <  1.0E-03)

     End of BFGS Geometry Optimization

     Final energy   =    -329.4928459157 Ry
Begin final coordinates

ATOMIC_POSITIONS (bohr)
Au      -2.198371687   3.396931566  -0.504438321
Au      -0.533524327   5.131297110   4.081703299
Au       2.532714670   2.161097053   0.785547655
Au       4.424469183   4.377313335   5.400443795
Au       7.202329160   1.183702936   2.446239572
End final coordinates



     Writing output data file pwscf.save
 
     init_run     :      0.16s CPU      0.19s WALL (       1 calls)
     electrons    :     51.62s CPU     55.21s WALL (      24 calls)
     update_pot   :      1.52s CPU      1.80s WALL (      23 calls)
     forces       :      0.99s CPU      1.01s WALL (      24 calls)

     Called by init_run:
     wfcinit      :      0.07s CPU      0.09s WALL (       1 calls)
     potinit      :      0.03s CPU      0.03s WALL (       1 calls)

     Called by electrons:
     c_bands      :     39.49s CPU     39.95s WALL (     239 calls)
     sum_band     :      5.56s CPU      5.70s WALL (     239 calls)
     v_of_rho     :      4.55s CPU      4.61s WALL (     253 calls)
     mix_rho      :      1.75s CPU      3.81s WALL (     239 calls)

     Called by c_bands:
     init_us_2    :      0.75s CPU      0.78s WALL (     479 calls)
     cegterg      :     35.15s CPU     35.43s WALL (     239 calls)

     Called by sum_band:

     Called by *egterg:
     h_psi        :     27.44s CPU     27.63s WALL (     827 calls)
     g_psi        :      0.27s CPU      0.27s WALL (     587 calls)
     cdiaghg      :      1.85s CPU      1.86s WALL (     793 calls)

     Called by h_psi:
     h_psi:pot    :     27.00s CPU     27.20s WALL (     827 calls)
     h_psi:calbec :      1.49s CPU      1.49s WALL (     827 calls)
     vloc_psi     :     23.81s CPU     23.99s WALL (     827 calls)
     add_vuspsi   :      1.70s CPU      1.71s WALL (     827 calls)

     General routines
     calbec       :      1.77s CPU      1.79s WALL (     923 calls)
     fft          :      2.49s CPU      2.55s WALL (    2850 calls)
     fftw         :     24.99s CPU     25.37s WALL (   53174 calls)
     davcio       :      0.31s CPU      1.99s WALL (    2355 calls)
 
     Parallel routines
     fft_scatter  :      6.42s CPU      6.18s WALL (   56024 calls)
 
     PWSCF        :    54.94s CPU        59.68s WALL

 
   This run was terminated on:   1: 7:58   4Aug2017            

=------------------------------------------------------------------------------=
   JOB DONE.
=------------------------------------------------------------------------------=
