
     Program PWSCF v.6.0 (svn rev. 13079) starts on  4Aug2017 at  5:45:55 

     This program is part of the open-source Quantum ESPRESSO suite
     for quantum simulation of materials; please cite
         "P. Giannozzi et al., J. Phys.:Condens. Matter 21 395502 (2009);
          URL http://www.quantum-espresso.org", 
     in publications or presentations arising from this work. More details at
     http://www.quantum-espresso.org/quote

     Parallel version (MPI), running on    10 processors
     R & G space division:  proc/nbgrp/npool/nimage =      10
     Reading input from input/multi/minchecks-Gold5-763.in

     Current dimensions of program PWSCF are:
     Max number of different atomic species (ntypx) = 10
     Max number of k-points (npk) =  40000
     Max angular momentum in pseudopotentials (lmaxx) =  3
     Message from routine iosys:
     pot_extrapolation='second-order' not available, using 'atomic'
     Message from routine iosys:
     wfc_extrapolation='second-order' not available, using 'atomic'

     Subspace diagonalization in iterative solution of the eigenvalue problem:
     a serial algorithm will be used

 
     Parallelization info
     --------------------
     sticks:   dense  smooth     PW     G-vecs:    dense   smooth      PW
     Min         380     380     94                17748    17748    2208
     Max         381     381     95                17753    17753    2213
     Sum        3809    3809    949               177509   177509   22119
 


     bravais-lattice index     =            1
     lattice parameter (alat)  =      20.0000  a.u.
     unit-cell volume          =    8000.0000 (a.u.)^3
     number of atoms/cell      =            5
     number of atomic types    =            1
     number of electrons       =        55.00
     number of Kohn-Sham states=           34
     kinetic-energy cutoff     =      30.0000  Ry
     charge density cutoff     =     120.0000  Ry
     convergence threshold     =      1.0E-08
     mixing beta               =       0.7000
     number of iterations used =            8  plain     mixing
     Exchange-correlation      = BLYP ( 1  3  1  3 0 0)
     nstep                     =           50


     celldm(1)=  20.000000  celldm(2)=   0.000000  celldm(3)=   0.000000
     celldm(4)=   0.000000  celldm(5)=   0.000000  celldm(6)=   0.000000

     crystal axes: (cart. coord. in units of alat)
               a(1) = (   1.000000   0.000000   0.000000 )  
               a(2) = (   0.000000   1.000000   0.000000 )  
               a(3) = (   0.000000   0.000000   1.000000 )  

     reciprocal axes: (cart. coord. in units 2 pi/alat)
               b(1) = (  1.000000  0.000000  0.000000 )  
               b(2) = (  0.000000  1.000000  0.000000 )  
               b(3) = (  0.000000  0.000000  1.000000 )  


     PseudoPot. # 1 for Au read from file:
     ./Au.blyp-d-hgh.UPF
     MD5 check sum: c10d8bae01f806c36a1643a1c69a8479
     Pseudo is Norm-conserving, Zval = 11.0
     Generated in analytical, separable form
     Using radial grid of 1279 points,  6 beta functions with: 
                l(1) =   0
                l(2) =   0
                l(3) =   1
                l(4) =   1
                l(5) =   2
                l(6) =   2

     atomic species   valence    mass     pseudopotential
        Au            11.00    28.08600     Au( 1.00)

     No symmetry found



   Cartesian axes

     site n.     atom                  positions (alat units)
         1           Au  tau(   1) = (  -0.0988192   0.0287658   0.0186815  )
         2           Au  tau(   2) = (  -0.0304422   0.1809518   0.1992305  )
         3           Au  tau(   3) = (   0.2464619   0.1704936  -0.0017282  )
         4           Au  tau(   4) = (   0.2414495   0.2356343   0.2463951  )
         5           Au  tau(   5) = (   0.2903863  -0.0048700   0.1756111  )

     number of k points=     1  Marzari-Vanderbilt smearing, width (Ry)=  0.0250
                       cart. coord. in units 2pi/alat
        k(    1) = (   0.0000000   0.0000000   0.0000000), wk =   2.0000000

     Dense  grid:   177509 G-vectors     FFT dimensions: (  72,  72,  72)

     Estimated max dynamical RAM per process >      15.04Mb

     Estimated total allocated dynamical RAM >     150.39Mb

     Initial potential from superposition of free atoms
     Check: negative starting charge=   -0.005681

     starting charge   54.99940, renormalised to   55.00000

     negative rho (up, down):  5.681E-03 0.000E+00
     Starting wfc are   45 randomized atomic wfcs

     total cpu time spent up to now is        0.3 secs

     per-process dynamical memory:    41.0 Mb

     Self-consistent Calculation

     iteration #  1     ecut=    30.00 Ry     beta=0.70
     Davidson diagonalization with overlap
     ethr =  1.00E-02,  avg # of iterations =  3.0

     Threshold (ethr) on eigenvalues was too large:
     Diagonalizing with lowered threshold

     Davidson diagonalization with overlap
     ethr =  5.03E-04,  avg # of iterations =  8.0

     negative rho (up, down):  6.862E-04 0.000E+00

     total cpu time spent up to now is        0.7 secs

     total energy              =    -329.25125479 Ry
     Harris-Foulkes estimate   =    -329.45734121 Ry
     estimated scf accuracy    <       0.32334009 Ry

     iteration #  2     ecut=    30.00 Ry     beta=0.70
     Davidson diagonalization with overlap
     ethr =  5.88E-04,  avg # of iterations =  6.0

     negative rho (up, down):  4.000E-04 0.000E+00

     total cpu time spent up to now is        1.0 secs

     total energy              =    -329.07987599 Ry
     Harris-Foulkes estimate   =    -329.48572938 Ry
     estimated scf accuracy    <       1.10549968 Ry

     iteration #  3     ecut=    30.00 Ry     beta=0.70
     Davidson diagonalization with overlap
     ethr =  5.88E-04,  avg # of iterations =  6.0

     negative rho (up, down):  1.573E-04 0.000E+00

     total cpu time spent up to now is        1.3 secs

     total energy              =    -329.36295683 Ry
     Harris-Foulkes estimate   =    -329.45556678 Ry
     estimated scf accuracy    <       0.28961325 Ry

     iteration #  4     ecut=    30.00 Ry     beta=0.70
     Davidson diagonalization with overlap
     ethr =  5.27E-04,  avg # of iterations =  1.0

     negative rho (up, down):  5.942E-05 0.000E+00

     total cpu time spent up to now is        1.5 secs

     total energy              =    -329.38645180 Ry
     Harris-Foulkes estimate   =    -329.39325348 Ry
     estimated scf accuracy    <       0.03140410 Ry

     iteration #  5     ecut=    30.00 Ry     beta=0.70
     Davidson diagonalization with overlap
     ethr =  5.71E-05,  avg # of iterations =  7.0

     negative rho (up, down):  1.014E-06 0.000E+00

     total cpu time spent up to now is        1.7 secs

     total energy              =    -329.38648108 Ry
     Harris-Foulkes estimate   =    -329.39013445 Ry
     estimated scf accuracy    <       0.01390513 Ry

     iteration #  6     ecut=    30.00 Ry     beta=0.70
     Davidson diagonalization with overlap
     ethr =  2.53E-05,  avg # of iterations =  1.0

     total cpu time spent up to now is        1.9 secs

     total energy              =    -329.38677579 Ry
     Harris-Foulkes estimate   =    -329.38807048 Ry
     estimated scf accuracy    <       0.00386883 Ry

     iteration #  7     ecut=    30.00 Ry     beta=0.70
     Davidson diagonalization with overlap
     ethr =  7.03E-06,  avg # of iterations =  6.0

     total cpu time spent up to now is        2.2 secs

     total energy              =    -329.38724120 Ry
     Harris-Foulkes estimate   =    -329.38744996 Ry
     estimated scf accuracy    <       0.00070339 Ry

     iteration #  8     ecut=    30.00 Ry     beta=0.70
     Davidson diagonalization with overlap
     ethr =  1.28E-06,  avg # of iterations =  2.0

     total cpu time spent up to now is        2.4 secs

     total energy              =    -329.38726150 Ry
     Harris-Foulkes estimate   =    -329.38733765 Ry
     estimated scf accuracy    <       0.00023642 Ry

     iteration #  9     ecut=    30.00 Ry     beta=0.70
     Davidson diagonalization with overlap
     ethr =  4.30E-07,  avg # of iterations =  2.0

     total cpu time spent up to now is        2.6 secs

     total energy              =    -329.38725048 Ry
     Harris-Foulkes estimate   =    -329.38728888 Ry
     estimated scf accuracy    <       0.00011341 Ry

     iteration # 10     ecut=    30.00 Ry     beta=0.70
     Davidson diagonalization with overlap
     ethr =  2.06E-07,  avg # of iterations =  2.0

     total cpu time spent up to now is        2.8 secs

     total energy              =    -329.38724425 Ry
     Harris-Foulkes estimate   =    -329.38726404 Ry
     estimated scf accuracy    <       0.00005498 Ry

     iteration # 11     ecut=    30.00 Ry     beta=0.70
     Davidson diagonalization with overlap
     ethr =  1.00E-07,  avg # of iterations =  2.0

     total cpu time spent up to now is        3.0 secs

     total energy              =    -329.38723751 Ry
     Harris-Foulkes estimate   =    -329.38724924 Ry
     estimated scf accuracy    <       0.00002592 Ry

     iteration # 12     ecut=    30.00 Ry     beta=0.70
     Davidson diagonalization with overlap
     ethr =  4.71E-08,  avg # of iterations =  2.0

     total cpu time spent up to now is        3.2 secs

     total energy              =    -329.38722600 Ry
     Harris-Foulkes estimate   =    -329.38723690 Ry
     estimated scf accuracy    <       0.00002032 Ry

     iteration # 13     ecut=    30.00 Ry     beta=0.70
     Davidson diagonalization with overlap
     ethr =  3.69E-08,  avg # of iterations =  4.0

     total cpu time spent up to now is        3.4 secs

     total energy              =    -329.38721924 Ry
     Harris-Foulkes estimate   =    -329.38722342 Ry
     estimated scf accuracy    <       0.00002511 Ry

     iteration # 14     ecut=    30.00 Ry     beta=0.70
     Davidson diagonalization with overlap
     ethr =  3.69E-08,  avg # of iterations =  1.0

     total cpu time spent up to now is        3.6 secs

     total energy              =    -329.38721749 Ry
     Harris-Foulkes estimate   =    -329.38721890 Ry
     estimated scf accuracy    <       0.00003085 Ry

     iteration # 15     ecut=    30.00 Ry     beta=0.70
     Davidson diagonalization with overlap
     ethr =  3.69E-08,  avg # of iterations =  1.0

     total cpu time spent up to now is        3.8 secs

     total energy              =    -329.38723203 Ry
     Harris-Foulkes estimate   =    -329.38721761 Ry
     estimated scf accuracy    <       0.00003334 Ry

     iteration # 16     ecut=    30.00 Ry     beta=0.70
     Davidson diagonalization with overlap
     ethr =  3.69E-08,  avg # of iterations =  2.0

     total cpu time spent up to now is        4.0 secs

     total energy              =    -329.38726195 Ry
     Harris-Foulkes estimate   =    -329.38722919 Ry
     estimated scf accuracy    <       0.00002308 Ry

     iteration # 17     ecut=    30.00 Ry     beta=0.70
     Davidson diagonalization with overlap
     ethr =  3.69E-08,  avg # of iterations =  3.0

     total cpu time spent up to now is        4.3 secs

     total energy              =    -329.38726060 Ry
     Harris-Foulkes estimate   =    -329.38725378 Ry
     estimated scf accuracy    <       0.00002771 Ry

     iteration # 18     ecut=    30.00 Ry     beta=0.70
     Davidson diagonalization with overlap
     ethr =  3.69E-08,  avg # of iterations =  1.0

     total cpu time spent up to now is        4.5 secs

     total energy              =    -329.38724474 Ry
     Harris-Foulkes estimate   =    -329.38726059 Ry
     estimated scf accuracy    <       0.00003147 Ry

     iteration # 19     ecut=    30.00 Ry     beta=0.70
     Davidson diagonalization with overlap
     ethr =  3.69E-08,  avg # of iterations =  3.0

     total cpu time spent up to now is        4.7 secs

     total energy              =    -329.38723162 Ry
     Harris-Foulkes estimate   =    -329.38724327 Ry
     estimated scf accuracy    <       0.00002027 Ry

     iteration # 20     ecut=    30.00 Ry     beta=0.70
     Davidson diagonalization with overlap
     ethr =  3.69E-08,  avg # of iterations =  3.0

     total cpu time spent up to now is        4.9 secs

     total energy              =    -329.38721137 Ry
     Harris-Foulkes estimate   =    -329.38722891 Ry
     estimated scf accuracy    <       0.00002153 Ry

     iteration # 21     ecut=    30.00 Ry     beta=0.70
     Davidson diagonalization with overlap
     ethr =  3.69E-08,  avg # of iterations =  3.0

     total cpu time spent up to now is        5.2 secs

     total energy              =    -329.38726475 Ry
     Harris-Foulkes estimate   =    -329.38718843 Ry
     estimated scf accuracy    <       0.00009606 Ry

     iteration # 22     ecut=    30.00 Ry     beta=0.70
     Davidson diagonalization with overlap
     ethr =  3.69E-08,  avg # of iterations =  3.0

     total cpu time spent up to now is        5.4 secs

     total energy              =    -329.38723249 Ry
     Harris-Foulkes estimate   =    -329.38723062 Ry
     estimated scf accuracy    <       0.00002021 Ry

     iteration # 23     ecut=    30.00 Ry     beta=0.70
     Davidson diagonalization with overlap
     ethr =  3.67E-08,  avg # of iterations =  1.0

     total cpu time spent up to now is        5.6 secs

     total energy              =    -329.38728439 Ry
     Harris-Foulkes estimate   =    -329.38723259 Ry
     estimated scf accuracy    <       0.00001858 Ry

     iteration # 24     ecut=    30.00 Ry     beta=0.70
     Davidson diagonalization with overlap
     ethr =  3.38E-08,  avg # of iterations =  3.0

     total cpu time spent up to now is        5.8 secs

     total energy              =    -329.38729307 Ry
     Harris-Foulkes estimate   =    -329.38727221 Ry
     estimated scf accuracy    <       0.00004613 Ry

     iteration # 25     ecut=    30.00 Ry     beta=0.70
     Davidson diagonalization with overlap
     ethr =  3.38E-08,  avg # of iterations =  2.0

     total cpu time spent up to now is        6.0 secs

     total energy              =    -329.38725325 Ry
     Harris-Foulkes estimate   =    -329.38729362 Ry
     estimated scf accuracy    <       0.00008042 Ry

     iteration # 26     ecut=    30.00 Ry     beta=0.70
     Davidson diagonalization with overlap
     ethr =  3.38E-08,  avg # of iterations =  3.0

     total cpu time spent up to now is        6.3 secs

     total energy              =    -329.38723597 Ry
     Harris-Foulkes estimate   =    -329.38725527 Ry
     estimated scf accuracy    <       0.00002669 Ry

     iteration # 27     ecut=    30.00 Ry     beta=0.70
     Davidson diagonalization with overlap
     ethr =  3.38E-08,  avg # of iterations =  3.0

     total cpu time spent up to now is        6.5 secs

     total energy              =    -329.38721606 Ry
     Harris-Foulkes estimate   =    -329.38723141 Ry
     estimated scf accuracy    <       0.00001963 Ry

     iteration # 28     ecut=    30.00 Ry     beta=0.70
     Davidson diagonalization with overlap
     ethr =  3.38E-08,  avg # of iterations =  3.0

     total cpu time spent up to now is        6.8 secs

     total energy              =    -329.38718082 Ry
     Harris-Foulkes estimate   =    -329.38720273 Ry
     estimated scf accuracy    <       0.00005762 Ry

     iteration # 29     ecut=    30.00 Ry     beta=0.70
     Davidson diagonalization with overlap
     ethr =  3.38E-08,  avg # of iterations =  3.0

     total cpu time spent up to now is        7.0 secs

     total energy              =    -329.38716593 Ry
     Harris-Foulkes estimate   =    -329.38717030 Ry
     estimated scf accuracy    <       0.00015985 Ry

     iteration # 30     ecut=    30.00 Ry     beta=0.70
     Davidson diagonalization with overlap
     ethr =  3.38E-08,  avg # of iterations =  1.0

     total cpu time spent up to now is        7.2 secs

     total energy              =    -329.38717345 Ry
     Harris-Foulkes estimate   =    -329.38716581 Ry
     estimated scf accuracy    <       0.00017960 Ry

     iteration # 31     ecut=    30.00 Ry     beta=0.70
     Davidson diagonalization with overlap
     ethr =  3.38E-08,  avg # of iterations =  1.0

     total cpu time spent up to now is        7.4 secs

     total energy              =    -329.38715408 Ry
     Harris-Foulkes estimate   =    -329.38717303 Ry
     estimated scf accuracy    <       0.00014791 Ry

     iteration # 32     ecut=    30.00 Ry     beta=0.70
     Davidson diagonalization with overlap
     ethr =  3.38E-08,  avg # of iterations =  1.0

     total cpu time spent up to now is        7.6 secs

     total energy              =    -329.38714097 Ry
     Harris-Foulkes estimate   =    -329.38715054 Ry
     estimated scf accuracy    <       0.00025064 Ry

     iteration # 33     ecut=    30.00 Ry     beta=0.70
     Davidson diagonalization with overlap
     ethr =  3.38E-08,  avg # of iterations =  1.0

     total cpu time spent up to now is        7.7 secs

     total energy              =    -329.38723586 Ry
     Harris-Foulkes estimate   =    -329.38714046 Ry
     estimated scf accuracy    <       0.00030421 Ry

     iteration # 34     ecut=    30.00 Ry     beta=0.70
     Davidson diagonalization with overlap
     ethr =  3.38E-08,  avg # of iterations =  2.0

     total cpu time spent up to now is        8.0 secs

     total energy              =    -329.38730780 Ry
     Harris-Foulkes estimate   =    -329.38720104 Ry
     estimated scf accuracy    <       0.00006130 Ry

     iteration # 35     ecut=    30.00 Ry     beta=0.70
     Davidson diagonalization with overlap
     ethr =  3.38E-08,  avg # of iterations =  3.0

     total cpu time spent up to now is        8.2 secs

     total energy              =    -329.38725631 Ry
     Harris-Foulkes estimate   =    -329.38725293 Ry
     estimated scf accuracy    <       0.00002469 Ry

     iteration # 36     ecut=    30.00 Ry     beta=0.70
     Davidson diagonalization with overlap
     ethr =  3.38E-08,  avg # of iterations =  1.0

     total cpu time spent up to now is        8.4 secs

     total energy              =    -329.38726546 Ry
     Harris-Foulkes estimate   =    -329.38725627 Ry
     estimated scf accuracy    <       0.00002686 Ry

     iteration # 37     ecut=    30.00 Ry     beta=0.70
     Davidson diagonalization with overlap
     ethr =  3.38E-08,  avg # of iterations =  2.0

     total cpu time spent up to now is        8.6 secs

     total energy              =    -329.38729730 Ry
     Harris-Foulkes estimate   =    -329.38726543 Ry
     estimated scf accuracy    <       0.00003708 Ry

     iteration # 38     ecut=    30.00 Ry     beta=0.70
     Davidson diagonalization with overlap
     ethr =  3.38E-08,  avg # of iterations =  3.0

     total cpu time spent up to now is        8.9 secs

     total energy              =    -329.38730610 Ry
     Harris-Foulkes estimate   =    -329.38729834 Ry
     estimated scf accuracy    <       0.00008969 Ry

     iteration # 39     ecut=    30.00 Ry     beta=0.70
     Davidson diagonalization with overlap
     ethr =  3.38E-08,  avg # of iterations =  1.0

     total cpu time spent up to now is        9.0 secs

     total energy              =    -329.38737632 Ry
     Harris-Foulkes estimate   =    -329.38730621 Ry
     estimated scf accuracy    <       0.00010379 Ry

     iteration # 40     ecut=    30.00 Ry     beta=0.70
     Davidson diagonalization with overlap
     ethr =  3.38E-08,  avg # of iterations =  3.0

     total cpu time spent up to now is        9.3 secs

     total energy              =    -329.38726696 Ry
     Harris-Foulkes estimate   =    -329.38738520 Ry
     estimated scf accuracy    <       0.00029664 Ry

     iteration # 41     ecut=    30.00 Ry     beta=0.70
     Davidson diagonalization with overlap
     ethr =  3.38E-08,  avg # of iterations =  3.0

     total cpu time spent up to now is        9.6 secs

     total energy              =    -329.38726078 Ry
     Harris-Foulkes estimate   =    -329.38728518 Ry
     estimated scf accuracy    <       0.00006599 Ry

     iteration # 42     ecut=    30.00 Ry     beta=0.70
     Davidson diagonalization with overlap
     ethr =  3.38E-08,  avg # of iterations =  3.0

     total cpu time spent up to now is        9.8 secs

     total energy              =    -329.38723361 Ry
     Harris-Foulkes estimate   =    -329.38726154 Ry
     estimated scf accuracy    <       0.00003271 Ry

     iteration # 43     ecut=    30.00 Ry     beta=0.70
     Davidson diagonalization with overlap
     ethr =  3.38E-08,  avg # of iterations =  4.0

     total cpu time spent up to now is       10.0 secs

     total energy              =    -329.38720525 Ry
     Harris-Foulkes estimate   =    -329.38720601 Ry
     estimated scf accuracy    <       0.00005085 Ry

     iteration # 44     ecut=    30.00 Ry     beta=0.70
     Davidson diagonalization with overlap
     ethr =  3.38E-08,  avg # of iterations =  1.0

     total cpu time spent up to now is       10.2 secs

     total energy              =    -329.38719440 Ry
     Harris-Foulkes estimate   =    -329.38720526 Ry
     estimated scf accuracy    <       0.00005285 Ry

     iteration # 45     ecut=    30.00 Ry     beta=0.70
     Davidson diagonalization with overlap
     ethr =  3.38E-08,  avg # of iterations =  2.0

     total cpu time spent up to now is       10.4 secs

     total energy              =    -329.38716578 Ry
     Harris-Foulkes estimate   =    -329.38719219 Ry
     estimated scf accuracy    <       0.00008619 Ry

     iteration # 46     ecut=    30.00 Ry     beta=0.70
     Davidson diagonalization with overlap
     ethr =  3.38E-08,  avg # of iterations =  2.0

     total cpu time spent up to now is       10.7 secs

     total energy              =    -329.38712406 Ry
     Harris-Foulkes estimate   =    -329.38715484 Ry
     estimated scf accuracy    <       0.00022750 Ry

     iteration # 47     ecut=    30.00 Ry     beta=0.70
     Davidson diagonalization with overlap
     ethr =  3.38E-08,  avg # of iterations =  2.0

     total cpu time spent up to now is       10.9 secs

     total energy              =    -329.38713736 Ry
     Harris-Foulkes estimate   =    -329.38711692 Ry
     estimated scf accuracy    <       0.00043809 Ry

     iteration # 48     ecut=    30.00 Ry     beta=0.70
     Davidson diagonalization with overlap
     ethr =  3.38E-08,  avg # of iterations =  1.0

     total cpu time spent up to now is       11.1 secs

     total energy              =    -329.38719472 Ry
     Harris-Foulkes estimate   =    -329.38713568 Ry
     estimated scf accuracy    <       0.00032231 Ry

     iteration # 49     ecut=    30.00 Ry     beta=0.70
     Davidson diagonalization with overlap
     ethr =  3.38E-08,  avg # of iterations =  2.0

     total cpu time spent up to now is       11.3 secs

     total energy              =    -329.38744784 Ry
     Harris-Foulkes estimate   =    -329.38718053 Ry
     estimated scf accuracy    <       0.00012167 Ry

     iteration # 50     ecut=    30.00 Ry     beta=0.70
     Davidson diagonalization with overlap
     ethr =  3.38E-08,  avg # of iterations =  4.0

     total cpu time spent up to now is       11.6 secs

     total energy              =    -329.38732368 Ry
     Harris-Foulkes estimate   =    -329.38728220 Ry
     estimated scf accuracy    <       0.00006183 Ry

     iteration # 51     ecut=    30.00 Ry     beta=0.70
     Davidson diagonalization with overlap
     ethr =  3.38E-08,  avg # of iterations =  3.0

     total cpu time spent up to now is       11.8 secs

     total energy              =    -329.38760166 Ry
     Harris-Foulkes estimate   =    -329.38732661 Ry
     estimated scf accuracy    <       0.00014991 Ry

     iteration # 52     ecut=    30.00 Ry     beta=0.70
     Davidson diagonalization with overlap
     ethr =  3.38E-08,  avg # of iterations =  5.0

     total cpu time spent up to now is       12.1 secs

     total energy              =    -329.38712916 Ry
     Harris-Foulkes estimate   =    -329.38769468 Ry
     estimated scf accuracy    <       0.00127755 Ry

     iteration # 53     ecut=    30.00 Ry     beta=0.70
     Davidson diagonalization with overlap
     ethr =  3.38E-08,  avg # of iterations =  5.0

     total cpu time spent up to now is       12.4 secs

     total energy              =    -329.38728296 Ry
     Harris-Foulkes estimate   =    -329.38729136 Ry
     estimated scf accuracy    <       0.00007686 Ry

     iteration # 54     ecut=    30.00 Ry     beta=0.70
     Davidson diagonalization with overlap
     ethr =  3.38E-08,  avg # of iterations =  1.0

     total cpu time spent up to now is       12.6 secs

     total energy              =    -329.38744384 Ry
     Harris-Foulkes estimate   =    -329.38728307 Ry
     estimated scf accuracy    <       0.00006384 Ry

     iteration # 55     ecut=    30.00 Ry     beta=0.70
     Davidson diagonalization with overlap
     ethr =  3.38E-08,  avg # of iterations =  4.0

     total cpu time spent up to now is       12.9 secs

     total energy              =    -329.38765290 Ry
     Harris-Foulkes estimate   =    -329.38748429 Ry
     estimated scf accuracy    <       0.00058568 Ry

     iteration # 56     ecut=    30.00 Ry     beta=0.70
     Davidson diagonalization with overlap
     ethr =  3.38E-08,  avg # of iterations =  4.0

     total cpu time spent up to now is       13.2 secs

     total energy              =    -329.38689763 Ry
     Harris-Foulkes estimate   =    -329.38767252 Ry
     estimated scf accuracy    <       0.00120205 Ry

     iteration # 57     ecut=    30.00 Ry     beta=0.70
     Davidson diagonalization with overlap
     ethr =  3.38E-08,  avg # of iterations =  5.0

     total cpu time spent up to now is       13.5 secs

     total energy              =    -329.38718781 Ry
     Harris-Foulkes estimate   =    -329.38721610 Ry
     estimated scf accuracy    <       0.00003394 Ry

     iteration # 58     ecut=    30.00 Ry     beta=0.70
     Davidson diagonalization with overlap
     ethr =  3.38E-08,  avg # of iterations =  3.0

     total cpu time spent up to now is       13.7 secs

     total energy              =    -329.38736663 Ry
     Harris-Foulkes estimate   =    -329.38712890 Ry
     estimated scf accuracy    <       0.00036519 Ry

     iteration # 59     ecut=    30.00 Ry     beta=0.70
     Davidson diagonalization with overlap
     ethr =  3.38E-08,  avg # of iterations =  4.0

     total cpu time spent up to now is       14.0 secs

     total energy              =    -329.38722486 Ry
     Harris-Foulkes estimate   =    -329.38723082 Ry
     estimated scf accuracy    <       0.00001994 Ry

     iteration # 60     ecut=    30.00 Ry     beta=0.70
     Davidson diagonalization with overlap
     ethr =  3.38E-08,  avg # of iterations =  1.0

     total cpu time spent up to now is       14.2 secs

     total energy              =    -329.38720441 Ry
     Harris-Foulkes estimate   =    -329.38722392 Ry
     estimated scf accuracy    <       0.00002549 Ry

     iteration # 61     ecut=    30.00 Ry     beta=0.70
     Davidson diagonalization with overlap
     ethr =  3.38E-08,  avg # of iterations =  3.0

     total cpu time spent up to now is       14.4 secs

     total energy              =    -329.38715812 Ry
     Harris-Foulkes estimate   =    -329.38718332 Ry
     estimated scf accuracy    <       0.00011304 Ry

     iteration # 62     ecut=    30.00 Ry     beta=0.70
     Davidson diagonalization with overlap
     ethr =  3.38E-08,  avg # of iterations =  2.0

     total cpu time spent up to now is       14.6 secs

     total energy              =    -329.38711376 Ry
     Harris-Foulkes estimate   =    -329.38715024 Ry
     estimated scf accuracy    <       0.00025078 Ry

     iteration # 63     ecut=    30.00 Ry     beta=0.70
     Davidson diagonalization with overlap
     ethr =  3.38E-08,  avg # of iterations =  3.0

     total cpu time spent up to now is       14.8 secs

     total energy              =    -329.38704916 Ry
     Harris-Foulkes estimate   =    -329.38710426 Ry
     estimated scf accuracy    <       0.00052133 Ry

     iteration # 64     ecut=    30.00 Ry     beta=0.70
     Davidson diagonalization with overlap
     ethr =  3.38E-08,  avg # of iterations =  2.0

     total cpu time spent up to now is       15.0 secs

     total energy              =    -329.38747518 Ry
     Harris-Foulkes estimate   =    -329.38703540 Ry
     estimated scf accuracy    <       0.00108620 Ry

     iteration # 65     ecut=    30.00 Ry     beta=0.70
     Davidson diagonalization with overlap
     ethr =  3.38E-08,  avg # of iterations =  4.0

     total cpu time spent up to now is       15.3 secs

     total energy              =    -329.38726802 Ry
     Harris-Foulkes estimate   =    -329.38721955 Ry
     estimated scf accuracy    <       0.00002912 Ry

     iteration # 66     ecut=    30.00 Ry     beta=0.70
     Davidson diagonalization with overlap
     ethr =  3.38E-08,  avg # of iterations =  3.0

     total cpu time spent up to now is       15.5 secs

     total energy              =    -329.38726485 Ry
     Harris-Foulkes estimate   =    -329.38724990 Ry
     estimated scf accuracy    <       0.00002251 Ry

     iteration # 67     ecut=    30.00 Ry     beta=0.70
     Davidson diagonalization with overlap
     ethr =  3.38E-08,  avg # of iterations =  2.0

     total cpu time spent up to now is       15.8 secs

     total energy              =    -329.38727495 Ry
     Harris-Foulkes estimate   =    -329.38726418 Ry
     estimated scf accuracy    <       0.00003531 Ry

     iteration # 68     ecut=    30.00 Ry     beta=0.70
     Davidson diagonalization with overlap
     ethr =  3.38E-08,  avg # of iterations =  2.0

     total cpu time spent up to now is       16.0 secs

     total energy              =    -329.38728420 Ry
     Harris-Foulkes estimate   =    -329.38727500 Ry
     estimated scf accuracy    <       0.00004884 Ry

     iteration # 69     ecut=    30.00 Ry     beta=0.70
     Davidson diagonalization with overlap
     ethr =  3.38E-08,  avg # of iterations =  2.0

     total cpu time spent up to now is       16.1 secs

     total energy              =    -329.38729674 Ry
     Harris-Foulkes estimate   =    -329.38728447 Ry
     estimated scf accuracy    <       0.00006373 Ry

     iteration # 70     ecut=    30.00 Ry     beta=0.70
     Davidson diagonalization with overlap
     ethr =  3.38E-08,  avg # of iterations =  2.0

     total cpu time spent up to now is       16.3 secs

     total energy              =    -329.38730037 Ry
     Harris-Foulkes estimate   =    -329.38729711 Ry
     estimated scf accuracy    <       0.00008570 Ry

     iteration # 71     ecut=    30.00 Ry     beta=0.70
     Davidson diagonalization with overlap
     ethr =  3.38E-08,  avg # of iterations =  1.0

     total cpu time spent up to now is       16.5 secs

     total energy              =    -329.38732166 Ry
     Harris-Foulkes estimate   =    -329.38730047 Ry
     estimated scf accuracy    <       0.00009164 Ry

     iteration # 72     ecut=    30.00 Ry     beta=0.70
     Davidson diagonalization with overlap
     ethr =  3.38E-08,  avg # of iterations =  2.0

     total cpu time spent up to now is       16.7 secs

     total energy              =    -329.38727869 Ry
     Harris-Foulkes estimate   =    -329.38732285 Ry
     estimated scf accuracy    <       0.00014104 Ry

     iteration # 73     ecut=    30.00 Ry     beta=0.70
     Davidson diagonalization with overlap
     ethr =  3.38E-08,  avg # of iterations =  3.0

     total cpu time spent up to now is       17.0 secs

     total energy              =    -329.38723232 Ry
     Harris-Foulkes estimate   =    -329.38728194 Ry
     estimated scf accuracy    <       0.00006149 Ry

     iteration # 74     ecut=    30.00 Ry     beta=0.70
     Davidson diagonalization with overlap
     ethr =  3.38E-08,  avg # of iterations =  4.0

     total cpu time spent up to now is       17.2 secs

     total energy              =    -329.38721171 Ry
     Harris-Foulkes estimate   =    -329.38722365 Ry
     estimated scf accuracy    <       0.00002495 Ry

     iteration # 75     ecut=    30.00 Ry     beta=0.70
     Davidson diagonalization with overlap
     ethr =  3.38E-08,  avg # of iterations =  2.0

     total cpu time spent up to now is       17.4 secs

     total energy              =    -329.38718579 Ry
     Harris-Foulkes estimate   =    -329.38720703 Ry
     estimated scf accuracy    <       0.00004985 Ry

     iteration # 76     ecut=    30.00 Ry     beta=0.70
     Davidson diagonalization with overlap
     ethr =  3.38E-08,  avg # of iterations =  3.0

     total cpu time spent up to now is       17.6 secs

     total energy              =    -329.38720032 Ry
     Harris-Foulkes estimate   =    -329.38717486 Ry
     estimated scf accuracy    <       0.00014330 Ry

     iteration # 77     ecut=    30.00 Ry     beta=0.70
     Davidson diagonalization with overlap
     ethr =  3.38E-08,  avg # of iterations =  2.0

     total cpu time spent up to now is       17.9 secs

     total energy              =    -329.38722327 Ry
     Harris-Foulkes estimate   =    -329.38719572 Ry
     estimated scf accuracy    <       0.00007523 Ry

     iteration # 78     ecut=    30.00 Ry     beta=0.70
     Davidson diagonalization with overlap
     ethr =  3.38E-08,  avg # of iterations =  3.0

     total cpu time spent up to now is       18.1 secs

     total energy              =    -329.38723220 Ry
     Harris-Foulkes estimate   =    -329.38721634 Ry
     estimated scf accuracy    <       0.00003334 Ry

     iteration # 79     ecut=    30.00 Ry     beta=0.70
     Davidson diagonalization with overlap
     ethr =  3.38E-08,  avg # of iterations =  2.0

     total cpu time spent up to now is       18.3 secs

     total energy              =    -329.38724492 Ry
     Harris-Foulkes estimate   =    -329.38722884 Ry
     estimated scf accuracy    <       0.00002071 Ry

     iteration # 80     ecut=    30.00 Ry     beta=0.70
     Davidson diagonalization with overlap
     ethr =  3.38E-08,  avg # of iterations =  3.0

     total cpu time spent up to now is       18.5 secs

     total energy              =    -329.38726795 Ry
     Harris-Foulkes estimate   =    -329.38724194 Ry
     estimated scf accuracy    <       0.00001883 Ry

     iteration # 81     ecut=    30.00 Ry     beta=0.70
     Davidson diagonalization with overlap
     ethr =  3.38E-08,  avg # of iterations =  3.0

     total cpu time spent up to now is       18.7 secs

     total energy              =    -329.38726701 Ry
     Harris-Foulkes estimate   =    -329.38726482 Ry
     estimated scf accuracy    <       0.00003644 Ry

     iteration # 82     ecut=    30.00 Ry     beta=0.70
     Davidson diagonalization with overlap
     ethr =  3.38E-08,  avg # of iterations =  1.0

     total cpu time spent up to now is       18.9 secs

     total energy              =    -329.38726917 Ry
     Harris-Foulkes estimate   =    -329.38726703 Ry
     estimated scf accuracy    <       0.00003850 Ry

     iteration # 83     ecut=    30.00 Ry     beta=0.70
     Davidson diagonalization with overlap
     ethr =  3.38E-08,  avg # of iterations =  1.0

     total cpu time spent up to now is       19.1 secs

     total energy              =    -329.38726962 Ry
     Harris-Foulkes estimate   =    -329.38726919 Ry
     estimated scf accuracy    <       0.00004129 Ry

     iteration # 84     ecut=    30.00 Ry     beta=0.70
     Davidson diagonalization with overlap
     ethr =  3.38E-08,  avg # of iterations =  1.0

     total cpu time spent up to now is       19.3 secs

     total energy              =    -329.38729444 Ry
     Harris-Foulkes estimate   =    -329.38726963 Ry
     estimated scf accuracy    <       0.00004190 Ry

     iteration # 85     ecut=    30.00 Ry     beta=0.70
     Davidson diagonalization with overlap
     ethr =  3.38E-08,  avg # of iterations =  2.0

     total cpu time spent up to now is       19.5 secs

     total energy              =    -329.38724921 Ry
     Harris-Foulkes estimate   =    -329.38729536 Ry
     estimated scf accuracy    <       0.00008406 Ry

     iteration # 86     ecut=    30.00 Ry     beta=0.70
     Davidson diagonalization with overlap
     ethr =  3.38E-08,  avg # of iterations =  3.0

     total cpu time spent up to now is       19.7 secs

     total energy              =    -329.38723432 Ry
     Harris-Foulkes estimate   =    -329.38725187 Ry
     estimated scf accuracy    <       0.00002416 Ry

     iteration # 87     ecut=    30.00 Ry     beta=0.70
     Davidson diagonalization with overlap
     ethr =  3.38E-08,  avg # of iterations =  3.0

     total cpu time spent up to now is       20.0 secs

     total energy              =    -329.38721193 Ry
     Harris-Foulkes estimate   =    -329.38722807 Ry
     estimated scf accuracy    <       0.00002185 Ry

     iteration # 88     ecut=    30.00 Ry     beta=0.70
     Davidson diagonalization with overlap
     ethr =  3.38E-08,  avg # of iterations =  3.0

     total cpu time spent up to now is       20.2 secs

     total energy              =    -329.38718701 Ry
     Harris-Foulkes estimate   =    -329.38719957 Ry
     estimated scf accuracy    <       0.00006565 Ry

     iteration # 89     ecut=    30.00 Ry     beta=0.70
     Davidson diagonalization with overlap
     ethr =  3.38E-08,  avg # of iterations =  2.0

     total cpu time spent up to now is       20.4 secs

     total energy              =    -329.38715760 Ry
     Harris-Foulkes estimate   =    -329.38718437 Ry
     estimated scf accuracy    <       0.00011120 Ry

     iteration # 90     ecut=    30.00 Ry     beta=0.70
     Davidson diagonalization with overlap
     ethr =  3.38E-08,  avg # of iterations =  2.0

     total cpu time spent up to now is       20.6 secs

     total energy              =    -329.38762218 Ry
     Harris-Foulkes estimate   =    -329.38714865 Ry
     estimated scf accuracy    <       0.00025857 Ry

     iteration # 91     ecut=    30.00 Ry     beta=0.70
     Davidson diagonalization with overlap
     ethr =  3.38E-08,  avg # of iterations =  4.0

     total cpu time spent up to now is       20.9 secs

     total energy              =    -329.38733981 Ry
     Harris-Foulkes estimate   =    -329.38730135 Ry
     estimated scf accuracy    <       0.00009628 Ry

     iteration # 92     ecut=    30.00 Ry     beta=0.70
     Davidson diagonalization with overlap
     ethr =  3.38E-08,  avg # of iterations =  3.0

     total cpu time spent up to now is       21.1 secs

     total energy              =    -329.38731396 Ry
     Harris-Foulkes estimate   =    -329.38734241 Ry
     estimated scf accuracy    <       0.00018676 Ry

     iteration # 93     ecut=    30.00 Ry     beta=0.70
     Davidson diagonalization with overlap
     ethr =  3.38E-08,  avg # of iterations =  2.0

     total cpu time spent up to now is       21.3 secs

     total energy              =    -329.38737123 Ry
     Harris-Foulkes estimate   =    -329.38731515 Ry
     estimated scf accuracy    <       0.00012639 Ry

     iteration # 94     ecut=    30.00 Ry     beta=0.70
     Davidson diagonalization with overlap
     ethr =  3.38E-08,  avg # of iterations =  3.0

     total cpu time spent up to now is       21.5 secs

     total energy              =    -329.38732067 Ry
     Harris-Foulkes estimate   =    -329.38737613 Ry
     estimated scf accuracy    <       0.00027291 Ry

     iteration # 95     ecut=    30.00 Ry     beta=0.70
     Davidson diagonalization with overlap
     ethr =  3.38E-08,  avg # of iterations =  3.0

     total cpu time spent up to now is       21.8 secs

     total energy              =    -329.38732146 Ry
     Harris-Foulkes estimate   =    -329.38732456 Ry
     estimated scf accuracy    <       0.00014733 Ry

     iteration # 96     ecut=    30.00 Ry     beta=0.70
     Davidson diagonalization with overlap
     ethr =  3.38E-08,  avg # of iterations =  1.0

     total cpu time spent up to now is       21.9 secs

     total energy              =    -329.38731539 Ry
     Harris-Foulkes estimate   =    -329.38732150 Ry
     estimated scf accuracy    <       0.00014101 Ry

     iteration # 97     ecut=    30.00 Ry     beta=0.70
     Davidson diagonalization with overlap
     ethr =  3.38E-08,  avg # of iterations =  1.0

     total cpu time spent up to now is       22.1 secs

     total energy              =    -329.38724710 Ry
     Harris-Foulkes estimate   =    -329.38731548 Ry
     estimated scf accuracy    <       0.00012761 Ry

     iteration # 98     ecut=    30.00 Ry     beta=0.70
     Davidson diagonalization with overlap
     ethr =  3.38E-08,  avg # of iterations =  3.0

     total cpu time spent up to now is       22.4 secs

     total energy              =    -329.38730323 Ry
     Harris-Foulkes estimate   =    -329.38725509 Ry
     estimated scf accuracy    <       0.00002674 Ry

     iteration # 99     ecut=    30.00 Ry     beta=0.70
     Davidson diagonalization with overlap
     ethr =  3.38E-08,  avg # of iterations =  3.0

     total cpu time spent up to now is       22.6 secs

     total energy              =    -329.38723411 Ry
     Harris-Foulkes estimate   =    -329.38730371 Ry
     estimated scf accuracy    <       0.00010130 Ry

     iteration #100     ecut=    30.00 Ry     beta=0.70
     Davidson diagonalization with overlap
     ethr =  3.38E-08,  avg # of iterations =  4.0

     total cpu time spent up to now is       22.9 secs

     total energy              =    -329.38723286 Ry
     Harris-Foulkes estimate   =    -329.38723917 Ry
     estimated scf accuracy    <       0.00001846 Ry

     End of self-consistent calculation

     convergence NOT achieved after 100 iterations: stopping

     Writing output data file pwscf.save
 
     init_run     :      0.16s CPU      0.18s WALL (       1 calls)
     electrons    :     20.82s CPU     22.59s WALL (       1 calls)

     Called by init_run:
     wfcinit      :      0.07s CPU      0.08s WALL (       1 calls)
     potinit      :      0.03s CPU      0.03s WALL (       1 calls)

     Called by electrons:
     c_bands      :     15.15s CPU     15.54s WALL (     101 calls)
     sum_band     :      2.33s CPU      2.39s WALL (     101 calls)
     v_of_rho     :      1.90s CPU      1.91s WALL (     101 calls)
     mix_rho      :      1.35s CPU      2.57s WALL (     101 calls)

     Called by c_bands:
     init_us_2    :      0.30s CPU      0.32s WALL (     203 calls)
     cegterg      :     13.36s CPU     13.67s WALL (     101 calls)

     Called by sum_band:

     Called by *egterg:
     h_psi        :     10.46s CPU     10.53s WALL (     368 calls)
     g_psi        :      0.09s CPU      0.09s WALL (     266 calls)
     cdiaghg      :      0.81s CPU      0.81s WALL (     366 calls)

     Called by h_psi:
     h_psi:pot    :     10.29s CPU     10.37s WALL (     368 calls)
     h_psi:calbec :      0.61s CPU      0.60s WALL (     368 calls)
     vloc_psi     :      9.01s CPU      9.08s WALL (     368 calls)
     add_vuspsi   :      0.68s CPU      0.68s WALL (     368 calls)

     General routines
     calbec       :      0.60s CPU      0.60s WALL (     368 calls)
     fft          :      1.00s CPU      1.01s WALL (    1113 calls)
     fftw         :      9.63s CPU      9.76s WALL (   20420 calls)
     davcio       :      0.19s CPU      1.04s WALL (    1928 calls)
 
     Parallel routines
     fft_scatter  :      2.56s CPU      2.44s WALL (   21533 calls)
 
     PWSCF        :    21.06s CPU        22.97s WALL

 
   This run was terminated on:   5:46:18   4Aug2017            

=------------------------------------------------------------------------------=
   JOB DONE.
=------------------------------------------------------------------------------=
