
     Program PWSCF v.6.0 (svn rev. 13079) starts on  3Aug2017 at 14:34:39 

     This program is part of the open-source Quantum ESPRESSO suite
     for quantum simulation of materials; please cite
         "P. Giannozzi et al., J. Phys.:Condens. Matter 21 395502 (2009);
          URL http://www.quantum-espresso.org", 
     in publications or presentations arising from this work. More details at
     http://www.quantum-espresso.org/quote

     Parallel version (MPI), running on    10 processors
     R & G space division:  proc/nbgrp/npool/nimage =      10
     Reading input from input/multi/minchecks-Gold5-176.in

     Current dimensions of program PWSCF are:
     Max number of different atomic species (ntypx) = 10
     Max number of k-points (npk) =  40000
     Max angular momentum in pseudopotentials (lmaxx) =  3
     Message from routine iosys:
     pot_extrapolation='second-order' not available, using 'atomic'
     Message from routine iosys:
     wfc_extrapolation='second-order' not available, using 'atomic'

     Subspace diagonalization in iterative solution of the eigenvalue problem:
     a serial algorithm will be used

 
     Parallelization info
     --------------------
     sticks:   dense  smooth     PW     G-vecs:    dense   smooth      PW
     Min         380     380     94                17748    17748    2208
     Max         381     381     95                17753    17753    2213
     Sum        3809    3809    949               177509   177509   22119
 


     bravais-lattice index     =            1
     lattice parameter (alat)  =      20.0000  a.u.
     unit-cell volume          =    8000.0000 (a.u.)^3
     number of atoms/cell      =            5
     number of atomic types    =            1
     number of electrons       =        55.00
     number of Kohn-Sham states=           34
     kinetic-energy cutoff     =      30.0000  Ry
     charge density cutoff     =     120.0000  Ry
     convergence threshold     =      1.0E-08
     mixing beta               =       0.7000
     number of iterations used =            8  plain     mixing
     Exchange-correlation      = BLYP ( 1  3  1  3 0 0)
     nstep                     =           50


     celldm(1)=  20.000000  celldm(2)=   0.000000  celldm(3)=   0.000000
     celldm(4)=   0.000000  celldm(5)=   0.000000  celldm(6)=   0.000000

     crystal axes: (cart. coord. in units of alat)
               a(1) = (   1.000000   0.000000   0.000000 )  
               a(2) = (   0.000000   1.000000   0.000000 )  
               a(3) = (   0.000000   0.000000   1.000000 )  

     reciprocal axes: (cart. coord. in units 2 pi/alat)
               b(1) = (  1.000000  0.000000  0.000000 )  
               b(2) = (  0.000000  1.000000  0.000000 )  
               b(3) = (  0.000000  0.000000  1.000000 )  


     PseudoPot. # 1 for Au read from file:
     ./Au.blyp-d-hgh.UPF
     MD5 check sum: c10d8bae01f806c36a1643a1c69a8479
     Pseudo is Norm-conserving, Zval = 11.0
     Generated in analytical, separable form
     Using radial grid of 1279 points,  6 beta functions with: 
                l(1) =   0
                l(2) =   0
                l(3) =   1
                l(4) =   1
                l(5) =   2
                l(6) =   2

     atomic species   valence    mass     pseudopotential
        Au            11.00    28.08600     Au( 1.00)

     No symmetry found



   Cartesian axes

     site n.     atom                  positions (alat units)
         1           Au  tau(   1) = (  -0.0810595   0.0899262  -0.0643564  )
         2           Au  tau(   2) = (  -0.0343136   0.1644948   0.1824072  )
         3           Au  tau(   3) = (   0.1650342   0.0861878   0.0199757  )
         4           Au  tau(   4) = (   0.1916308   0.1836078   0.2955156  )
         5           Au  tau(   5) = (   0.3721583   0.0613380   0.1574090  )

     number of k points=     1  Marzari-Vanderbilt smearing, width (Ry)=  0.0250
                       cart. coord. in units 2pi/alat
        k(    1) = (   0.0000000   0.0000000   0.0000000), wk =   2.0000000

     Dense  grid:   177509 G-vectors     FFT dimensions: (  72,  72,  72)

     Estimated max dynamical RAM per process >      15.04Mb

     Estimated total allocated dynamical RAM >     150.39Mb

     Initial potential from superposition of free atoms
     Check: negative starting charge=   -0.006426

     starting charge   54.99940, renormalised to   55.00000

     negative rho (up, down):  6.426E-03 0.000E+00
     Starting wfc are   45 randomized atomic wfcs

     total cpu time spent up to now is        0.3 secs

     per-process dynamical memory:    41.0 Mb

     Self-consistent Calculation

     iteration #  1     ecut=    30.00 Ry     beta=0.70
     Davidson diagonalization with overlap
     ethr =  1.00E-02,  avg # of iterations =  3.0

     Threshold (ethr) on eigenvalues was too large:
     Diagonalizing with lowered threshold

     Davidson diagonalization with overlap
     ethr =  4.10E-04,  avg # of iterations =  4.0

     negative rho (up, down):  8.975E-04 0.000E+00

     total cpu time spent up to now is        0.7 secs

     total energy              =    -329.37501868 Ry
     Harris-Foulkes estimate   =    -329.54337026 Ry
     estimated scf accuracy    <       0.27927886 Ry

     iteration #  2     ecut=    30.00 Ry     beta=0.70
     Davidson diagonalization with overlap
     ethr =  5.08E-04,  avg # of iterations =  2.0

     negative rho (up, down):  4.097E-04 0.000E+00

     total cpu time spent up to now is        1.0 secs

     total energy              =    -329.40751562 Ry
     Harris-Foulkes estimate   =    -329.56500021 Ry
     estimated scf accuracy    <       0.32587282 Ry

     iteration #  3     ecut=    30.00 Ry     beta=0.70
     Davidson diagonalization with overlap
     ethr =  5.08E-04,  avg # of iterations =  2.0

     negative rho (up, down):  1.528E-04 0.000E+00

     total cpu time spent up to now is        1.3 secs

     total energy              =    -329.47169737 Ry
     Harris-Foulkes estimate   =    -329.49971930 Ry
     estimated scf accuracy    <       0.07307093 Ry

     iteration #  4     ecut=    30.00 Ry     beta=0.70
     Davidson diagonalization with overlap
     ethr =  1.33E-04,  avg # of iterations =  2.0

     negative rho (up, down):  1.912E-05 0.000E+00

     total cpu time spent up to now is        1.5 secs

     total energy              =    -329.48526326 Ry
     Harris-Foulkes estimate   =    -329.48793257 Ry
     estimated scf accuracy    <       0.00704031 Ry

     iteration #  5     ecut=    30.00 Ry     beta=0.70
     Davidson diagonalization with overlap
     ethr =  1.28E-05,  avg # of iterations =  6.0

     negative rho (up, down):  1.397E-08 0.000E+00

     total cpu time spent up to now is        1.8 secs

     total energy              =    -329.48671551 Ry
     Harris-Foulkes estimate   =    -329.48743136 Ry
     estimated scf accuracy    <       0.00188558 Ry

     iteration #  6     ecut=    30.00 Ry     beta=0.70
     Davidson diagonalization with overlap
     ethr =  3.43E-06,  avg # of iterations =  2.0

     total cpu time spent up to now is        2.0 secs

     total energy              =    -329.48703603 Ry
     Harris-Foulkes estimate   =    -329.48720187 Ry
     estimated scf accuracy    <       0.00036648 Ry

     iteration #  7     ecut=    30.00 Ry     beta=0.70
     Davidson diagonalization with overlap
     ethr =  6.66E-07,  avg # of iterations =  2.0

     total cpu time spent up to now is        2.2 secs

     total energy              =    -329.48711295 Ry
     Harris-Foulkes estimate   =    -329.48713414 Ry
     estimated scf accuracy    <       0.00004669 Ry

     iteration #  8     ecut=    30.00 Ry     beta=0.70
     Davidson diagonalization with overlap
     ethr =  8.49E-08,  avg # of iterations =  2.0

     total cpu time spent up to now is        2.5 secs

     total energy              =    -329.48712182 Ry
     Harris-Foulkes estimate   =    -329.48712726 Ry
     estimated scf accuracy    <       0.00001156 Ry

     iteration #  9     ecut=    30.00 Ry     beta=0.70
     Davidson diagonalization with overlap
     ethr =  2.10E-08,  avg # of iterations =  2.0

     total cpu time spent up to now is        2.8 secs

     total energy              =    -329.48712382 Ry
     Harris-Foulkes estimate   =    -329.48712477 Ry
     estimated scf accuracy    <       0.00000155 Ry

     iteration # 10     ecut=    30.00 Ry     beta=0.70
     Davidson diagonalization with overlap
     ethr =  2.83E-09,  avg # of iterations =  2.0

     total cpu time spent up to now is        3.0 secs

     total energy              =    -329.48712402 Ry
     Harris-Foulkes estimate   =    -329.48712436 Ry
     estimated scf accuracy    <       0.00000048 Ry

     iteration # 11     ecut=    30.00 Ry     beta=0.70
     Davidson diagonalization with overlap
     ethr =  8.76E-10,  avg # of iterations =  2.0

     total cpu time spent up to now is        3.2 secs

     total energy              =    -329.48712408 Ry
     Harris-Foulkes estimate   =    -329.48712413 Ry
     estimated scf accuracy    <       0.00000007 Ry

     iteration # 12     ecut=    30.00 Ry     beta=0.70
     Davidson diagonalization with overlap
     ethr =  1.27E-10,  avg # of iterations =  2.0

     total cpu time spent up to now is        3.5 secs

     End of self-consistent calculation

          k = 0.0000 0.0000 0.0000 ( 22119 PWs)   bands (ev):

    -8.3045  -7.6304  -7.6022  -7.1720  -7.0350  -6.7186  -6.5637  -6.4095
    -6.2931  -5.9998  -5.9417  -5.7078  -5.6626  -5.5999  -5.4158  -5.3614
    -5.3372  -5.2439  -5.2176  -5.1814  -5.1419  -5.1357  -4.9809  -4.9166
    -4.8784  -4.6311  -4.4608  -3.8222  -2.4965  -2.1953  -0.5225  -0.2320
     0.3842   0.7510

     the Fermi energy is    -3.8038 ev

!    total energy              =    -329.48712408 Ry
     Harris-Foulkes estimate   =    -329.48712410 Ry
     estimated scf accuracy    <          9.7E-09 Ry

     The total energy is the sum of the following terms:

     one-electron contribution =    -602.09654940 Ry
     hartree contribution      =     322.53777452 Ry
     xc contribution           =     -51.38875366 Ry
     ewald contribution        =       1.46147576 Ry
     smearing contrib. (-TS)   =      -0.00107131 Ry

     convergence has been achieved in  12 iterations

     Forces acting on atoms (Ry/au):

     atom    1 type  1   force =     0.01293089    0.00327821    0.00995846
     atom    2 type  1   force =    -0.00452022   -0.00138605   -0.01567521
     atom    3 type  1   force =    -0.02308234    0.00029458    0.00433898
     atom    4 type  1   force =     0.01007120   -0.00444174   -0.00283578
     atom    5 type  1   force =     0.00460046    0.00225499    0.00421355

     Total force =     0.035638     Total SCF correction =     0.000283

     BFGS Geometry Optimization

     number of scf cycles    =   1
     number of bfgs steps    =   0

     energy   new            =    -329.4871240774 Ry

     new trust radius        =       0.0234884668 bohr
     new conv_thr            =       0.0000000100 Ry


ATOMIC_POSITIONS (bohr)
Au      -1.608258106   1.801801210  -1.277170538
Au      -0.690792219   3.288509950   3.632467786
Au       3.277602657   1.724051584   0.403851979
Au       3.842688203   3.667714262   5.907476222
Au       7.447766464   1.229015994   3.152394551



     Writing output data file pwscf.save
     Check: negative starting charge=   -0.006426
     NEW-OLD atomic charge density approx. for the potential
     Check: negative starting charge=   -0.006424

     negative rho (up, down):  8.512E-05 0.000E+00

     total cpu time spent up to now is        3.8 secs

     per-process dynamical memory:    42.9 Mb

     Self-consistent Calculation

     iteration #  1     ecut=    30.00 Ry     beta=0.70
     Davidson diagonalization with overlap
     ethr =  1.00E-06,  avg # of iterations =  4.0

     negative rho (up, down):  7.158E-07 0.000E+00

     total cpu time spent up to now is        4.2 secs

     total energy              =    -329.48814807 Ry
     Harris-Foulkes estimate   =    -329.48817573 Ry
     estimated scf accuracy    <       0.00011266 Ry

     iteration #  2     ecut=    30.00 Ry     beta=0.70
     Davidson diagonalization with overlap
     ethr =  2.05E-07,  avg # of iterations =  3.0

     negative rho (up, down):  1.476E-07 0.000E+00

     total cpu time spent up to now is        4.5 secs

     total energy              =    -329.48812791 Ry
     Harris-Foulkes estimate   =    -329.48827899 Ry
     estimated scf accuracy    <       0.00041607 Ry

     iteration #  3     ecut=    30.00 Ry     beta=0.70
     Davidson diagonalization with overlap
     ethr =  2.05E-07,  avg # of iterations =  2.0

     total cpu time spent up to now is        4.8 secs

     total energy              =    -329.48820286 Ry
     Harris-Foulkes estimate   =    -329.48820726 Ry
     estimated scf accuracy    <       0.00001761 Ry

     iteration #  4     ecut=    30.00 Ry     beta=0.70
     Davidson diagonalization with overlap
     ethr =  3.20E-08,  avg # of iterations =  2.0

     total cpu time spent up to now is        5.0 secs

     total energy              =    -329.48820621 Ry
     Harris-Foulkes estimate   =    -329.48820882 Ry
     estimated scf accuracy    <       0.00000790 Ry

     iteration #  5     ecut=    30.00 Ry     beta=0.70
     Davidson diagonalization with overlap
     ethr =  1.44E-08,  avg # of iterations =  2.0

     total cpu time spent up to now is        5.3 secs

     total energy              =    -329.48820781 Ry
     Harris-Foulkes estimate   =    -329.48820847 Ry
     estimated scf accuracy    <       0.00000216 Ry

     iteration #  6     ecut=    30.00 Ry     beta=0.70
     Davidson diagonalization with overlap
     ethr =  3.92E-09,  avg # of iterations =  2.0

     total cpu time spent up to now is        5.7 secs

     total energy              =    -329.48820841 Ry
     Harris-Foulkes estimate   =    -329.48820825 Ry
     estimated scf accuracy    <       0.00000010 Ry

     iteration #  7     ecut=    30.00 Ry     beta=0.70
     Davidson diagonalization with overlap
     ethr =  1.90E-10,  avg # of iterations =  2.0

     total cpu time spent up to now is        5.9 secs

     End of self-consistent calculation

          k = 0.0000 0.0000 0.0000 ( 22119 PWs)   bands (ev):

    -8.3282  -7.6540  -7.6072  -7.1853  -7.0397  -6.7259  -6.5788  -6.4251
    -6.2965  -6.0141  -5.9503  -5.7196  -5.6810  -5.6128  -5.4203  -5.3579
    -5.3479  -5.2420  -5.2134  -5.1861  -5.1504  -5.1389  -4.9862  -4.9245
    -4.8872  -4.6246  -4.4709  -3.8070  -2.4942  -2.1965  -0.5253  -0.2251
     0.3843   0.7479

     the Fermi energy is    -3.7839 ev

!    total energy              =    -329.48820843 Ry
     Harris-Foulkes estimate   =    -329.48820845 Ry
     estimated scf accuracy    <          7.1E-09 Ry

     The total energy is the sum of the following terms:

     one-electron contribution =    -603.09965399 Ry
     hartree contribution      =     323.02560307 Ry
     xc contribution           =     -51.38991716 Ry
     ewald contribution        =       1.97784368 Ry
     smearing contrib. (-TS)   =      -0.00208403 Ry

     convergence has been achieved in   7 iterations

     Forces acting on atoms (Ry/au):

     atom    1 type  1   force =     0.00951310    0.00257174    0.00667787
     atom    2 type  1   force =    -0.00322498    0.00002208   -0.01103789
     atom    3 type  1   force =    -0.01586559   -0.00064385    0.00567662
     atom    4 type  1   force =     0.00704191   -0.00403918   -0.00311669
     atom    5 type  1   force =     0.00253556    0.00208921    0.00180010

     Total force =     0.025455     Total SCF correction =     0.000350

     number of scf cycles    =   2
     number of bfgs steps    =   1

     energy   old            =    -329.4871240774 Ry
     energy   new            =    -329.4882084256 Ry

     CASE: energy  _new < energy  _old

     new trust radius        =       0.0258373134 bohr
     new conv_thr            =       0.0000000011 Ry


ATOMIC_POSITIONS (bohr)
Au      -1.593689767   1.805728238  -1.266898145
Au      -0.695738060   3.288469988   3.615529380
Au       3.253227102   1.723126537   0.412369217
Au       3.853498192   3.661583295   5.902776295
Au       7.451709533   1.232184942   3.155243253



     Writing output data file pwscf.save
     Check: negative starting charge=   -0.006424
     NEW-OLD atomic charge density approx. for the potential
     Check: negative starting charge=   -0.006419

     negative rho (up, down):  1.111E-04 0.000E+00

     total cpu time spent up to now is        6.3 secs

     per-process dynamical memory:    50.7 Mb

     Self-consistent Calculation

     iteration #  1     ecut=    30.00 Ry     beta=0.70
     Davidson diagonalization with overlap
     ethr =  1.00E-06,  avg # of iterations =  4.0

     negative rho (up, down):  1.199E-06 0.000E+00

     total cpu time spent up to now is        6.7 secs

     total energy              =    -329.48893669 Ry
     Harris-Foulkes estimate   =    -329.48895958 Ry
     estimated scf accuracy    <       0.00012333 Ry

     iteration #  2     ecut=    30.00 Ry     beta=0.70
     Davidson diagonalization with overlap
     ethr =  2.24E-07,  avg # of iterations =  3.0

     negative rho (up, down):  2.423E-07 0.000E+00

     total cpu time spent up to now is        6.9 secs

     total energy              =    -329.48891840 Ry
     Harris-Foulkes estimate   =    -329.48906757 Ry
     estimated scf accuracy    <       0.00039693 Ry

     iteration #  3     ecut=    30.00 Ry     beta=0.70
     Davidson diagonalization with overlap
     ethr =  2.24E-07,  avg # of iterations =  2.0

     total cpu time spent up to now is        7.2 secs

     total energy              =    -329.48899291 Ry
     Harris-Foulkes estimate   =    -329.48899964 Ry
     estimated scf accuracy    <       0.00002418 Ry

     iteration #  4     ecut=    30.00 Ry     beta=0.70
     Davidson diagonalization with overlap
     ethr =  4.40E-08,  avg # of iterations =  2.0

     total cpu time spent up to now is        7.4 secs

     total energy              =    -329.48899817 Ry
     Harris-Foulkes estimate   =    -329.48899995 Ry
     estimated scf accuracy    <       0.00000717 Ry

     iteration #  5     ecut=    30.00 Ry     beta=0.70
     Davidson diagonalization with overlap
     ethr =  1.30E-08,  avg # of iterations =  2.0

     total cpu time spent up to now is        7.6 secs

     total energy              =    -329.48899979 Ry
     Harris-Foulkes estimate   =    -329.48900053 Ry
     estimated scf accuracy    <       0.00000286 Ry

     iteration #  6     ecut=    30.00 Ry     beta=0.70
     Davidson diagonalization with overlap
     ethr =  5.20E-09,  avg # of iterations =  2.0

     total cpu time spent up to now is        7.8 secs

     total energy              =    -329.48900050 Ry
     Harris-Foulkes estimate   =    -329.48900034 Ry
     estimated scf accuracy    <       0.00000012 Ry

     iteration #  7     ecut=    30.00 Ry     beta=0.70
     Davidson diagonalization with overlap
     ethr =  2.11E-10,  avg # of iterations =  3.0

     total cpu time spent up to now is        8.1 secs

     total energy              =    -329.48900053 Ry
     Harris-Foulkes estimate   =    -329.48900054 Ry
     estimated scf accuracy    <          7.1E-09 Ry

     iteration #  8     ecut=    30.00 Ry     beta=0.70
     Davidson diagonalization with overlap
     ethr =  1.28E-11,  avg # of iterations =  3.0

     total cpu time spent up to now is        8.4 secs

     total energy              =    -329.48900049 Ry
     Harris-Foulkes estimate   =    -329.48900053 Ry
     estimated scf accuracy    <          2.5E-09 Ry

     iteration #  9     ecut=    30.00 Ry     beta=0.70
     Davidson diagonalization with overlap
     ethr =  4.63E-12,  avg # of iterations =  2.0

     total cpu time spent up to now is        8.6 secs

     End of self-consistent calculation

          k = 0.0000 0.0000 0.0000 ( 22119 PWs)   bands (ev):

    -8.3619  -7.6848  -7.6142  -7.2028  -7.0449  -6.7412  -6.5957  -6.4424
    -6.3007  -6.0292  -5.9594  -5.7342  -5.6979  -5.6255  -5.4231  -5.3594
    -5.3526  -5.2397  -5.2100  -5.1882  -5.1620  -5.1363  -4.9902  -4.9307
    -4.8944  -4.6166  -4.4798  -3.7903  -2.4895  -2.1958  -0.5290  -0.2174
     0.3858   0.7463

     the Fermi energy is    -3.7630 ev

!    total energy              =    -329.48900049 Ry
     Harris-Foulkes estimate   =    -329.48900049 Ry
     estimated scf accuracy    <          4.2E-10 Ry

     The total energy is the sum of the following terms:

     one-electron contribution =    -604.38902341 Ry
     hartree contribution      =     323.65474732 Ry
     xc contribution           =     -51.39245670 Ry
     ewald contribution        =       2.64074464 Ry
     smearing contrib. (-TS)   =      -0.00301235 Ry

     convergence has been achieved in   9 iterations

     Forces acting on atoms (Ry/au):

     atom    1 type  1   force =     0.00572853    0.00173205    0.00286580
     atom    2 type  1   force =    -0.00223904    0.00154378   -0.00598828
     atom    3 type  1   force =    -0.00868531   -0.00161724    0.00669419
     atom    4 type  1   force =     0.00396847   -0.00338485   -0.00307650
     atom    5 type  1   force =     0.00122734    0.00172626   -0.00049520

     Total force =     0.015860     Total SCF correction =     0.000080

     number of scf cycles    =   3
     number of bfgs steps    =   2

     energy   old            =    -329.4882084256 Ry
     energy   new            =    -329.4890004915 Ry

     CASE: energy  _new < energy  _old

     new trust radius        =       0.0387559701 bohr
     new conv_thr            =       0.0000000008 Ry


ATOMIC_POSITIONS (bohr)
Au      -1.572657933   1.811784085  -1.254549105
Au      -0.703550148   3.291675086   3.592473789
Au       3.219821438   1.719172908   0.431616443
Au       3.868547689   3.650717211   5.893460874
Au       7.456845953   1.237743710   3.156017999



     Writing output data file pwscf.save
     Check: negative starting charge=   -0.006419
     NEW-OLD atomic charge density approx. for the potential
     Check: negative starting charge=   -0.006408

     negative rho (up, down):  2.784E-04 0.000E+00

     total cpu time spent up to now is        8.8 secs

     per-process dynamical memory:    50.7 Mb

     Self-consistent Calculation

     iteration #  1     ecut=    30.00 Ry     beta=0.70
     Davidson diagonalization with overlap
     ethr =  1.00E-06,  avg # of iterations =  4.0

     negative rho (up, down):  7.091E-06 0.000E+00

     total cpu time spent up to now is        9.2 secs

     total energy              =    -329.48940778 Ry
     Harris-Foulkes estimate   =    -329.48940808 Ry
     estimated scf accuracy    <       0.00024673 Ry

     iteration #  2     ecut=    30.00 Ry     beta=0.70
     Davidson diagonalization with overlap
     ethr =  4.49E-07,  avg # of iterations =  3.0

     negative rho (up, down):  1.840E-06 0.000E+00

     total cpu time spent up to now is        9.5 secs

     total energy              =    -329.48938298 Ry
     Harris-Foulkes estimate   =    -329.48963866 Ry
     estimated scf accuracy    <       0.00064459 Ry

     iteration #  3     ecut=    30.00 Ry     beta=0.70
     Davidson diagonalization with overlap
     ethr =  4.49E-07,  avg # of iterations =  2.0

     negative rho (up, down):  4.564E-08 0.000E+00

     total cpu time spent up to now is        9.8 secs

     total energy              =    -329.48950945 Ry
     Harris-Foulkes estimate   =    -329.48952977 Ry
     estimated scf accuracy    <       0.00006438 Ry

     iteration #  4     ecut=    30.00 Ry     beta=0.70
     Davidson diagonalization with overlap
     ethr =  1.17E-07,  avg # of iterations =  2.0

     total cpu time spent up to now is       10.0 secs

     total energy              =    -329.48952338 Ry
     Harris-Foulkes estimate   =    -329.48952558 Ry
     estimated scf accuracy    <       0.00001132 Ry

     iteration #  5     ecut=    30.00 Ry     beta=0.70
     Davidson diagonalization with overlap
     ethr =  2.06E-08,  avg # of iterations =  2.0

     total cpu time spent up to now is       10.2 secs

     total energy              =    -329.48952565 Ry
     Harris-Foulkes estimate   =    -329.48952761 Ry
     estimated scf accuracy    <       0.00000630 Ry

     iteration #  6     ecut=    30.00 Ry     beta=0.70
     Davidson diagonalization with overlap
     ethr =  1.14E-08,  avg # of iterations =  2.0

     total cpu time spent up to now is       10.4 secs

     total energy              =    -329.48952679 Ry
     Harris-Foulkes estimate   =    -329.48952683 Ry
     estimated scf accuracy    <       0.00000024 Ry

     iteration #  7     ecut=    30.00 Ry     beta=0.70
     Davidson diagonalization with overlap
     ethr =  4.40E-10,  avg # of iterations =  3.0

     total cpu time spent up to now is       10.7 secs

     total energy              =    -329.48952681 Ry
     Harris-Foulkes estimate   =    -329.48952687 Ry
     estimated scf accuracy    <       0.00000002 Ry

     iteration #  8     ecut=    30.00 Ry     beta=0.70
     Davidson diagonalization with overlap
     ethr =  2.94E-11,  avg # of iterations =  2.0

     total cpu time spent up to now is       10.9 secs

     total energy              =    -329.48952677 Ry
     Harris-Foulkes estimate   =    -329.48952681 Ry
     estimated scf accuracy    <          3.9E-09 Ry

     iteration #  9     ecut=    30.00 Ry     beta=0.70
     Davidson diagonalization with overlap
     ethr =  7.10E-12,  avg # of iterations =  3.0

     total cpu time spent up to now is       11.2 secs

     total energy              =    -329.48952675 Ry
     Harris-Foulkes estimate   =    -329.48952677 Ry
     estimated scf accuracy    <          9.3E-10 Ry

     iteration # 10     ecut=    30.00 Ry     beta=0.70
     Davidson diagonalization with overlap
     ethr =  1.69E-12,  avg # of iterations =  3.0

     total cpu time spent up to now is       11.4 secs

     End of self-consistent calculation

          k = 0.0000 0.0000 0.0000 ( 22119 PWs)   bands (ev):

    -8.4200  -7.7328  -7.6289  -7.2323  -7.0513  -6.7731  -6.6188  -6.4669
    -6.3076  -6.0496  -5.9737  -5.7560  -5.7167  -5.6428  -5.4242  -5.3743
    -5.3455  -5.2362  -5.2092  -5.1866  -5.1751  -5.1313  -4.9939  -4.9360
    -4.9019  -4.6053  -4.4899  -3.7673  -2.4804  -2.1929  -0.5350  -0.2063
     0.3897   0.7467

     the Fermi energy is    -3.7354 ev

!    total energy              =    -329.48952671 Ry
     Harris-Foulkes estimate   =    -329.48952675 Ry
     estimated scf accuracy    <          1.6E-10 Ry

     The total energy is the sum of the following terms:

     one-electron contribution =    -606.43229003 Ry
     hartree contribution      =     324.65524900 Ry
     xc contribution           =     -51.39808491 Ry
     ewald contribution        =       3.68966276 Ry
     smearing contrib. (-TS)   =      -0.00406353 Ry

     convergence has been achieved in  10 iterations

     Forces acting on atoms (Ry/au):

     atom    1 type  1   force =     0.00035775    0.00048546   -0.00288198
     atom    2 type  1   force =    -0.00150944    0.00364583    0.00110009
     atom    3 type  1   force =     0.00051649   -0.00298450    0.00741716
     atom    4 type  1   force =     0.00001186   -0.00209227   -0.00231448
     atom    5 type  1   force =     0.00062334    0.00094547   -0.00332078

     Total force =     0.010568     Total SCF correction =     0.000046

     number of scf cycles    =   4
     number of bfgs steps    =   3

     energy   old            =    -329.4890004915 Ry
     energy   new            =    -329.4895267113 Ry

     CASE: energy  _new < energy  _old

     new trust radius        =       0.0167653147 bohr
     new conv_thr            =       0.0000000005 Ry


ATOMIC_POSITIONS (bohr)
Au      -1.566287241   1.814019243  -1.254215282
Au      -0.707538261   3.296518390   3.587085417
Au       3.210665709   1.714828418   0.444972109
Au       3.872923668   3.645432190   5.888436726
Au       7.459243124   1.240294759   3.152741030



     Writing output data file pwscf.save
     Check: negative starting charge=   -0.006408
     NEW-OLD atomic charge density approx. for the potential
     Check: negative starting charge=   -0.006403

     negative rho (up, down):  2.174E-05 0.000E+00

     total cpu time spent up to now is       11.7 secs

     per-process dynamical memory:    50.7 Mb

     Self-consistent Calculation

     iteration #  1     ecut=    30.00 Ry     beta=0.70
     Davidson diagonalization with overlap
     ethr =  1.00E-06,  avg # of iterations =  4.0

     Threshold (ethr) on eigenvalues was too large:
     Diagonalizing with lowered threshold

     Davidson diagonalization with overlap
     ethr =  6.91E-08,  avg # of iterations =  1.0

     negative rho (up, down):  3.790E-08 0.000E+00

     total cpu time spent up to now is       12.3 secs

     total energy              =    -329.48965502 Ry
     Harris-Foulkes estimate   =    -329.48966072 Ry
     estimated scf accuracy    <       0.00003800 Ry

     iteration #  2     ecut=    30.00 Ry     beta=0.70
     Davidson diagonalization with overlap
     ethr =  6.91E-08,  avg # of iterations =  3.0

     total cpu time spent up to now is       12.7 secs

     total energy              =    -329.48965952 Ry
     Harris-Foulkes estimate   =    -329.48967691 Ry
     estimated scf accuracy    <       0.00003814 Ry

     iteration #  3     ecut=    30.00 Ry     beta=0.70
     Davidson diagonalization with overlap
     ethr =  6.91E-08,  avg # of iterations =  2.0

     total cpu time spent up to now is       12.9 secs

     total energy              =    -329.48966750 Ry
     Harris-Foulkes estimate   =    -329.48967137 Ry
     estimated scf accuracy    <       0.00001185 Ry

     iteration #  4     ecut=    30.00 Ry     beta=0.70
     Davidson diagonalization with overlap
     ethr =  2.15E-08,  avg # of iterations =  2.0

     total cpu time spent up to now is       13.1 secs

     total energy              =    -329.48967019 Ry
     Harris-Foulkes estimate   =    -329.48967060 Ry
     estimated scf accuracy    <       0.00000191 Ry

     iteration #  5     ecut=    30.00 Ry     beta=0.70
     Davidson diagonalization with overlap
     ethr =  3.48E-09,  avg # of iterations =  2.0

     total cpu time spent up to now is       13.3 secs

     total energy              =    -329.48967049 Ry
     Harris-Foulkes estimate   =    -329.48967066 Ry
     estimated scf accuracy    <       0.00000038 Ry

     iteration #  6     ecut=    30.00 Ry     beta=0.70
     Davidson diagonalization with overlap
     ethr =  6.93E-10,  avg # of iterations =  2.0

     total cpu time spent up to now is       13.6 secs

     total energy              =    -329.48967057 Ry
     Harris-Foulkes estimate   =    -329.48967057 Ry
     estimated scf accuracy    <       0.00000004 Ry

     iteration #  7     ecut=    30.00 Ry     beta=0.70
     Davidson diagonalization with overlap
     ethr =  6.70E-11,  avg # of iterations =  2.0

     total cpu time spent up to now is       13.8 secs

     total energy              =    -329.48967050 Ry
     Harris-Foulkes estimate   =    -329.48967058 Ry
     estimated scf accuracy    <          3.7E-09 Ry

     iteration #  8     ecut=    30.00 Ry     beta=0.70
     Davidson diagonalization with overlap
     ethr =  6.78E-12,  avg # of iterations =  3.0

     total cpu time spent up to now is       14.1 secs

     total energy              =    -329.48967051 Ry
     Harris-Foulkes estimate   =    -329.48967050 Ry
     estimated scf accuracy    <          1.0E-09 Ry

     iteration #  9     ecut=    30.00 Ry     beta=0.70
     Davidson diagonalization with overlap
     ethr =  1.89E-12,  avg # of iterations =  3.0

     total cpu time spent up to now is       14.3 secs

     End of self-consistent calculation

          k = 0.0000 0.0000 0.0000 ( 22119 PWs)   bands (ev):

    -8.4399  -7.7488  -7.6355  -7.2426  -7.0507  -6.7846  -6.6242  -6.4751
    -6.3103  -6.0544  -5.9798  -5.7614  -5.7204  -5.6485  -5.4227  -5.3804
    -5.3428  -5.2346  -5.2098  -5.1869  -5.1770  -5.1301  -4.9943  -4.9360
    -4.9041  -4.6040  -4.4925  -3.7614  -2.4761  -2.1922  -0.5374  -0.2027
     0.3916   0.7489

     the Fermi energy is    -3.7284 ev

!    total energy              =    -329.48967049 Ry
     Harris-Foulkes estimate   =    -329.48967051 Ry
     estimated scf accuracy    <          1.8E-10 Ry

     The total energy is the sum of the following terms:

     one-electron contribution =    -607.09824897 Ry
     hartree contribution      =     324.98191173 Ry
     xc contribution           =     -51.40007967 Ry
     ewald contribution        =       4.03106998 Ry
     smearing contrib. (-TS)   =      -0.00432355 Ry

     convergence has been achieved in   9 iterations

     Forces acting on atoms (Ry/au):

     atom    1 type  1   force =    -0.00073333    0.00022512   -0.00414331
     atom    2 type  1   force =    -0.00159490    0.00406807    0.00270991
     atom    3 type  1   force =     0.00219663   -0.00332785    0.00705379
     atom    4 type  1   force =    -0.00103310   -0.00156800   -0.00178335
     atom    5 type  1   force =     0.00116469    0.00060265   -0.00383704

     Total force =     0.011532     Total SCF correction =     0.000048

     number of scf cycles    =   5
     number of bfgs steps    =   4

     energy   old            =    -329.4895267113 Ry
     energy   new            =    -329.4896704856 Ry

     CASE: energy  _new < energy  _old

     new trust radius        =       0.0184418462 bohr
     new conv_thr            =       0.0000000001 Ry


ATOMIC_POSITIONS (bohr)
Au      -1.560861741   1.816181769  -1.256263040
Au      -0.712211511   3.303197099   3.583706207
Au       3.203343814   1.708989675   0.460859230
Au       3.876305085   3.639849405   5.883039420
Au       7.462431353   1.242875052   3.147678183



     Writing output data file pwscf.save
     Check: negative starting charge=   -0.006403
     NEW-OLD atomic charge density approx. for the potential
     Check: negative starting charge=   -0.006396

     negative rho (up, down):  2.886E-05 0.000E+00

     total cpu time spent up to now is       14.7 secs

     per-process dynamical memory:    50.7 Mb

     Self-consistent Calculation

     iteration #  1     ecut=    30.00 Ry     beta=0.70
     Davidson diagonalization with overlap
     ethr =  1.00E-06,  avg # of iterations =  4.0

     Threshold (ethr) on eigenvalues was too large:
     Diagonalizing with lowered threshold

     Davidson diagonalization with overlap
     ethr =  8.42E-08,  avg # of iterations =  1.0

     negative rho (up, down):  5.798E-08 0.000E+00

     total cpu time spent up to now is       15.3 secs

     total energy              =    -329.48982666 Ry
     Harris-Foulkes estimate   =    -329.48983538 Ry
     estimated scf accuracy    <       0.00004637 Ry

     iteration #  2     ecut=    30.00 Ry     beta=0.70
     Davidson diagonalization with overlap
     ethr =  8.43E-08,  avg # of iterations =  3.0

     total cpu time spent up to now is       15.6 secs

     total energy              =    -329.48983523 Ry
     Harris-Foulkes estimate   =    -329.48985043 Ry
     estimated scf accuracy    <       0.00003254 Ry

     iteration #  3     ecut=    30.00 Ry     beta=0.70
     Davidson diagonalization with overlap
     ethr =  5.92E-08,  avg # of iterations =  2.0

     total cpu time spent up to now is       15.8 secs

     total energy              =    -329.48984166 Ry
     Harris-Foulkes estimate   =    -329.48984444 Ry
     estimated scf accuracy    <       0.00000730 Ry

     iteration #  4     ecut=    30.00 Ry     beta=0.70
     Davidson diagonalization with overlap
     ethr =  1.33E-08,  avg # of iterations =  2.0

     total cpu time spent up to now is       16.0 secs

     total energy              =    -329.48984364 Ry
     Harris-Foulkes estimate   =    -329.48984466 Ry
     estimated scf accuracy    <       0.00000432 Ry

     iteration #  5     ecut=    30.00 Ry     beta=0.70
     Davidson diagonalization with overlap
     ethr =  7.85E-09,  avg # of iterations =  1.0

     total cpu time spent up to now is       16.2 secs

     total energy              =    -329.48984448 Ry
     Harris-Foulkes estimate   =    -329.48984436 Ry
     estimated scf accuracy    <       0.00000017 Ry

     iteration #  6     ecut=    30.00 Ry     beta=0.70
     Davidson diagonalization with overlap
     ethr =  3.02E-10,  avg # of iterations =  3.0

     total cpu time spent up to now is       16.6 secs

     total energy              =    -329.48984451 Ry
     Harris-Foulkes estimate   =    -329.48984454 Ry
     estimated scf accuracy    <       0.00000001 Ry

     iteration #  7     ecut=    30.00 Ry     beta=0.70
     Davidson diagonalization with overlap
     ethr =  2.27E-11,  avg # of iterations =  3.0

     total cpu time spent up to now is       17.0 secs

     total energy              =    -329.48984458 Ry
     Harris-Foulkes estimate   =    -329.48984452 Ry
     estimated scf accuracy    <          3.9E-09 Ry

     iteration #  8     ecut=    30.00 Ry     beta=0.70
     Davidson diagonalization with overlap
     ethr =  7.12E-12,  avg # of iterations =  2.0

     total cpu time spent up to now is       17.2 secs

     total energy              =    -329.48984458 Ry
     Harris-Foulkes estimate   =    -329.48984458 Ry
     estimated scf accuracy    <          8.3E-10 Ry

     iteration #  9     ecut=    30.00 Ry     beta=0.70
     Davidson diagonalization with overlap
     ethr =  1.52E-12,  avg # of iterations =  2.0

     total cpu time spent up to now is       17.4 secs

     End of self-consistent calculation

          k = 0.0000 0.0000 0.0000 ( 22119 PWs)   bands (ev):

    -8.4569  -7.7622  -7.6418  -7.2510  -7.0477  -6.7943  -6.6270  -6.4822
    -6.3127  -6.0573  -5.9855  -5.7648  -5.7227  -5.6534  -5.4204  -5.3866
    -5.3402  -5.2329  -5.2106  -5.1877  -5.1777  -5.1293  -4.9943  -4.9351
    -4.9061  -4.6047  -4.4946  -3.7573  -2.4718  -2.1923  -0.5395  -0.1997
     0.3936   0.7520

     the Fermi energy is    -3.7235 ev

!    total energy              =    -329.48984457 Ry
     Harris-Foulkes estimate   =    -329.48984458 Ry
     estimated scf accuracy    <          8.4E-11 Ry

     The total energy is the sum of the following terms:

     one-electron contribution =    -607.63646811 Ry
     hartree contribution      =     325.24594162 Ry
     xc contribution           =     -51.40165868 Ry
     ewald contribution        =       4.30685846 Ry
     smearing contrib. (-TS)   =      -0.00451786 Ry

     convergence has been achieved in   9 iterations

     Forces acting on atoms (Ry/au):

     atom    1 type  1   force =    -0.00126142    0.00011914   -0.00476797
     atom    2 type  1   force =    -0.00179990    0.00425071    0.00367617
     atom    3 type  1   force =     0.00293575   -0.00353793    0.00641204
     atom    4 type  1   force =    -0.00177493   -0.00114664   -0.00127664
     atom    5 type  1   force =     0.00190051    0.00031472   -0.00404360

     Total force =     0.012148     Total SCF correction =     0.000040

     number of scf cycles    =   6
     number of bfgs steps    =   5

     energy   old            =    -329.4896704856 Ry
     energy   new            =    -329.4898445697 Ry

     CASE: energy  _new < energy  _old

     new trust radius        =       0.0276627693 bohr
     new conv_thr            =       0.0000000002 Ry


ATOMIC_POSITIONS (bohr)
Au      -1.553758844   1.819271376  -1.261021659
Au      -0.719650668   3.314182498   3.580591463
Au       3.194114601   1.699392481   0.485106793
Au       3.880128513   3.631772196   5.875266561
Au       7.468173398   1.246474450   3.139076841



     Writing output data file pwscf.save
     Check: negative starting charge=   -0.006396
     NEW-OLD atomic charge density approx. for the potential
     Check: negative starting charge=   -0.006386

     negative rho (up, down):  1.001E-04 0.000E+00

     total cpu time spent up to now is       17.7 secs

     per-process dynamical memory:    50.7 Mb

     Self-consistent Calculation

     iteration #  1     ecut=    30.00 Ry     beta=0.70
     Davidson diagonalization with overlap
     ethr =  1.00E-06,  avg # of iterations =  4.0

     negative rho (up, down):  8.070E-07 0.000E+00

     total cpu time spent up to now is       18.1 secs

     total energy              =    -329.49006777 Ry
     Harris-Foulkes estimate   =    -329.49008798 Ry
     estimated scf accuracy    <       0.00010886 Ry

     iteration #  2     ecut=    30.00 Ry     beta=0.70
     Davidson diagonalization with overlap
     ethr =  1.98E-07,  avg # of iterations =  3.0

     negative rho (up, down):  3.113E-08 0.000E+00

     total cpu time spent up to now is       18.3 secs

     total energy              =    -329.49008949 Ry
     Harris-Foulkes estimate   =    -329.49012410 Ry
     estimated scf accuracy    <       0.00007311 Ry

     iteration #  3     ecut=    30.00 Ry     beta=0.70
     Davidson diagonalization with overlap
     ethr =  1.33E-07,  avg # of iterations =  2.0

     total cpu time spent up to now is       18.6 secs

     total energy              =    -329.49010420 Ry
     Harris-Foulkes estimate   =    -329.49010920 Ry
     estimated scf accuracy    <       0.00001302 Ry

     iteration #  4     ecut=    30.00 Ry     beta=0.70
     Davidson diagonalization with overlap
     ethr =  2.37E-08,  avg # of iterations =  2.0

     total cpu time spent up to now is       18.9 secs

     total energy              =    -329.49010775 Ry
     Harris-Foulkes estimate   =    -329.49011042 Ry
     estimated scf accuracy    <       0.00001070 Ry

     iteration #  5     ecut=    30.00 Ry     beta=0.70
     Davidson diagonalization with overlap
     ethr =  1.95E-08,  avg # of iterations =  2.0

     total cpu time spent up to now is       19.2 secs

     total energy              =    -329.49010947 Ry
     Harris-Foulkes estimate   =    -329.49010955 Ry
     estimated scf accuracy    <       0.00000046 Ry

     iteration #  6     ecut=    30.00 Ry     beta=0.70
     Davidson diagonalization with overlap
     ethr =  8.35E-10,  avg # of iterations =  3.0

     total cpu time spent up to now is       19.6 secs

     total energy              =    -329.49010967 Ry
     Harris-Foulkes estimate   =    -329.49010964 Ry
     estimated scf accuracy    <       0.00000007 Ry

     iteration #  7     ecut=    30.00 Ry     beta=0.70
     Davidson diagonalization with overlap
     ethr =  1.29E-10,  avg # of iterations =  2.0

     total cpu time spent up to now is       19.9 secs

     total energy              =    -329.49010975 Ry
     Harris-Foulkes estimate   =    -329.49010970 Ry
     estimated scf accuracy    <       0.00000002 Ry

     iteration #  8     ecut=    30.00 Ry     beta=0.70
     Davidson diagonalization with overlap
     ethr =  3.04E-11,  avg # of iterations =  2.0

     total cpu time spent up to now is       20.1 secs

     total energy              =    -329.49010980 Ry
     Harris-Foulkes estimate   =    -329.49010975 Ry
     estimated scf accuracy    <          2.4E-09 Ry

     iteration #  9     ecut=    30.00 Ry     beta=0.70
     Davidson diagonalization with overlap
     ethr =  4.30E-12,  avg # of iterations =  2.0

     total cpu time spent up to now is       20.4 secs

     End of self-consistent calculation

          k = 0.0000 0.0000 0.0000 ( 22119 PWs)   bands (ev):

    -8.4779  -7.7785  -7.6502  -7.2605  -7.0408  -6.8060  -6.6284  -6.4910
    -6.3154  -6.0602  -5.9922  -5.7680  -5.7251  -5.6598  -5.4166  -5.3953
    -5.3366  -5.2303  -5.2121  -5.1893  -5.1776  -5.1284  -4.9941  -4.9332
    -4.9087  -4.6076  -4.4971  -3.7532  -2.4657  -2.1934  -0.5422  -0.1957
     0.3966   0.7571

     the Fermi energy is    -3.7185 ev

!    total energy              =    -329.49010979 Ry
     Harris-Foulkes estimate   =    -329.49010980 Ry
     estimated scf accuracy    <          1.7E-10 Ry

     The total energy is the sum of the following terms:

     one-electron contribution =    -608.25836765 Ry
     hartree contribution      =     325.55109330 Ry
     xc contribution           =     -51.40344464 Ry
     ewald contribution        =       4.62534649 Ry
     smearing contrib. (-TS)   =      -0.00473729 Ry

     convergence has been achieved in   9 iterations

     Forces acting on atoms (Ry/au):

     atom    1 type  1   force =    -0.00160013    0.00010089   -0.00509169
     atom    2 type  1   force =    -0.00211881    0.00430828    0.00457157
     atom    3 type  1   force =     0.00331914   -0.00369203    0.00520658
     atom    4 type  1   force =    -0.00250689   -0.00073990   -0.00066642
     atom    5 type  1   force =     0.00290669    0.00002276   -0.00402003

     Total force =     0.012494     Total SCF correction =     0.000055

     number of scf cycles    =   7
     number of bfgs steps    =   6

     energy   old            =    -329.4898445697 Ry
     energy   new            =    -329.4901097896 Ry

     CASE: energy  _new < energy  _old

     new trust radius        =       0.0414941540 bohr
     new conv_thr            =       0.0000000003 Ry


ATOMIC_POSITIONS (bohr)
Au      -1.543875647   1.823914593  -1.269693484
Au      -0.731574855   3.331754397   3.577969409
Au       3.181587003   1.683971555   0.521535067
Au       3.884535656   3.619821341   5.863978697
Au       7.478334843   1.251631115   3.125230312



     Writing output data file pwscf.save
     Check: negative starting charge=   -0.006386
     NEW-OLD atomic charge density approx. for the potential
     Check: negative starting charge=   -0.006371

     negative rho (up, down):  2.792E-04 0.000E+00

     total cpu time spent up to now is       20.7 secs

     per-process dynamical memory:    50.7 Mb

     Self-consistent Calculation

     iteration #  1     ecut=    30.00 Ry     beta=0.70
     Davidson diagonalization with overlap
     ethr =  1.00E-06,  avg # of iterations =  4.0

     negative rho (up, down):  6.681E-06 0.000E+00

     total cpu time spent up to now is       21.4 secs

     total energy              =    -329.49037855 Ry
     Harris-Foulkes estimate   =    -329.49039264 Ry
     estimated scf accuracy    <       0.00025677 Ry

     iteration #  2     ecut=    30.00 Ry     beta=0.70
     Davidson diagonalization with overlap
     ethr =  4.67E-07,  avg # of iterations =  3.0

     negative rho (up, down):  5.163E-07 0.000E+00

     total cpu time spent up to now is       21.8 secs

     total energy              =    -329.49042993 Ry
     Harris-Foulkes estimate   =    -329.49051267 Ry
     estimated scf accuracy    <       0.00017207 Ry

     iteration #  3     ecut=    30.00 Ry     beta=0.70
     Davidson diagonalization with overlap
     ethr =  3.13E-07,  avg # of iterations =  2.0

     total cpu time spent up to now is       22.1 secs

     total energy              =    -329.49046430 Ry
     Harris-Foulkes estimate   =    -329.49047613 Ry
     estimated scf accuracy    <       0.00002953 Ry

     iteration #  4     ecut=    30.00 Ry     beta=0.70
     Davidson diagonalization with overlap
     ethr =  5.37E-08,  avg # of iterations =  2.0

     total cpu time spent up to now is       22.4 secs

     total energy              =    -329.49047212 Ry
     Harris-Foulkes estimate   =    -329.49047831 Ry
     estimated scf accuracy    <       0.00002337 Ry

     iteration #  5     ecut=    30.00 Ry     beta=0.70
     Davidson diagonalization with overlap
     ethr =  4.25E-08,  avg # of iterations =  2.0

     total cpu time spent up to now is       22.6 secs

     total energy              =    -329.49047551 Ry
     Harris-Foulkes estimate   =    -329.49047609 Ry
     estimated scf accuracy    <       0.00000111 Ry

     iteration #  6     ecut=    30.00 Ry     beta=0.70
     Davidson diagonalization with overlap
     ethr =  2.01E-09,  avg # of iterations =  3.0

     total cpu time spent up to now is       23.0 secs

     total energy              =    -329.49047590 Ry
     Harris-Foulkes estimate   =    -329.49047590 Ry
     estimated scf accuracy    <       0.00000019 Ry

     iteration #  7     ecut=    30.00 Ry     beta=0.70
     Davidson diagonalization with overlap
     ethr =  3.44E-10,  avg # of iterations =  2.0

     total cpu time spent up to now is       23.3 secs

     total energy              =    -329.49047606 Ry
     Harris-Foulkes estimate   =    -329.49047595 Ry
     estimated scf accuracy    <       0.00000003 Ry

     iteration #  8     ecut=    30.00 Ry     beta=0.70
     Davidson diagonalization with overlap
     ethr =  6.34E-11,  avg # of iterations =  2.0

     total cpu time spent up to now is       23.6 secs

     total energy              =    -329.49047606 Ry
     Harris-Foulkes estimate   =    -329.49047607 Ry
     estimated scf accuracy    <          5.2E-09 Ry

     iteration #  9     ecut=    30.00 Ry     beta=0.70
     Davidson diagonalization with overlap
     ethr =  9.44E-12,  avg # of iterations =  2.0

     total cpu time spent up to now is       23.9 secs

     total energy              =    -329.49047607 Ry
     Harris-Foulkes estimate   =    -329.49047607 Ry
     estimated scf accuracy    <          3.3E-10 Ry

     iteration # 10     ecut=    30.00 Ry     beta=0.70
     Davidson diagonalization with overlap
     ethr =  6.01E-13,  avg # of iterations =  3.0

     total cpu time spent up to now is       24.2 secs

     End of self-consistent calculation

          k = 0.0000 0.0000 0.0000 ( 22119 PWs)   bands (ev):

    -8.5042  -7.7982  -7.6617  -7.2703  -7.0271  -6.8202  -6.6274  -6.5021
    -6.3181  -6.0649  -5.9982  -5.7707  -5.7278  -5.6682  -5.4151  -5.4034
    -5.3313  -5.2266  -5.2149  -5.1913  -5.1764  -5.1273  -4.9934  -4.9303
    -4.9110  -4.6138  -4.5002  -3.7491  -2.4572  -2.1965  -0.5456  -0.1903
     0.4010   0.7650

     the Fermi energy is    -3.7134 ev

!    total energy              =    -329.49047605 Ry
     Harris-Foulkes estimate   =    -329.49047607 Ry
     estimated scf accuracy    <          1.6E-10 Ry

     The total energy is the sum of the following terms:

     one-electron contribution =    -608.96915049 Ry
     hartree contribution      =     325.89983840 Ry
     xc contribution           =     -51.40540621 Ry
     ewald contribution        =       4.98923117 Ry
     smearing contrib. (-TS)   =      -0.00498893 Ry

     convergence has been achieved in  10 iterations

     Forces acting on atoms (Ry/au):

     atom    1 type  1   force =    -0.00172752    0.00018865   -0.00489416
     atom    2 type  1   force =    -0.00251435    0.00416303    0.00541116
     atom    3 type  1   force =     0.00337643   -0.00366620    0.00294080
     atom    4 type  1   force =    -0.00322387   -0.00041958    0.00010912
     atom    5 type  1   force =     0.00408931   -0.00026589   -0.00356692

     Total force =     0.012389     Total SCF correction =     0.000049

     number of scf cycles    =   8
     number of bfgs steps    =   7

     energy   old            =    -329.4901097896 Ry
     energy   new            =    -329.4904760540 Ry

     CASE: energy  _new < energy  _old

     new trust radius        =       0.0622412310 bohr
     new conv_thr            =       0.0000000004 Ry


ATOMIC_POSITIONS (bohr)
Au      -1.529807305   1.831159288  -1.284724126
Au      -0.751053200   3.360151555   3.577283208
Au       3.164358664   1.659008526   0.575885801
Au       3.889152111   3.601595563   5.847462492
Au       7.496356730   1.259178067   3.103112624



     Writing output data file pwscf.save
     Check: negative starting charge=   -0.006371
     NEW-OLD atomic charge density approx. for the potential
     Check: negative starting charge=   -0.006353

     negative rho (up, down):  6.670E-04 0.000E+00

     total cpu time spent up to now is       24.5 secs

     per-process dynamical memory:    50.7 Mb

     Self-consistent Calculation

     iteration #  1     ecut=    30.00 Ry     beta=0.70
     Davidson diagonalization with overlap
     ethr =  1.00E-06,  avg # of iterations =  5.0

     negative rho (up, down):  3.280E-05 0.000E+00

     total cpu time spent up to now is       25.1 secs

     total energy              =    -329.49066247 Ry
     Harris-Foulkes estimate   =    -329.49050063 Ry
     estimated scf accuracy    <       0.00061881 Ry

     iteration #  2     ecut=    30.00 Ry     beta=0.70
     Davidson diagonalization with overlap
     ethr =  1.13E-06,  avg # of iterations =  4.0

     negative rho (up, down):  4.734E-06 0.000E+00

     total cpu time spent up to now is       25.4 secs

     total energy              =    -329.49078828 Ry
     Harris-Foulkes estimate   =    -329.49098552 Ry
     estimated scf accuracy    <       0.00041205 Ry

     iteration #  3     ecut=    30.00 Ry     beta=0.70
     Davidson diagonalization with overlap
     ethr =  7.49E-07,  avg # of iterations =  2.0

     negative rho (up, down):  1.304E-07 0.000E+00

     total cpu time spent up to now is       25.7 secs

     total energy              =    -329.49087004 Ry
     Harris-Foulkes estimate   =    -329.49089747 Ry
     estimated scf accuracy    <       0.00006539 Ry

     iteration #  4     ecut=    30.00 Ry     beta=0.70
     Davidson diagonalization with overlap
     ethr =  1.19E-07,  avg # of iterations =  3.0

     total cpu time spent up to now is       26.0 secs

     total energy              =    -329.49088646 Ry
     Harris-Foulkes estimate   =    -329.49090190 Ry
     estimated scf accuracy    <       0.00005327 Ry

     iteration #  5     ecut=    30.00 Ry     beta=0.70
     Davidson diagonalization with overlap
     ethr =  9.69E-08,  avg # of iterations =  2.0

     total cpu time spent up to now is       26.2 secs

     total energy              =    -329.49089452 Ry
     Harris-Foulkes estimate   =    -329.49089541 Ry
     estimated scf accuracy    <       0.00000224 Ry

     iteration #  6     ecut=    30.00 Ry     beta=0.70
     Davidson diagonalization with overlap
     ethr =  4.08E-09,  avg # of iterations =  3.0

     total cpu time spent up to now is       26.5 secs

     total energy              =    -329.49089528 Ry
     Harris-Foulkes estimate   =    -329.49089533 Ry
     estimated scf accuracy    <       0.00000042 Ry

     iteration #  7     ecut=    30.00 Ry     beta=0.70
     Davidson diagonalization with overlap
     ethr =  7.64E-10,  avg # of iterations =  2.0

     total cpu time spent up to now is       26.8 secs

     total energy              =    -329.49089547 Ry
     Harris-Foulkes estimate   =    -329.49089539 Ry
     estimated scf accuracy    <       0.00000007 Ry

     iteration #  8     ecut=    30.00 Ry     beta=0.70
     Davidson diagonalization with overlap
     ethr =  1.29E-10,  avg # of iterations =  3.0

     total cpu time spent up to now is       27.1 secs

     total energy              =    -329.49089550 Ry
     Harris-Foulkes estimate   =    -329.49089549 Ry
     estimated scf accuracy    <       0.00000001 Ry

     iteration #  9     ecut=    30.00 Ry     beta=0.70
     Davidson diagonalization with overlap
     ethr =  2.46E-11,  avg # of iterations =  2.0

     total cpu time spent up to now is       27.4 secs

     total energy              =    -329.49089554 Ry
     Harris-Foulkes estimate   =    -329.49089550 Ry
     estimated scf accuracy    <          1.0E-09 Ry

     iteration # 10     ecut=    30.00 Ry     beta=0.70
     Davidson diagonalization with overlap
     ethr =  1.86E-12,  avg # of iterations =  3.0

     total cpu time spent up to now is       27.7 secs

     total energy              =    -329.49089551 Ry
     Harris-Foulkes estimate   =    -329.49089554 Ry
     estimated scf accuracy    <          3.8E-10 Ry

     iteration # 11     ecut=    30.00 Ry     beta=0.70
     Davidson diagonalization with overlap
     ethr =  6.88E-13,  avg # of iterations =  3.0

     total cpu time spent up to now is       28.0 secs

     End of self-consistent calculation

          k = 0.0000 0.0000 0.0000 ( 22119 PWs)   bands (ev):

    -8.5356  -7.8206  -7.6774  -7.2768  -7.0006  -6.8363  -6.6212  -6.5153
    -6.3198  -6.0755  -5.9973  -5.7721  -5.7312  -5.6784  -5.4319  -5.3953
    -5.3241  -5.2254  -5.2166  -5.1936  -5.1728  -5.1257  -4.9926  -4.9294
    -4.9071  -4.6264  -4.5037  -3.7460  -2.4456  -2.2034  -0.5496  -0.1828
     0.4077   0.7775

     the Fermi energy is    -3.7092 ev

!    total energy              =    -329.49089553 Ry
     Harris-Foulkes estimate   =    -329.49089551 Ry
     estimated scf accuracy    <          2.5E-11 Ry

     The total energy is the sum of the following terms:

     one-electron contribution =    -609.67259550 Ry
     hartree contribution      =     326.24515730 Ry
     xc contribution           =     -51.40715865 Ry
     ewald contribution        =       5.34895800 Ry
     smearing contrib. (-TS)   =      -0.00525668 Ry

     convergence has been achieved in  11 iterations

     Forces acting on atoms (Ry/au):

     atom    1 type  1   force =    -0.00143549    0.00042489   -0.00374181
     atom    2 type  1   force =    -0.00291807    0.00379982    0.00577436
     atom    3 type  1   force =     0.00307887   -0.00340174   -0.00084139
     atom    4 type  1   force =    -0.00384647   -0.00025438    0.00116191
     atom    5 type  1   force =     0.00512116   -0.00056859   -0.00235307

     Total force =     0.011941     Total SCF correction =     0.000019

     number of scf cycles    =   9
     number of bfgs steps    =   8

     energy   old            =    -329.4904760540 Ry
     energy   new            =    -329.4908955268 Ry

     CASE: energy  _new < energy  _old

     new trust radius        =       0.0732247920 bohr
     new conv_thr            =       0.0000000004 Ry


ATOMIC_POSITIONS (bohr)
Au      -1.514070727   1.840563992  -1.305708250
Au      -0.777515942   3.398324324   3.582450596
Au       3.147032137   1.625545451   0.638670228
Au       3.890671174   3.578820668   5.828820939
Au       7.522890356   1.267838565   3.074786487



     Writing output data file pwscf.save
     Check: negative starting charge=   -0.006353
     NEW-OLD atomic charge density approx. for the potential
     Check: negative starting charge=   -0.006358

     negative rho (up, down):  9.880E-04 0.000E+00

     total cpu time spent up to now is       28.3 secs

     per-process dynamical memory:    50.7 Mb

     Self-consistent Calculation

     iteration #  1     ecut=    30.00 Ry     beta=0.70
     Davidson diagonalization with overlap
     ethr =  1.00E-06,  avg # of iterations =  6.0

     negative rho (up, down):  6.257E-05 0.000E+00

     total cpu time spent up to now is       28.9 secs

     total energy              =    -329.49086180 Ry
     Harris-Foulkes estimate   =    -329.49050287 Ry
     estimated scf accuracy    <       0.00096867 Ry

     iteration #  2     ecut=    30.00 Ry     beta=0.70
     Davidson diagonalization with overlap
     ethr =  1.76E-06,  avg # of iterations =  5.0

     negative rho (up, down):  1.167E-05 0.000E+00

     total cpu time spent up to now is       29.2 secs

     total energy              =    -329.49105843 Ry
     Harris-Foulkes estimate   =    -329.49137170 Ry
     estimated scf accuracy    <       0.00065731 Ry

     iteration #  3     ecut=    30.00 Ry     beta=0.70
     Davidson diagonalization with overlap
     ethr =  1.20E-06,  avg # of iterations =  2.0

     negative rho (up, down):  4.717E-07 0.000E+00

     total cpu time spent up to now is       29.5 secs

     total energy              =    -329.49118861 Ry
     Harris-Foulkes estimate   =    -329.49123264 Ry
     estimated scf accuracy    <       0.00010295 Ry

     iteration #  4     ecut=    30.00 Ry     beta=0.70
     Davidson diagonalization with overlap
     ethr =  1.87E-07,  avg # of iterations =  3.0

     total cpu time spent up to now is       30.0 secs

     total energy              =    -329.49121391 Ry
     Harris-Foulkes estimate   =    -329.49123732 Ry
     estimated scf accuracy    <       0.00007633 Ry

     iteration #  5     ecut=    30.00 Ry     beta=0.70
     Davidson diagonalization with overlap
     ethr =  1.39E-07,  avg # of iterations =  2.0

     total cpu time spent up to now is       30.4 secs

     total energy              =    -329.49122571 Ry
     Harris-Foulkes estimate   =    -329.49122676 Ry
     estimated scf accuracy    <       0.00000310 Ry

     iteration #  6     ecut=    30.00 Ry     beta=0.70
     Davidson diagonalization with overlap
     ethr =  5.64E-09,  avg # of iterations =  3.0

     total cpu time spent up to now is       30.7 secs

     total energy              =    -329.49122687 Ry
     Harris-Foulkes estimate   =    -329.49122688 Ry
     estimated scf accuracy    <       0.00000060 Ry

     iteration #  7     ecut=    30.00 Ry     beta=0.70
     Davidson diagonalization with overlap
     ethr =  1.09E-09,  avg # of iterations =  2.0

     total cpu time spent up to now is       31.0 secs

     total energy              =    -329.49122697 Ry
     Harris-Foulkes estimate   =    -329.49122702 Ry
     estimated scf accuracy    <       0.00000010 Ry

     iteration #  8     ecut=    30.00 Ry     beta=0.70
     Davidson diagonalization with overlap
     ethr =  1.80E-10,  avg # of iterations =  3.0

     total cpu time spent up to now is       31.3 secs

     total energy              =    -329.49122699 Ry
     Harris-Foulkes estimate   =    -329.49122700 Ry
     estimated scf accuracy    <       0.00000003 Ry

     iteration #  9     ecut=    30.00 Ry     beta=0.70
     Davidson diagonalization with overlap
     ethr =  4.59E-11,  avg # of iterations =  2.0

     total cpu time spent up to now is       31.6 secs

     total energy              =    -329.49122703 Ry
     Harris-Foulkes estimate   =    -329.49122700 Ry
     estimated scf accuracy    <          1.8E-09 Ry

     iteration # 10     ecut=    30.00 Ry     beta=0.70
     Davidson diagonalization with overlap
     ethr =  3.34E-12,  avg # of iterations =  3.0

     total cpu time spent up to now is       31.9 secs

     total energy              =    -329.49122702 Ry
     Harris-Foulkes estimate   =    -329.49122703 Ry
     estimated scf accuracy    <          4.7E-10 Ry

     iteration # 11     ecut=    30.00 Ry     beta=0.70
     Davidson diagonalization with overlap
     ethr =  8.63E-13,  avg # of iterations =  2.0

     total cpu time spent up to now is       32.2 secs

     End of self-consistent calculation

          k = 0.0000 0.0000 0.0000 ( 22119 PWs)   bands (ev):

    -8.5577  -7.8326  -7.6915  -7.2699  -6.9594  -6.8453  -6.6059  -6.5242
    -6.3169  -6.0910  -5.9820  -5.7701  -5.7339  -5.6866  -5.4524  -5.3811
    -5.3176  -5.2347  -5.2112  -5.1957  -5.1669  -5.1237  -4.9917  -4.9345
    -4.8909  -4.6471  -4.5067  -3.7478  -2.4343  -2.2162  -0.5523  -0.1756
     0.4155   0.7933

     the Fermi energy is    -3.7105 ev

!    total energy              =    -329.49122703 Ry
     Harris-Foulkes estimate   =    -329.49122702 Ry
     estimated scf accuracy    <          2.9E-11 Ry

     The total energy is the sum of the following terms:

     one-electron contribution =    -609.81597849 Ry
     hartree contribution      =     326.31527134 Ry
     xc contribution           =     -51.40677610 Ry
     ewald contribution        =       5.42167174 Ry
     smearing contrib. (-TS)   =      -0.00541552 Ry

     convergence has been achieved in  11 iterations

     Forces acting on atoms (Ry/au):

     atom    1 type  1   force =     0.00001058    0.00094559   -0.00137241
     atom    2 type  1   force =    -0.00306699    0.00318538    0.00452634
     atom    3 type  1   force =     0.00134890   -0.00292140   -0.00440484
     atom    4 type  1   force =    -0.00364572   -0.00051663    0.00178516
     atom    5 type  1   force =     0.00535324   -0.00069294   -0.00053425

     Total force =     0.010897     Total SCF correction =     0.000023

     number of scf cycles    =  10
     number of bfgs steps    =   9

     energy   old            =    -329.4908955268 Ry
     energy   new            =    -329.4912270296 Ry

     CASE: energy  _new < energy  _old

     new trust radius        =       0.0429630704 bohr
     new conv_thr            =       0.0000000003 Ry


ATOMIC_POSITIONS (bohr)
Au      -1.503705308   1.847703565  -1.319581080
Au      -0.797221620   3.425824948   3.590095934
Au       3.137543121   1.601422305   0.672931836
Au       3.887927287   3.563411867   5.818724292
Au       7.544463519   1.272730316   3.056849018



     Writing output data file pwscf.save
     Check: negative starting charge=   -0.006358
     NEW-OLD atomic charge density approx. for the potential
     Check: negative starting charge=   -0.006373

     negative rho (up, down):  4.496E-04 0.000E+00

     total cpu time spent up to now is       32.6 secs

     per-process dynamical memory:    50.7 Mb

     Self-consistent Calculation

     iteration #  1     ecut=    30.00 Ry     beta=0.70
     Davidson diagonalization with overlap
     ethr =  1.00E-06,  avg # of iterations =  4.0

     negative rho (up, down):  1.571E-05 0.000E+00

     total cpu time spent up to now is       33.1 secs

     total energy              =    -329.49125569 Ry
     Harris-Foulkes estimate   =    -329.49121731 Ry
     estimated scf accuracy    <       0.00040822 Ry

     iteration #  2     ecut=    30.00 Ry     beta=0.70
     Davidson diagonalization with overlap
     ethr =  7.42E-07,  avg # of iterations =  3.0

     negative rho (up, down):  1.775E-06 0.000E+00

     total cpu time spent up to now is       33.4 secs

     total energy              =    -329.49133551 Ry
     Harris-Foulkes estimate   =    -329.49147327 Ry
     estimated scf accuracy    <       0.00028295 Ry

     iteration #  3     ecut=    30.00 Ry     beta=0.70
     Davidson diagonalization with overlap
     ethr =  5.14E-07,  avg # of iterations =  2.0

     negative rho (up, down):  3.583E-08 0.000E+00

     total cpu time spent up to now is       33.7 secs

     total energy              =    -329.49139169 Ry
     Harris-Foulkes estimate   =    -329.49141220 Ry
     estimated scf accuracy    <       0.00004929 Ry

     iteration #  4     ecut=    30.00 Ry     beta=0.70
     Davidson diagonalization with overlap
     ethr =  8.96E-08,  avg # of iterations =  2.0

     total cpu time spent up to now is       34.0 secs

     total energy              =    -329.49140428 Ry
     Harris-Foulkes estimate   =    -329.49141331 Ry
     estimated scf accuracy    <       0.00003093 Ry

     iteration #  5     ecut=    30.00 Ry     beta=0.70
     Davidson diagonalization with overlap
     ethr =  5.62E-08,  avg # of iterations =  2.0

     total cpu time spent up to now is       34.3 secs

     total energy              =    -329.49140897 Ry
     Harris-Foulkes estimate   =    -329.49140958 Ry
     estimated scf accuracy    <       0.00000139 Ry

     iteration #  6     ecut=    30.00 Ry     beta=0.70
     Davidson diagonalization with overlap
     ethr =  2.52E-09,  avg # of iterations =  3.0

     total cpu time spent up to now is       34.6 secs

     total energy              =    -329.49140953 Ry
     Harris-Foulkes estimate   =    -329.49140946 Ry
     estimated scf accuracy    <       0.00000021 Ry

     iteration #  7     ecut=    30.00 Ry     beta=0.70
     Davidson diagonalization with overlap
     ethr =  3.89E-10,  avg # of iterations =  2.0

     total cpu time spent up to now is       34.9 secs

     total energy              =    -329.49140949 Ry
     Harris-Foulkes estimate   =    -329.49140959 Ry
     estimated scf accuracy    <       0.00000004 Ry

     iteration #  8     ecut=    30.00 Ry     beta=0.70
     Davidson diagonalization with overlap
     ethr =  7.69E-11,  avg # of iterations =  2.0

     total cpu time spent up to now is       35.1 secs

     total energy              =    -329.49140950 Ry
     Harris-Foulkes estimate   =    -329.49140950 Ry
     estimated scf accuracy    <       0.00000001 Ry

     iteration #  9     ecut=    30.00 Ry     beta=0.70
     Davidson diagonalization with overlap
     ethr =  2.08E-11,  avg # of iterations =  2.0

     total cpu time spent up to now is       35.4 secs

     total energy              =    -329.49140951 Ry
     Harris-Foulkes estimate   =    -329.49140951 Ry
     estimated scf accuracy    <          9.7E-10 Ry

     iteration # 10     ecut=    30.00 Ry     beta=0.70
     Davidson diagonalization with overlap
     ethr =  1.77E-12,  avg # of iterations =  2.0

     total cpu time spent up to now is       35.6 secs

     End of self-consistent calculation

          k = 0.0000 0.0000 0.0000 ( 22119 PWs)   bands (ev):

    -8.5587  -7.8266  -7.6934  -7.2549  -6.9280  -6.8429  -6.5902  -6.5226
    -6.3109  -6.0984  -5.9654  -5.7678  -5.7338  -5.6894  -5.4608  -5.3720
    -5.3149  -5.2424  -5.2070  -5.1967  -5.1636  -5.1224  -4.9913  -4.9389
    -4.8780  -4.6642  -4.5083  -3.7532  -2.4295  -2.2280  -0.5522  -0.1729
     0.4203   0.8034

     the Fermi energy is    -3.7159 ev

!    total energy              =    -329.49140951 Ry
     Harris-Foulkes estimate   =    -329.49140951 Ry
     estimated scf accuracy    <          1.4E-10 Ry

     The total energy is the sum of the following terms:

     one-electron contribution =    -609.31511076 Ry
     hartree contribution      =     326.06864812 Ry
     xc contribution           =     -51.40442547 Ry
     ewald contribution        =       5.16488960 Ry
     smearing contrib. (-TS)   =      -0.00541099 Ry

     convergence has been achieved in  10 iterations

     Forces acting on atoms (Ry/au):

     atom    1 type  1   force =     0.00103673    0.00144772    0.00040746
     atom    2 type  1   force =    -0.00270722    0.00235717    0.00268436
     atom    3 type  1   force =     0.00059727   -0.00249045   -0.00486729
     atom    4 type  1   force =    -0.00303354   -0.00098410    0.00134255
     atom    5 type  1   force =     0.00410676   -0.00033034    0.00043292

     Total force =     0.009100     Total SCF correction =     0.000059

     number of scf cycles    =  11
     number of bfgs steps    =  10

     energy   old            =    -329.4912270296 Ry
     energy   new            =    -329.4914095059 Ry

     CASE: energy  _new < energy  _old

     new trust radius        =       0.0461286171 bohr
     new conv_thr            =       0.0000000002 Ry


ATOMIC_POSITIONS (bohr)
Au      -1.489951286   1.858281173  -1.334014600
Au      -0.823227439   3.460432244   3.601755250
Au       3.127900740   1.570331100   0.705615331
Au       3.880731328   3.543788824   5.808424709
Au       7.573553656   1.278259659   3.037239310



     Writing output data file pwscf.save
     Check: negative starting charge=   -0.006373
     NEW-OLD atomic charge density approx. for the potential
     Check: negative starting charge=   -0.006397

     negative rho (up, down):  6.279E-04 0.000E+00

     total cpu time spent up to now is       35.9 secs

     per-process dynamical memory:    50.7 Mb

     Self-consistent Calculation

     iteration #  1     ecut=    30.00 Ry     beta=0.70
     Davidson diagonalization with overlap
     ethr =  1.00E-06,  avg # of iterations =  5.0

     negative rho (up, down):  2.822E-05 0.000E+00

     total cpu time spent up to now is       36.6 secs

     total energy              =    -329.49136003 Ry
     Harris-Foulkes estimate   =    -329.49121774 Ry
     estimated scf accuracy    <       0.00057621 Ry

     iteration #  2     ecut=    30.00 Ry     beta=0.70
     Davidson diagonalization with overlap
     ethr =  1.05E-06,  avg # of iterations =  4.0

     negative rho (up, down):  4.270E-06 0.000E+00

     total cpu time spent up to now is       36.9 secs

     total energy              =    -329.49146577 Ry
     Harris-Foulkes estimate   =    -329.49167594 Ry
     estimated scf accuracy    <       0.00043683 Ry

     iteration #  3     ecut=    30.00 Ry     beta=0.70
     Davidson diagonalization with overlap
     ethr =  7.94E-07,  avg # of iterations =  2.0

     negative rho (up, down):  2.157E-07 0.000E+00

     total cpu time spent up to now is       37.2 secs

     total energy              =    -329.49155072 Ry
     Harris-Foulkes estimate   =    -329.49158835 Ry
     estimated scf accuracy    <       0.00009076 Ry

     iteration #  4     ecut=    30.00 Ry     beta=0.70
     Davidson diagonalization with overlap
     ethr =  1.65E-07,  avg # of iterations =  2.0

     total cpu time spent up to now is       37.5 secs

     total energy              =    -329.49157403 Ry
     Harris-Foulkes estimate   =    -329.49158463 Ry
     estimated scf accuracy    <       0.00003771 Ry

     iteration #  5     ecut=    30.00 Ry     beta=0.70
     Davidson diagonalization with overlap
     ethr =  6.86E-08,  avg # of iterations =  2.0

     total cpu time spent up to now is       37.7 secs

     total energy              =    -329.49157963 Ry
     Harris-Foulkes estimate   =    -329.49158063 Ry
     estimated scf accuracy    <       0.00000210 Ry

     iteration #  6     ecut=    30.00 Ry     beta=0.70
     Davidson diagonalization with overlap
     ethr =  3.82E-09,  avg # of iterations =  3.0

     total cpu time spent up to now is       37.9 secs

     total energy              =    -329.49158024 Ry
     Harris-Foulkes estimate   =    -329.49158031 Ry
     estimated scf accuracy    <       0.00000020 Ry

     iteration #  7     ecut=    30.00 Ry     beta=0.70
     Davidson diagonalization with overlap
     ethr =  3.72E-10,  avg # of iterations =  2.0

     total cpu time spent up to now is       38.2 secs

     total energy              =    -329.49158011 Ry
     Harris-Foulkes estimate   =    -329.49158031 Ry
     estimated scf accuracy    <       0.00000005 Ry

     iteration #  8     ecut=    30.00 Ry     beta=0.70
     Davidson diagonalization with overlap
     ethr =  9.73E-11,  avg # of iterations =  2.0

     total cpu time spent up to now is       38.4 secs

     total energy              =    -329.49158005 Ry
     Harris-Foulkes estimate   =    -329.49158013 Ry
     estimated scf accuracy    <          6.3E-09 Ry

     iteration #  9     ecut=    30.00 Ry     beta=0.70
     Davidson diagonalization with overlap
     ethr =  1.15E-11,  avg # of iterations =  2.0

     total cpu time spent up to now is       38.7 secs

     total energy              =    -329.49158011 Ry
     Harris-Foulkes estimate   =    -329.49158006 Ry
     estimated scf accuracy    <          2.6E-09 Ry

     iteration # 10     ecut=    30.00 Ry     beta=0.70
     Davidson diagonalization with overlap
     ethr =  4.81E-12,  avg # of iterations =  2.0

     total cpu time spent up to now is       38.9 secs

     End of self-consistent calculation

          k = 0.0000 0.0000 0.0000 ( 22119 PWs)   bands (ev):

    -8.5491  -7.8083  -7.6877  -7.2303  -6.8898  -6.8334  -6.5688  -6.5138
    -6.3004  -6.1035  -5.9434  -5.7658  -5.7313  -5.6905  -5.4659  -5.3625
    -5.3132  -5.2511  -5.2049  -5.1944  -5.1611  -5.1216  -4.9911  -4.9439
    -4.8627  -4.6864  -4.5097  -3.7622  -2.4266  -2.2438  -0.5506  -0.1719
     0.4262   0.8151

     the Fermi energy is    -3.7253 ev

!    total energy              =    -329.49158009 Ry
     Harris-Foulkes estimate   =    -329.49158011 Ry
     estimated scf accuracy    <          1.7E-10 Ry

     The total energy is the sum of the following terms:

     one-electron contribution =    -608.28101798 Ry
     hartree contribution      =     325.55979654 Ry
     xc contribution           =     -51.40015457 Ry
     ewald contribution        =       4.63511908 Ry
     smearing contrib. (-TS)   =      -0.00532316 Ry

     convergence has been achieved in  10 iterations

     Forces acting on atoms (Ry/au):

     atom    1 type  1   force =     0.00171494    0.00188752    0.00240291
     atom    2 type  1   force =    -0.00136026    0.00144517   -0.00012831
     atom    3 type  1   force =     0.00026711   -0.00223089   -0.00398228
     atom    4 type  1   force =    -0.00207738   -0.00138491    0.00044748
     atom    5 type  1   force =     0.00145559    0.00028311    0.00126020

     Total force =     0.006882     Total SCF correction =     0.000046

     number of scf cycles    =  12
     number of bfgs steps    =  11

     energy   old            =    -329.4914095059 Ry
     energy   new            =    -329.4915800930 Ry

     CASE: energy  _new < energy  _old

     new trust radius        =       0.0211338603 bohr
     new conv_thr            =       0.0000000002 Ry


ATOMIC_POSITIONS (bohr)
Au      -1.482875920   1.865136797  -1.336673992
Au      -0.835522420   3.476510988   3.607833692
Au       3.126210820   1.554578907   0.710717915
Au       3.873599636   3.534343072   5.805728746
Au       7.587594884   1.280523235   3.031413639



     Writing output data file pwscf.save
     Check: negative starting charge=   -0.006397
     NEW-OLD atomic charge density approx. for the potential
     Check: negative starting charge=   -0.006405

     negative rho (up, down):  9.562E-05 0.000E+00

     total cpu time spent up to now is       39.1 secs

     per-process dynamical memory:    50.7 Mb

     Self-consistent Calculation

     iteration #  1     ecut=    30.00 Ry     beta=0.70
     Davidson diagonalization with overlap
     ethr =  1.00E-06,  avg # of iterations =  4.0

     negative rho (up, down):  7.440E-07 0.000E+00

     total cpu time spent up to now is       39.5 secs

     total energy              =    -329.49162687 Ry
     Harris-Foulkes estimate   =    -329.49165594 Ry
     estimated scf accuracy    <       0.00010559 Ry

     iteration #  2     ecut=    30.00 Ry     beta=0.70
     Davidson diagonalization with overlap
     ethr =  1.92E-07,  avg # of iterations =  2.0

     negative rho (up, down):  4.865E-08 0.000E+00

     total cpu time spent up to now is       39.8 secs

     total energy              =    -329.49163925 Ry
     Harris-Foulkes estimate   =    -329.49169052 Ry
     estimated scf accuracy    <       0.00010899 Ry

     iteration #  3     ecut=    30.00 Ry     beta=0.70
     Davidson diagonalization with overlap
     ethr =  1.92E-07,  avg # of iterations =  2.0

     total cpu time spent up to now is       40.1 secs

     total energy              =    -329.49166099 Ry
     Harris-Foulkes estimate   =    -329.49167184 Ry
     estimated scf accuracy    <       0.00002857 Ry

     iteration #  4     ecut=    30.00 Ry     beta=0.70
     Davidson diagonalization with overlap
     ethr =  5.19E-08,  avg # of iterations =  2.0

     total cpu time spent up to now is       40.3 secs

     total energy              =    -329.49166633 Ry
     Harris-Foulkes estimate   =    -329.49166859 Ry
     estimated scf accuracy    <       0.00000425 Ry

     iteration #  5     ecut=    30.00 Ry     beta=0.70
     Davidson diagonalization with overlap
     ethr =  7.73E-09,  avg # of iterations =  2.0

     total cpu time spent up to now is       40.5 secs

     total energy              =    -329.49166711 Ry
     Harris-Foulkes estimate   =    -329.49166724 Ry
     estimated scf accuracy    <       0.00000050 Ry

     iteration #  6     ecut=    30.00 Ry     beta=0.70
     Davidson diagonalization with overlap
     ethr =  9.02E-10,  avg # of iterations =  2.0

     total cpu time spent up to now is       40.8 secs

     total energy              =    -329.49166723 Ry
     Harris-Foulkes estimate   =    -329.49166724 Ry
     estimated scf accuracy    <       0.00000004 Ry

     iteration #  7     ecut=    30.00 Ry     beta=0.70
[...]

     total cpu time spent up to now is       84.4 secs

     total energy              =    -329.49245200 Ry
     Harris-Foulkes estimate   =    -329.49245922 Ry
     estimated scf accuracy    <       0.00001907 Ry

     iteration #  2     ecut=    30.00 Ry     beta=0.70
     Davidson diagonalization with overlap
     ethr =  3.47E-08,  avg # of iterations =  3.0

     total cpu time spent up to now is       84.7 secs

     total energy              =    -329.49245219 Ry
     Harris-Foulkes estimate   =    -329.49246481 Ry
     estimated scf accuracy    <       0.00002616 Ry

     iteration #  3     ecut=    30.00 Ry     beta=0.70
     Davidson diagonalization with overlap
     ethr =  3.47E-08,  avg # of iterations =  2.0

     total cpu time spent up to now is       84.9 secs

     total energy              =    -329.49245750 Ry
     Harris-Foulkes estimate   =    -329.49245962 Ry
     estimated scf accuracy    <       0.00000570 Ry

     iteration #  4     ecut=    30.00 Ry     beta=0.70
     Davidson diagonalization with overlap
     ethr =  1.04E-08,  avg # of iterations =  2.0

     total cpu time spent up to now is       85.1 secs

     total energy              =    -329.49245842 Ry
     Harris-Foulkes estimate   =    -329.49245893 Ry
     estimated scf accuracy    <       0.00000072 Ry

     iteration #  5     ecut=    30.00 Ry     beta=0.70
     Davidson diagonalization with overlap
     ethr =  1.30E-09,  avg # of iterations =  2.0

     total cpu time spent up to now is       85.4 secs

     total energy              =    -329.49245847 Ry
     Harris-Foulkes estimate   =    -329.49245861 Ry
     estimated scf accuracy    <       0.00000013 Ry

     iteration #  6     ecut=    30.00 Ry     beta=0.70
     Davidson diagonalization with overlap
     ethr =  2.36E-10,  avg # of iterations =  2.0

     total cpu time spent up to now is       85.6 secs

     total energy              =    -329.49245844 Ry
     Harris-Foulkes estimate   =    -329.49245850 Ry
     estimated scf accuracy    <       0.00000001 Ry

     iteration #  7     ecut=    30.00 Ry     beta=0.70
     Davidson diagonalization with overlap
     ethr =  2.02E-11,  avg # of iterations =  2.0

     total cpu time spent up to now is       85.9 secs

     total energy              =    -329.49245837 Ry
     Harris-Foulkes estimate   =    -329.49245844 Ry
     estimated scf accuracy    <          3.5E-09 Ry

     iteration #  8     ecut=    30.00 Ry     beta=0.70
     Davidson diagonalization with overlap
     ethr =  6.45E-12,  avg # of iterations =  2.0

     total cpu time spent up to now is       86.1 secs

     total energy              =    -329.49245835 Ry
     Harris-Foulkes estimate   =    -329.49245837 Ry
     estimated scf accuracy    <          7.1E-10 Ry

     iteration #  9     ecut=    30.00 Ry     beta=0.70
     Davidson diagonalization with overlap
     ethr =  1.29E-12,  avg # of iterations =  3.0

     total cpu time spent up to now is       86.4 secs

     total energy              =    -329.49245836 Ry
     Harris-Foulkes estimate   =    -329.49245835 Ry
     estimated scf accuracy    <          1.7E-10 Ry

     iteration # 10     ecut=    30.00 Ry     beta=0.70
     Davidson diagonalization with overlap
     ethr =  3.00E-13,  avg # of iterations =  2.0

     total cpu time spent up to now is       86.8 secs

     End of self-consistent calculation

          k = 0.0000 0.0000 0.0000 ( 22119 PWs)   bands (ev):

    -8.5010  -7.7820  -7.6613  -7.2446  -6.8569  -6.8117  -6.6099  -6.4855
    -6.3179  -6.0744  -5.9493  -5.7698  -5.7295  -5.6786  -5.4685  -5.3616
    -5.3144  -5.2518  -5.1993  -5.1863  -5.1686  -5.1207  -5.0080  -4.9232
    -4.8427  -4.7320  -4.4814  -3.7681  -2.4579  -2.2157  -0.5497  -0.1761
     0.4438   0.8419

     the Fermi energy is    -3.7338 ev

!    total energy              =    -329.49245836 Ry
     Harris-Foulkes estimate   =    -329.49245836 Ry
     estimated scf accuracy    <          8.3E-12 Ry

     The total energy is the sum of the following terms:

     one-electron contribution =    -607.66310912 Ry
     hartree contribution      =     325.26051470 Ry
     xc contribution           =     -51.39871916 Ry
     ewald contribution        =       4.31359028 Ry
     smearing contrib. (-TS)   =      -0.00473506 Ry

     convergence has been achieved in  10 iterations

     Forces acting on atoms (Ry/au):

     atom    1 type  1   force =     0.00154576   -0.00071251   -0.00040697
     atom    2 type  1   force =     0.00007874    0.00073547    0.00035400
     atom    3 type  1   force =    -0.00017750    0.00042448    0.00013680
     atom    4 type  1   force =     0.00062040   -0.00064980    0.00047241
     atom    5 type  1   force =    -0.00206740    0.00020235   -0.00055623

     Total force =     0.003102     Total SCF correction =     0.000014

     number of scf cycles    =  27
     number of bfgs steps    =  26

     energy   old            =    -329.4924264164 Ry
     energy   new            =    -329.4924583631 Ry

     CASE: energy  _new < energy  _old

     new trust radius        =       0.0134144361 bohr
     new conv_thr            =            1.0E-10 Ry


ATOMIC_POSITIONS (bohr)
Au      -1.458446281   1.941179231  -1.313898074
Au      -0.837503315   3.666911167   3.532388737
Au       3.141237126   1.409826463   0.725533050
Au       3.798671171   3.364881147   5.821157974
Au       7.625048300   1.328294992   3.053838313



     Writing output data file pwscf.save
     Check: negative starting charge=   -0.006453
     NEW-OLD atomic charge density approx. for the potential
     Check: negative starting charge=   -0.006443

     negative rho (up, down):  2.908E-05 0.000E+00

     total cpu time spent up to now is       87.1 secs

     per-process dynamical memory:    50.7 Mb

     Self-consistent Calculation

     iteration #  1     ecut=    30.00 Ry     beta=0.70
     Davidson diagonalization with overlap
     ethr =  1.00E-06,  avg # of iterations =  4.0

     Threshold (ethr) on eigenvalues was too large:
     Diagonalizing with lowered threshold

     Davidson diagonalization with overlap
     ethr =  9.05E-08,  avg # of iterations =  1.0

     negative rho (up, down):  7.075E-08 0.000E+00

     total cpu time spent up to now is       87.6 secs

     total energy              =    -329.49247419 Ry
     Harris-Foulkes estimate   =    -329.49248953 Ry
     estimated scf accuracy    <       0.00005005 Ry

     iteration #  2     ecut=    30.00 Ry     beta=0.70
     Davidson diagonalization with overlap
     ethr =  9.10E-08,  avg # of iterations =  3.0

     total cpu time spent up to now is       87.9 secs

     total energy              =    -329.49247312 Ry
     Harris-Foulkes estimate   =    -329.49251072 Ry
     estimated scf accuracy    <       0.00008503 Ry

     iteration #  3     ecut=    30.00 Ry     beta=0.70
     Davidson diagonalization with overlap
     ethr =  9.10E-08,  avg # of iterations =  2.0

     total cpu time spent up to now is       88.1 secs

     total energy              =    -329.49249065 Ry
     Harris-Foulkes estimate   =    -329.49249646 Ry
     estimated scf accuracy    <       0.00001640 Ry

     iteration #  4     ecut=    30.00 Ry     beta=0.70
     Davidson diagonalization with overlap
     ethr =  2.98E-08,  avg # of iterations =  2.0

     total cpu time spent up to now is       88.4 secs

     total energy              =    -329.49249391 Ry
     Harris-Foulkes estimate   =    -329.49249435 Ry
     estimated scf accuracy    <       0.00000142 Ry

     iteration #  5     ecut=    30.00 Ry     beta=0.70
     Davidson diagonalization with overlap
     ethr =  2.58E-09,  avg # of iterations =  3.0

     total cpu time spent up to now is       88.6 secs

     total energy              =    -329.49249430 Ry
     Harris-Foulkes estimate   =    -329.49249436 Ry
     estimated scf accuracy    <       0.00000037 Ry

     iteration #  6     ecut=    30.00 Ry     beta=0.70
     Davidson diagonalization with overlap
     ethr =  6.79E-10,  avg # of iterations =  2.0

     total cpu time spent up to now is       88.8 secs

     total energy              =    -329.49249429 Ry
     Harris-Foulkes estimate   =    -329.49249438 Ry
     estimated scf accuracy    <       0.00000003 Ry

     iteration #  7     ecut=    30.00 Ry     beta=0.70
     Davidson diagonalization with overlap
     ethr =  4.92E-11,  avg # of iterations =  3.0

     total cpu time spent up to now is       89.1 secs

     total energy              =    -329.49249410 Ry
     Harris-Foulkes estimate   =    -329.49249430 Ry
     estimated scf accuracy    <          5.9E-09 Ry

     iteration #  8     ecut=    30.00 Ry     beta=0.70
     Davidson diagonalization with overlap
     ethr =  1.08E-11,  avg # of iterations =  2.0

     total cpu time spent up to now is       89.3 secs

     total energy              =    -329.49249409 Ry
     Harris-Foulkes estimate   =    -329.49249410 Ry
     estimated scf accuracy    <          2.5E-09 Ry

     iteration #  9     ecut=    30.00 Ry     beta=0.70
     Davidson diagonalization with overlap
     ethr =  4.49E-12,  avg # of iterations =  2.0

     total cpu time spent up to now is       89.6 secs

     total energy              =    -329.49249407 Ry
     Harris-Foulkes estimate   =    -329.49249409 Ry
     estimated scf accuracy    <          4.7E-10 Ry

     iteration # 10     ecut=    30.00 Ry     beta=0.70
     Davidson diagonalization with overlap
     ethr =  8.60E-13,  avg # of iterations =  2.0

     total cpu time spent up to now is       89.8 secs

     End of self-consistent calculation

          k = 0.0000 0.0000 0.0000 ( 22119 PWs)   bands (ev):

    -8.5029  -7.7804  -7.6536  -7.2381  -6.8623  -6.8142  -6.6095  -6.4811
    -6.3133  -6.0747  -5.9531  -5.7697  -5.7308  -5.6796  -5.4620  -5.3619
    -5.3151  -5.2491  -5.1999  -5.1884  -5.1669  -5.1225  -5.0041  -4.9240
    -4.8495  -4.7276  -4.4810  -3.7696  -2.4520  -2.2194  -0.5487  -0.1796
     0.4433   0.8417

     the Fermi energy is    -3.7357 ev

!    total energy              =    -329.49249407 Ry
     Harris-Foulkes estimate   =    -329.49249407 Ry
     estimated scf accuracy    <          3.9E-11 Ry

     The total energy is the sum of the following terms:

     one-electron contribution =    -607.54718939 Ry
     hartree contribution      =     325.20362917 Ry
     xc contribution           =     -51.39872710 Ry
     ewald contribution        =       4.25446276 Ry
     smearing contrib. (-TS)   =      -0.00466952 Ry

     convergence has been achieved in  10 iterations

     Forces acting on atoms (Ry/au):

     atom    1 type  1   force =     0.00123696   -0.00024016   -0.00004960
     atom    2 type  1   force =     0.00066473    0.00015189    0.00004491
     atom    3 type  1   force =    -0.00079264    0.00048773    0.00045516
     atom    4 type  1   force =    -0.00007520   -0.00044687   -0.00015328
     atom    5 type  1   force =    -0.00103385    0.00004740   -0.00029718

     Total force =     0.002126     Total SCF correction =     0.000033

     number of scf cycles    =  28
     number of bfgs steps    =  27

     energy   old            =    -329.4924583631 Ry
     energy   new            =    -329.4924940674 Ry

     CASE: energy  _new < energy  _old

     new trust radius        =       0.0090203111 bohr
     new conv_thr            =            1.0E-10 Ry


ATOMIC_POSITIONS (bohr)
Au      -1.455731311   1.936127157  -1.316591561
Au      -0.832508104   3.672545296   3.530122606
Au       3.140229421   1.413147721   0.723034014
Au       3.800039458   3.360488587   5.828916790
Au       7.616977535   1.328784239   3.053538152



     Writing output data file pwscf.save
     Check: negative starting charge=   -0.006443
     NEW-OLD atomic charge density approx. for the potential
     Check: negative starting charge=   -0.006440

     negative rho (up, down):  6.228E-06 0.000E+00

     total cpu time spent up to now is       90.1 secs

     per-process dynamical memory:    50.7 Mb

     Self-consistent Calculation

     iteration #  1     ecut=    30.00 Ry     beta=0.70
     Davidson diagonalization with overlap
     ethr =  1.00E-06,  avg # of iterations =  4.0

     Threshold (ethr) on eigenvalues was too large:
     Diagonalizing with lowered threshold

     Davidson diagonalization with overlap
     ethr =  3.67E-08,  avg # of iterations =  1.0

     total cpu time spent up to now is       90.6 secs

     total energy              =    -329.49249788 Ry
     Harris-Foulkes estimate   =    -329.49250431 Ry
     estimated scf accuracy    <       0.00002128 Ry

     iteration #  2     ecut=    30.00 Ry     beta=0.70
     Davidson diagonalization with overlap
     ethr =  3.87E-08,  avg # of iterations =  2.0

     total cpu time spent up to now is       90.9 secs

     total energy              =    -329.49249827 Ry
     Harris-Foulkes estimate   =    -329.49251228 Ry
     estimated scf accuracy    <       0.00003055 Ry

     iteration #  3     ecut=    30.00 Ry     beta=0.70
     Davidson diagonalization with overlap
     ethr =  3.87E-08,  avg # of iterations =  2.0

     total cpu time spent up to now is       91.1 secs

     total energy              =    -329.49250456 Ry
     Harris-Foulkes estimate   =    -329.49250713 Ry
     estimated scf accuracy    <       0.00000722 Ry

     iteration #  4     ecut=    30.00 Ry     beta=0.70
     Davidson diagonalization with overlap
     ethr =  1.31E-08,  avg # of iterations =  2.0

     total cpu time spent up to now is       91.3 secs

     total energy              =    -329.49250609 Ry
     Harris-Foulkes estimate   =    -329.49250623 Ry
     estimated scf accuracy    <       0.00000066 Ry

     iteration #  5     ecut=    30.00 Ry     beta=0.70
     Davidson diagonalization with overlap
     ethr =  1.19E-09,  avg # of iterations =  2.0

     total cpu time spent up to now is       91.6 secs

     total energy              =    -329.49250617 Ry
     Harris-Foulkes estimate   =    -329.49250627 Ry
     estimated scf accuracy    <       0.00000010 Ry

     iteration #  6     ecut=    30.00 Ry     beta=0.70
     Davidson diagonalization with overlap
     ethr =  1.78E-10,  avg # of iterations =  2.0

     total cpu time spent up to now is       91.8 secs

     total energy              =    -329.49250617 Ry
     Harris-Foulkes estimate   =    -329.49250619 Ry
     estimated scf accuracy    <          9.3E-09 Ry

     iteration #  7     ecut=    30.00 Ry     beta=0.70
     Davidson diagonalization with overlap
     ethr =  1.70E-11,  avg # of iterations =  2.0

     total cpu time spent up to now is       92.1 secs

     total energy              =    -329.49250618 Ry
     Harris-Foulkes estimate   =    -329.49250617 Ry
     estimated scf accuracy    <          2.3E-09 Ry

     iteration #  8     ecut=    30.00 Ry     beta=0.70
     Davidson diagonalization with overlap
     ethr =  4.22E-12,  avg # of iterations =  2.0

     total cpu time spent up to now is       92.3 secs

     total energy              =    -329.49250617 Ry
     Harris-Foulkes estimate   =    -329.49250618 Ry
     estimated scf accuracy    <          4.6E-10 Ry

     iteration #  9     ecut=    30.00 Ry     beta=0.70
     Davidson diagonalization with overlap
     ethr =  8.31E-13,  avg # of iterations =  2.0

     total cpu time spent up to now is       92.6 secs

     total energy              =    -329.49250615 Ry
     Harris-Foulkes estimate   =    -329.49250617 Ry
     estimated scf accuracy    <          1.4E-10 Ry

     iteration # 10     ecut=    30.00 Ry     beta=0.70
     Davidson diagonalization with overlap
     ethr =  2.63E-13,  avg # of iterations =  3.0

     total cpu time spent up to now is       92.8 secs

     End of self-consistent calculation

          k = 0.0000 0.0000 0.0000 ( 22119 PWs)   bands (ev):

    -8.5082  -7.7832  -7.6528  -7.2367  -6.8659  -6.8180  -6.6092  -6.4814
    -6.3118  -6.0770  -5.9550  -5.7705  -5.7322  -5.6809  -5.4596  -5.3617
    -5.3153  -5.2484  -5.2002  -5.1897  -5.1660  -5.1230  -5.0014  -4.9248
    -4.8526  -4.7241  -4.4814  -3.7696  -2.4474  -2.2211  -0.5487  -0.1807
     0.4431   0.8415

     the Fermi energy is    -3.7357 ev

!    total energy              =    -329.49250616 Ry
     Harris-Foulkes estimate   =    -329.49250615 Ry
     estimated scf accuracy    <          2.6E-11 Ry

     The total energy is the sum of the following terms:

     one-electron contribution =    -607.64670162 Ry
     hartree contribution      =     325.25263813 Ry
     xc contribution           =     -51.39930300 Ry
     ewald contribution        =       4.30552638 Ry
     smearing contrib. (-TS)   =      -0.00466607 Ry

     convergence has been achieved in  10 iterations

     Forces acting on atoms (Ry/au):

     atom    1 type  1   force =     0.00084051    0.00006442    0.00007536
     atom    2 type  1   force =     0.00077340   -0.00014143    0.00004259
     atom    3 type  1   force =    -0.00084288    0.00034816    0.00038255
     atom    4 type  1   force =    -0.00051501   -0.00016875   -0.00032411
     atom    5 type  1   force =    -0.00025602   -0.00010240   -0.00017639

     Total force =     0.001679     Total SCF correction =     0.000021

     bfgs converged in  29 scf cycles and  28 bfgs steps
     (criteria: energy <  1.0E-04, force <  1.0E-03)

     End of BFGS Geometry Optimization

     Final energy   =    -329.4925061625 Ry
Begin final coordinates

ATOMIC_POSITIONS (bohr)
Au      -1.455731311   1.936127157  -1.316591561
Au      -0.832508104   3.672545296   3.530122606
Au       3.140229421   1.413147721   0.723034014
Au       3.800039458   3.360488587   5.828916790
Au       7.616977535   1.328784239   3.053538152
End final coordinates



     Writing output data file pwscf.save
 
     init_run     :      0.16s CPU      0.18s WALL (       1 calls)
     electrons    :     77.23s CPU     86.05s WALL (      29 calls)
     update_pot   :      2.20s CPU      2.88s WALL (      28 calls)
     forces       :      1.54s CPU      1.62s WALL (      29 calls)

     Called by init_run:
     wfcinit      :      0.07s CPU      0.08s WALL (       1 calls)
     potinit      :      0.03s CPU      0.03s WALL (       1 calls)

     Called by electrons:
     c_bands      :     59.12s CPU     62.69s WALL (     298 calls)
     sum_band     :      8.44s CPU      8.95s WALL (     298 calls)
     v_of_rho     :      6.63s CPU      6.99s WALL (     317 calls)
     mix_rho      :      2.62s CPU      5.36s WALL (     298 calls)

     Called by c_bands:
     init_us_2    :      1.00s CPU      1.08s WALL (     597 calls)
     cegterg      :     52.98s CPU     55.91s WALL (     298 calls)

     Called by sum_band:

     Called by *egterg:
     h_psi        :     41.81s CPU     44.09s WALL (    1034 calls)
     g_psi        :      0.38s CPU      0.39s WALL (     735 calls)
     cdiaghg      :      2.62s CPU      2.75s WALL (     995 calls)

     Called by h_psi:
     h_psi:pot    :     41.28s CPU     43.53s WALL (    1034 calls)
     h_psi:calbec :      2.26s CPU      2.41s WALL (    1034 calls)
     vloc_psi     :     36.67s CPU     38.67s WALL (    1034 calls)
     add_vuspsi   :      2.35s CPU      2.45s WALL (    1034 calls)

     General routines
     calbec       :      2.68s CPU      2.87s WALL (    1150 calls)
     fft          :      3.80s CPU      4.07s WALL (    3564 calls)
     fftw         :     39.30s CPU     41.35s WALL (   66168 calls)
     davcio       :      0.38s CPU      2.54s WALL (    3070 calls)
 
     Parallel routines
     fft_scatter  :     13.27s CPU     14.01s WALL (   69732 calls)
 
     PWSCF        :  1m22.13s CPU     1m33.01s WALL

 
   This run was terminated on:  14:36:12   3Aug2017            

=------------------------------------------------------------------------------=
   JOB DONE.
=------------------------------------------------------------------------------=
