
     Program PWSCF v.6.0 (svn rev. 13079) starts on  3Aug2017 at 16:40:51 

     This program is part of the open-source Quantum ESPRESSO suite
     for quantum simulation of materials; please cite
         "P. Giannozzi et al., J. Phys.:Condens. Matter 21 395502 (2009);
          URL http://www.quantum-espresso.org", 
     in publications or presentations arising from this work. More details at
     http://www.quantum-espresso.org/quote

     Parallel version (MPI), running on    10 processors
     R & G space division:  proc/nbgrp/npool/nimage =      10
     Reading input from input/multi/minchecks-Gold5-265.in

     Current dimensions of program PWSCF are:
     Max number of different atomic species (ntypx) = 10
     Max number of k-points (npk) =  40000
     Max angular momentum in pseudopotentials (lmaxx) =  3
     Message from routine iosys:
     pot_extrapolation='second-order' not available, using 'atomic'
     Message from routine iosys:
     wfc_extrapolation='second-order' not available, using 'atomic'

     Subspace diagonalization in iterative solution of the eigenvalue problem:
     a serial algorithm will be used

 
     Parallelization info
     --------------------
     sticks:   dense  smooth     PW     G-vecs:    dense   smooth      PW
     Min         380     380     94                17748    17748    2208
     Max         381     381     95                17753    17753    2213
     Sum        3809    3809    949               177509   177509   22119
 


     bravais-lattice index     =            1
     lattice parameter (alat)  =      20.0000  a.u.
     unit-cell volume          =    8000.0000 (a.u.)^3
     number of atoms/cell      =            5
     number of atomic types    =            1
     number of electrons       =        55.00
     number of Kohn-Sham states=           34
     kinetic-energy cutoff     =      30.0000  Ry
     charge density cutoff     =     120.0000  Ry
     convergence threshold     =      1.0E-08
     mixing beta               =       0.7000
     number of iterations used =            8  plain     mixing
     Exchange-correlation      = BLYP ( 1  3  1  3 0 0)
     nstep                     =           50


     celldm(1)=  20.000000  celldm(2)=   0.000000  celldm(3)=   0.000000
     celldm(4)=   0.000000  celldm(5)=   0.000000  celldm(6)=   0.000000

     crystal axes: (cart. coord. in units of alat)
               a(1) = (   1.000000   0.000000   0.000000 )  
               a(2) = (   0.000000   1.000000   0.000000 )  
               a(3) = (   0.000000   0.000000   1.000000 )  

     reciprocal axes: (cart. coord. in units 2 pi/alat)
               b(1) = (  1.000000  0.000000  0.000000 )  
               b(2) = (  0.000000  1.000000  0.000000 )  
               b(3) = (  0.000000  0.000000  1.000000 )  


     PseudoPot. # 1 for Au read from file:
     ./Au.blyp-d-hgh.UPF
     MD5 check sum: c10d8bae01f806c36a1643a1c69a8479
     Pseudo is Norm-conserving, Zval = 11.0
     Generated in analytical, separable form
     Using radial grid of 1279 points,  6 beta functions with: 
                l(1) =   0
                l(2) =   0
                l(3) =   1
                l(4) =   1
                l(5) =   2
                l(6) =   2

     atomic species   valence    mass     pseudopotential
        Au            11.00    28.08600     Au( 1.00)

     No symmetry found



   Cartesian axes

     site n.     atom                  positions (alat units)
         1           Au  tau(   1) = (  -0.1001135   0.1289798  -0.0432926  )
         2           Au  tau(   2) = (  -0.0439247   0.1690944   0.2081122  )
         3           Au  tau(   3) = (   0.1437471   0.1153240   0.0333435  )
         4           Au  tau(   4) = (   0.2079111   0.1778799   0.2816857  )
         5           Au  tau(   5) = (   0.3857689   0.0783190   0.1167609  )

     number of k points=     1  Marzari-Vanderbilt smearing, width (Ry)=  0.0250
                       cart. coord. in units 2pi/alat
        k(    1) = (   0.0000000   0.0000000   0.0000000), wk =   2.0000000

     Dense  grid:   177509 G-vectors     FFT dimensions: (  72,  72,  72)

     Estimated max dynamical RAM per process >      15.04Mb

     Estimated total allocated dynamical RAM >     150.39Mb

     Initial potential from superposition of free atoms
     Check: negative starting charge=   -0.006545

     starting charge   54.99940, renormalised to   55.00000

     negative rho (up, down):  6.545E-03 0.000E+00
     Starting wfc are   45 randomized atomic wfcs

     total cpu time spent up to now is        0.4 secs

     per-process dynamical memory:    41.0 Mb

     Self-consistent Calculation

     iteration #  1     ecut=    30.00 Ry     beta=0.70
     Davidson diagonalization with overlap
     ethr =  1.00E-02,  avg # of iterations =  3.0

     Threshold (ethr) on eigenvalues was too large:
     Diagonalizing with lowered threshold

     Davidson diagonalization with overlap
     ethr =  3.90E-04,  avg # of iterations =  5.0

     negative rho (up, down):  9.051E-04 0.000E+00

     total cpu time spent up to now is        0.8 secs

     total energy              =    -329.38482498 Ry
     Harris-Foulkes estimate   =    -329.54514346 Ry
     estimated scf accuracy    <       0.26978666 Ry

     iteration #  2     ecut=    30.00 Ry     beta=0.70
     Davidson diagonalization with overlap
     ethr =  4.91E-04,  avg # of iterations =  4.0

     negative rho (up, down):  3.705E-04 0.000E+00

     total cpu time spent up to now is        1.1 secs

     total energy              =    -329.43337919 Ry
     Harris-Foulkes estimate   =    -329.54422192 Ry
     estimated scf accuracy    <       0.21929458 Ry

     iteration #  3     ecut=    30.00 Ry     beta=0.70
     Davidson diagonalization with overlap
     ethr =  3.99E-04,  avg # of iterations =  2.0

     negative rho (up, down):  1.372E-04 0.000E+00

     total cpu time spent up to now is        1.4 secs

     total energy              =    -329.47851469 Ry
     Harris-Foulkes estimate   =    -329.49454865 Ry
     estimated scf accuracy    <       0.03830752 Ry

     iteration #  4     ecut=    30.00 Ry     beta=0.70
     Davidson diagonalization with overlap
     ethr =  6.97E-05,  avg # of iterations =  5.0

     negative rho (up, down):  3.513E-06 0.000E+00

     total cpu time spent up to now is        2.0 secs

     total energy              =    -329.48648048 Ry
     Harris-Foulkes estimate   =    -329.48770579 Ry
     estimated scf accuracy    <       0.00322534 Ry

     iteration #  5     ecut=    30.00 Ry     beta=0.70
     Davidson diagonalization with overlap
     ethr =  5.86E-06,  avg # of iterations =  4.0

     total cpu time spent up to now is        2.3 secs

     total energy              =    -329.48711221 Ry
     Harris-Foulkes estimate   =    -329.48771028 Ry
     estimated scf accuracy    <       0.00148051 Ry

     iteration #  6     ecut=    30.00 Ry     beta=0.70
     Davidson diagonalization with overlap
     ethr =  2.69E-06,  avg # of iterations =  2.0

     total cpu time spent up to now is        2.5 secs

     total energy              =    -329.48738819 Ry
     Harris-Foulkes estimate   =    -329.48746843 Ry
     estimated scf accuracy    <       0.00020473 Ry

     iteration #  7     ecut=    30.00 Ry     beta=0.70
     Davidson diagonalization with overlap
     ethr =  3.72E-07,  avg # of iterations =  2.0

     total cpu time spent up to now is        2.7 secs

     total energy              =    -329.48742933 Ry
     Harris-Foulkes estimate   =    -329.48743385 Ry
     estimated scf accuracy    <       0.00001008 Ry

     iteration #  8     ecut=    30.00 Ry     beta=0.70
     Davidson diagonalization with overlap
     ethr =  1.83E-08,  avg # of iterations =  3.0

     total cpu time spent up to now is        3.0 secs

     total energy              =    -329.48743135 Ry
     Harris-Foulkes estimate   =    -329.48743335 Ry
     estimated scf accuracy    <       0.00000359 Ry

     iteration #  9     ecut=    30.00 Ry     beta=0.70
     Davidson diagonalization with overlap
     ethr =  6.52E-09,  avg # of iterations =  2.0

     total cpu time spent up to now is        3.3 secs

     total energy              =    -329.48743189 Ry
     Harris-Foulkes estimate   =    -329.48743228 Ry
     estimated scf accuracy    <       0.00000053 Ry

     iteration # 10     ecut=    30.00 Ry     beta=0.70
     Davidson diagonalization with overlap
     ethr =  9.59E-10,  avg # of iterations =  2.0

     total cpu time spent up to now is        3.7 secs

     total energy              =    -329.48743193 Ry
     Harris-Foulkes estimate   =    -329.48743208 Ry
     estimated scf accuracy    <       0.00000030 Ry

     iteration # 11     ecut=    30.00 Ry     beta=0.70
     Davidson diagonalization with overlap
     ethr =  5.47E-10,  avg # of iterations =  2.0

     total cpu time spent up to now is        3.9 secs

     End of self-consistent calculation

          k = 0.0000 0.0000 0.0000 ( 22119 PWs)   bands (ev):

    -8.4862  -7.7838  -7.7507  -7.1872  -6.8005  -6.6829  -6.5793  -6.5703
    -6.2574  -6.0961  -5.8640  -5.7736  -5.6784  -5.6501  -5.5179  -5.3475
    -5.3151  -5.2858  -5.1927  -5.1717  -5.1599  -5.1090  -5.0333  -4.9799
    -4.7723  -4.7380  -4.5389  -3.7581  -2.5343  -2.2474  -0.5587  -0.1466
     0.4892   0.7505

     the Fermi energy is    -3.7182 ev

!    total energy              =    -329.48743191 Ry
     Harris-Foulkes estimate   =    -329.48743199 Ry
     estimated scf accuracy    <          5.9E-09 Ry

     The total energy is the sum of the following terms:

     one-electron contribution =    -607.25190604 Ry
     hartree contribution      =     325.06388142 Ry
     xc contribution           =     -51.38848604 Ry
     ewald contribution        =       4.09512436 Ry
     smearing contrib. (-TS)   =      -0.00604561 Ry

     convergence has been achieved in  11 iterations

     Forces acting on atoms (Ry/au):

     atom    1 type  1   force =     0.00849430   -0.00010723    0.00589610
     atom    2 type  1   force =    -0.00272154    0.00370786    0.00370362
     atom    3 type  1   force =     0.00776542   -0.00836795   -0.01108411
     atom    4 type  1   force =     0.00188786   -0.00167724    0.00145981
     atom    5 type  1   force =    -0.01542605    0.00644456    0.00002457

     Total force =     0.026134     Total SCF correction =     0.000276

     BFGS Geometry Optimization

     number of scf cycles    =   1
     number of bfgs steps    =   0

     energy   new            =    -329.4874319148 Ry

     new trust radius        =       0.0167181313 bohr
     new conv_thr            =       0.0000000100 Ry


ATOMIC_POSITIONS (bohr)
Au      -1.993774698   2.579487765  -0.859955900
Au      -0.881216538   3.385594857   4.165947622
Au       2.882706423   2.298112054   0.655785894
Au       4.160109859   3.555919760   5.635173811
Au       7.699952954   1.572824564   2.335242573



     Writing output data file pwscf.save
     Check: negative starting charge=   -0.006545
     NEW-OLD atomic charge density approx. for the potential
     Check: negative starting charge=   -0.006544

     negative rho (up, down):  3.227E-05 0.000E+00

     total cpu time spent up to now is        4.2 secs

     per-process dynamical memory:    42.9 Mb

     Self-consistent Calculation

     iteration #  1     ecut=    30.00 Ry     beta=0.70
     Davidson diagonalization with overlap
     ethr =  1.00E-06,  avg # of iterations =  4.0

     negative rho (up, down):  6.555E-08 0.000E+00

     total cpu time spent up to now is        4.5 secs

     total energy              =    -329.48804778 Ry
     Harris-Foulkes estimate   =    -329.48806008 Ry
     estimated scf accuracy    <       0.00005559 Ry

     iteration #  2     ecut=    30.00 Ry     beta=0.70
     Davidson diagonalization with overlap
     ethr =  1.01E-07,  avg # of iterations =  3.0

     total cpu time spent up to now is        4.8 secs

     total energy              =    -329.48803959 Ry
     Harris-Foulkes estimate   =    -329.48810280 Ry
     estimated scf accuracy    <       0.00015988 Ry

     iteration #  3     ecut=    30.00 Ry     beta=0.70
     Davidson diagonalization with overlap
     ethr =  1.01E-07,  avg # of iterations =  2.0

     total cpu time spent up to now is        5.0 secs

     total energy              =    -329.48807029 Ry
     Harris-Foulkes estimate   =    -329.48807360 Ry
     estimated scf accuracy    <       0.00000885 Ry

     iteration #  4     ecut=    30.00 Ry     beta=0.70
     Davidson diagonalization with overlap
     ethr =  1.61E-08,  avg # of iterations =  2.0

     total cpu time spent up to now is        5.2 secs

     total energy              =    -329.48807163 Ry
     Harris-Foulkes estimate   =    -329.48807269 Ry
     estimated scf accuracy    <       0.00000183 Ry

     iteration #  5     ecut=    30.00 Ry     beta=0.70
     Davidson diagonalization with overlap
     ethr =  3.32E-09,  avg # of iterations =  2.0

     total cpu time spent up to now is        5.4 secs

     total energy              =    -329.48807180 Ry
     Harris-Foulkes estimate   =    -329.48807223 Ry
     estimated scf accuracy    <       0.00000061 Ry

     iteration #  6     ecut=    30.00 Ry     beta=0.70
     Davidson diagonalization with overlap
     ethr =  1.10E-09,  avg # of iterations =  2.0

     total cpu time spent up to now is        5.6 secs

     total energy              =    -329.48807178 Ry
     Harris-Foulkes estimate   =    -329.48807193 Ry
     estimated scf accuracy    <       0.00000001 Ry

     iteration #  7     ecut=    30.00 Ry     beta=0.70
     Davidson diagonalization with overlap
     ethr =  2.66E-11,  avg # of iterations =  3.0

     total cpu time spent up to now is        5.9 secs

     End of self-consistent calculation

          k = 0.0000 0.0000 0.0000 ( 22119 PWs)   bands (ev):

    -8.4914  -7.7863  -7.7322  -7.1899  -6.8059  -6.6949  -6.5843  -6.5602
    -6.2583  -6.0986  -5.8758  -5.7720  -5.6869  -5.6547  -5.5169  -5.3496
    -5.3121  -5.2848  -5.1935  -5.1718  -5.1626  -5.1105  -5.0299  -4.9782
    -4.7759  -4.7382  -4.5357  -3.7566  -2.5289  -2.2470  -0.5585  -0.1516
     0.4916   0.7535

     the Fermi energy is    -3.7169 ev

!    total energy              =    -329.48807167 Ry
     Harris-Foulkes estimate   =    -329.48807179 Ry
     estimated scf accuracy    <          7.4E-09 Ry

     The total energy is the sum of the following terms:

     one-electron contribution =    -607.48757209 Ry
     hartree contribution      =     325.18017202 Ry
     xc contribution           =     -51.38928208 Ry
     ewald contribution        =       4.21464322 Ry
     smearing contrib. (-TS)   =      -0.00603273 Ry

     convergence has been achieved in   7 iterations

     Forces acting on atoms (Ry/au):

     atom    1 type  1   force =     0.00781692    0.00005489    0.00544220
     atom    2 type  1   force =    -0.00137989    0.00334008    0.00332563
     atom    3 type  1   force =     0.00595546   -0.00779162   -0.01025313
     atom    4 type  1   force =     0.00066686   -0.00139155    0.00144502
     atom    5 type  1   force =    -0.01305935    0.00578820    0.00004028

     Total force =     0.022906     Total SCF correction =     0.000390

     number of scf cycles    =   2
     number of bfgs steps    =   1

     energy   old            =    -329.4874319148 Ry
     energy   new            =    -329.4880716675 Ry

     CASE: energy  _new < energy  _old


     WARNING: bfgs curvature condition failed, Theta= 0.916
     new trust radius        =       0.0183899444 bohr
     new conv_thr            =       0.0000000006 Ry


ATOMIC_POSITIONS (bohr)
Au      -1.983817582   2.579530488  -0.853026565
Au      -0.883173358   3.389862185   4.170198416
Au       2.890503258   2.288203267   0.642734930
Au       4.161148841   3.554120318   5.636996467
Au       7.683116841   1.580222742   2.335290752



     Writing output data file pwscf.save
     Check: negative starting charge=   -0.006544
     NEW-OLD atomic charge density approx. for the potential
     Check: negative starting charge=   -0.006542

     negative rho (up, down):  4.799E-05 0.000E+00

     total cpu time spent up to now is        6.1 secs

     per-process dynamical memory:    50.6 Mb

     Self-consistent Calculation

     iteration #  1     ecut=    30.00 Ry     beta=0.70
     Davidson diagonalization with overlap
     ethr =  1.00E-06,  avg # of iterations =  4.0

     negative rho (up, down):  1.690E-07 0.000E+00

     total cpu time spent up to now is        6.5 secs

     total energy              =    -329.48866558 Ry
     Harris-Foulkes estimate   =    -329.48867908 Ry
     estimated scf accuracy    <       0.00006775 Ry

     iteration #  2     ecut=    30.00 Ry     beta=0.70
     Davidson diagonalization with overlap
     ethr =  1.23E-07,  avg # of iterations =  3.0

     negative rho (up, down):  1.759E-08 0.000E+00

     total cpu time spent up to now is        6.7 secs

     total energy              =    -329.48865692 Ry
     Harris-Foulkes estimate   =    -329.48872952 Ry
     estimated scf accuracy    <       0.00018157 Ry

     iteration #  3     ecut=    30.00 Ry     beta=0.70
     Davidson diagonalization with overlap
     ethr =  1.23E-07,  avg # of iterations =  2.0

     total cpu time spent up to now is        7.2 secs

     total energy              =    -329.48869231 Ry
     Harris-Foulkes estimate   =    -329.48869692 Ry
     estimated scf accuracy    <       0.00001218 Ry

     iteration #  4     ecut=    30.00 Ry     beta=0.70
     Davidson diagonalization with overlap
     ethr =  2.22E-08,  avg # of iterations =  2.0

     total cpu time spent up to now is        7.4 secs

     total energy              =    -329.48869425 Ry
     Harris-Foulkes estimate   =    -329.48869544 Ry
     estimated scf accuracy    <       0.00000217 Ry

     iteration #  5     ecut=    30.00 Ry     beta=0.70
     Davidson diagonalization with overlap
     ethr =  3.94E-09,  avg # of iterations =  2.0

     total cpu time spent up to now is        7.6 secs

     total energy              =    -329.48869454 Ry
     Harris-Foulkes estimate   =    -329.48869498 Ry
     estimated scf accuracy    <       0.00000079 Ry

     iteration #  6     ecut=    30.00 Ry     beta=0.70
     Davidson diagonalization with overlap
     ethr =  1.43E-09,  avg # of iterations =  2.0

     total cpu time spent up to now is        7.9 secs

     total energy              =    -329.48869485 Ry
     Harris-Foulkes estimate   =    -329.48869470 Ry
     estimated scf accuracy    <       0.00000002 Ry

     iteration #  7     ecut=    30.00 Ry     beta=0.70
     Davidson diagonalization with overlap
     ethr =  3.16E-11,  avg # of iterations =  3.0

     total cpu time spent up to now is        8.1 secs

     total energy              =    -329.48869479 Ry
     Harris-Foulkes estimate   =    -329.48869486 Ry
     estimated scf accuracy    <          7.7E-09 Ry

     iteration #  8     ecut=    30.00 Ry     beta=0.70
     Davidson diagonalization with overlap
     ethr =  1.39E-11,  avg # of iterations =  2.0

     total cpu time spent up to now is        8.4 secs

     total energy              =    -329.48869476 Ry
     Harris-Foulkes estimate   =    -329.48869479 Ry
     estimated scf accuracy    <          2.3E-09 Ry

     iteration #  9     ecut=    30.00 Ry     beta=0.70
     Davidson diagonalization with overlap
     ethr =  4.21E-12,  avg # of iterations =  2.0

     total cpu time spent up to now is        8.6 secs

     End of self-consistent calculation

          k = 0.0000 0.0000 0.0000 ( 22119 PWs)   bands (ev):

    -8.4981  -7.7895  -7.7133  -7.1937  -6.8129  -6.7089  -6.5914  -6.5482
    -6.2593  -6.1004  -5.8888  -5.7708  -5.6963  -5.6597  -5.5143  -5.3522
    -5.3085  -5.2835  -5.1944  -5.1719  -5.1655  -5.1120  -5.0258  -4.9759
    -4.7829  -4.7354  -4.5316  -3.7556  -2.5225  -2.2457  -0.5584  -0.1574
     0.4945   0.7573

     the Fermi energy is    -3.7160 ev

!    total energy              =    -329.48869477 Ry
     Harris-Foulkes estimate   =    -329.48869476 Ry
     estimated scf accuracy    <          2.0E-10 Ry

     The total energy is the sum of the following terms:

     one-electron contribution =    -607.78260195 Ry
     hartree contribution      =     325.32619495 Ry
     xc contribution           =     -51.39041318 Ry
     ewald contribution        =       4.36411651 Ry
     smearing contrib. (-TS)   =      -0.00599110 Ry

     convergence has been achieved in   9 iterations

     Forces acting on atoms (Ry/au):

     atom    1 type  1   force =     0.00690482    0.00027380    0.00489573
     atom    2 type  1   force =    -0.00003560    0.00294293    0.00292134
     atom    3 type  1   force =     0.00424050   -0.00716931   -0.00932574
     atom    4 type  1   force =    -0.00050811   -0.00110372    0.00139681
     atom    5 type  1   force =    -0.01060161    0.00505629    0.00011187

     Total force =     0.019664     Total SCF correction =     0.000053

     number of scf cycles    =   3
     number of bfgs steps    =   2

     energy   old            =    -329.4880716675 Ry
     energy   new            =    -329.4886947681 Ry

     CASE: energy  _new < energy  _old

     new trust radius        =       0.0275849166 bohr
     new conv_thr            =       0.0000000006 Ry


ATOMIC_POSITIONS (bohr)
Au      -1.968644944   2.579961507  -0.842321345
Au      -0.884251717   3.396356524   4.176653471
Au       2.900755845   2.272632477   0.622403610
Au       4.160968725   3.551578276   5.639968241
Au       7.658950092   1.591410215   2.335490023



     Writing output data file pwscf.save
     Check: negative starting charge=   -0.006542
     NEW-OLD atomic charge density approx. for the potential
     Check: negative starting charge=   -0.006536

     negative rho (up, down):  1.495E-04 0.000E+00

     total cpu time spent up to now is        8.8 secs

     per-process dynamical memory:    50.6 Mb

     Self-consistent Calculation

     iteration #  1     ecut=    30.00 Ry     beta=0.70
     Davidson diagonalization with overlap
     ethr =  1.00E-06,  avg # of iterations =  4.0

     negative rho (up, down):  1.869E-06 0.000E+00

     total cpu time spent up to now is        9.3 secs

     total energy              =    -329.48938917 Ry
     Harris-Foulkes estimate   =    -329.48940690 Ry
     estimated scf accuracy    <       0.00014508 Ry

     iteration #  2     ecut=    30.00 Ry     beta=0.70
     Davidson diagonalization with overlap
     ethr =  2.64E-07,  avg # of iterations =  3.0

     negative rho (up, down):  3.396E-07 0.000E+00

     total cpu time spent up to now is        9.5 secs

     total energy              =    -329.48937494 Ry
     Harris-Foulkes estimate   =    -329.48951817 Ry
     estimated scf accuracy    <       0.00035163 Ry

     iteration #  3     ecut=    30.00 Ry     beta=0.70
     Davidson diagonalization with overlap
     ethr =  2.64E-07,  avg # of iterations =  2.0

     total cpu time spent up to now is        9.8 secs

     total energy              =    -329.48944637 Ry
     Harris-Foulkes estimate   =    -329.48945618 Ry
     estimated scf accuracy    <       0.00002989 Ry

     iteration #  4     ecut=    30.00 Ry     beta=0.70
     Davidson diagonalization with overlap
     ethr =  5.44E-08,  avg # of iterations =  2.0

     total cpu time spent up to now is       10.0 secs

     total energy              =    -329.48945137 Ry
     Harris-Foulkes estimate   =    -329.48945381 Ry
     estimated scf accuracy    <       0.00000470 Ry

     iteration #  5     ecut=    30.00 Ry     beta=0.70
     Davidson diagonalization with overlap
     ethr =  8.55E-09,  avg # of iterations =  2.0

     total cpu time spent up to now is       10.2 secs

     total energy              =    -329.48945224 Ry
     Harris-Foulkes estimate   =    -329.48945297 Ry
     estimated scf accuracy    <       0.00000174 Ry

     iteration #  6     ecut=    30.00 Ry     beta=0.70
     Davidson diagonalization with overlap
     ethr =  3.15E-09,  avg # of iterations =  2.0

     total cpu time spent up to now is       10.4 secs

     total energy              =    -329.48945233 Ry
     Harris-Foulkes estimate   =    -329.48945260 Ry
     estimated scf accuracy    <       0.00000004 Ry

     iteration #  7     ecut=    30.00 Ry     beta=0.70
     Davidson diagonalization with overlap
     ethr =  7.86E-11,  avg # of iterations =  3.0

     total cpu time spent up to now is       10.7 secs

     total energy              =    -329.48945233 Ry
     Harris-Foulkes estimate   =    -329.48945235 Ry
     estimated scf accuracy    <       0.00000002 Ry

     iteration #  8     ecut=    30.00 Ry     beta=0.70
     Davidson diagonalization with overlap
     ethr =  3.22E-11,  avg # of iterations =  2.0

     total cpu time spent up to now is       11.0 secs

     total energy              =    -329.48945238 Ry
     Harris-Foulkes estimate   =    -329.48945233 Ry
     estimated scf accuracy    <          5.3E-09 Ry

     iteration #  9     ecut=    30.00 Ry     beta=0.70
     Davidson diagonalization with overlap
     ethr =  9.73E-12,  avg # of iterations =  2.0

     total cpu time spent up to now is       11.2 secs

     End of self-consistent calculation

          k = 0.0000 0.0000 0.0000 ( 22119 PWs)   bands (ev):

    -8.5090  -7.7943  -7.6888  -7.2000  -6.8240  -6.7300  -6.6023  -6.5319
    -6.2610  -6.1015  -5.9076  -5.7699  -5.7095  -5.6667  -5.5081  -5.3566
    -5.3041  -5.2807  -5.1957  -5.1724  -5.1692  -5.1143  -5.0191  -4.9719
    -4.7955  -4.7292  -4.5244  -3.7552  -2.5126  -2.2429  -0.5584  -0.1663
     0.4992   0.7637

     the Fermi energy is    -3.7161 ev

!    total energy              =    -329.48945236 Ry
     Harris-Foulkes estimate   =    -329.48945239 Ry
     estimated scf accuracy    <          4.7E-10 Ry

     The total energy is the sum of the following terms:

     one-electron contribution =    -608.25910226 Ry
     hartree contribution      =     325.56205596 Ry
     xc contribution           =     -51.39254414 Ry
     ewald contribution        =       4.60601801 Ry
     smearing contrib. (-TS)   =      -0.00587994 Ry

     convergence has been achieved in   9 iterations

     Forces acting on atoms (Ry/au):

     atom    1 type  1   force =     0.00534459    0.00056703    0.00399207
     atom    2 type  1   force =     0.00161594    0.00236919    0.00233432
     atom    3 type  1   force =     0.00215716   -0.00619139   -0.00788724
     atom    4 type  1   force =    -0.00188974   -0.00070526    0.00132865
     atom    5 type  1   force =    -0.00722795    0.00396043    0.00023220

     Total force =     0.015411     Total SCF correction =     0.000082

     number of scf cycles    =   4
     number of bfgs steps    =   3

     energy   old            =    -329.4886947681 Ry
     energy   new            =    -329.4894523602 Ry

     CASE: energy  _new < energy  _old

     new trust radius        =       0.0413773749 bohr
     new conv_thr            =       0.0000000008 Ry


ATOMIC_POSITIONS (bohr)
Au      -1.946380315   2.581207545  -0.826251922
Au      -0.883044942   3.406060502   4.186268411
Au       2.913949379   2.248645607   0.591377043
Au       4.158170869   3.548094775   5.644760834
Au       7.625083008   1.607930570   2.336039635



     Writing output data file pwscf.save
     Check: negative starting charge=   -0.006536
     NEW-OLD atomic charge density approx. for the potential
     Check: negative starting charge=   -0.006522

     negative rho (up, down):  3.640E-04 0.000E+00

     total cpu time spent up to now is       11.4 secs

     per-process dynamical memory:    50.7 Mb

     Self-consistent Calculation

     iteration #  1     ecut=    30.00 Ry     beta=0.70
     Davidson diagonalization with overlap
     ethr =  1.00E-06,  avg # of iterations =  4.0

     negative rho (up, down):  1.061E-05 0.000E+00

     total cpu time spent up to now is       11.8 secs

     total energy              =    -329.49009145 Ry
     Harris-Foulkes estimate   =    -329.49005619 Ry
     estimated scf accuracy    <       0.00030272 Ry

     iteration #  2     ecut=    30.00 Ry     beta=0.70
     Davidson diagonalization with overlap
     ethr =  5.50E-07,  avg # of iterations =  3.0

     negative rho (up, down):  2.671E-06 0.000E+00

     total cpu time spent up to now is       12.1 secs

     total energy              =    -329.49006915 Ry
     Harris-Foulkes estimate   =    -329.49034502 Ry
     estimated scf accuracy    <       0.00065934 Ry

     iteration #  3     ecut=    30.00 Ry     beta=0.70
     Davidson diagonalization with overlap
     ethr =  5.50E-07,  avg # of iterations =  2.0

     negative rho (up, down):  3.452E-08 0.000E+00

     total cpu time spent up to now is       12.3 secs

     total energy              =    -329.49020613 Ry
     Harris-Foulkes estimate   =    -329.49022956 Ry
     estimated scf accuracy    <       0.00007127 Ry

     iteration #  4     ecut=    30.00 Ry     beta=0.70
     Davidson diagonalization with overlap
     ethr =  1.30E-07,  avg # of iterations =  2.0

     total cpu time spent up to now is       12.8 secs

     total energy              =    -329.49021941 Ry
     Harris-Foulkes estimate   =    -329.49022323 Ry
     estimated scf accuracy    <       0.00000965 Ry

     iteration #  5     ecut=    30.00 Ry     beta=0.70
     Davidson diagonalization with overlap
     ethr =  1.75E-08,  avg # of iterations =  2.0

     total cpu time spent up to now is       13.1 secs

     total energy              =    -329.49022085 Ry
     Harris-Foulkes estimate   =    -329.49022278 Ry
     estimated scf accuracy    <       0.00000380 Ry

     iteration #  6     ecut=    30.00 Ry     beta=0.70
     Davidson diagonalization with overlap
     ethr =  6.91E-09,  avg # of iterations =  2.0

     total cpu time spent up to now is       13.3 secs

     total energy              =    -329.49022129 Ry
     Harris-Foulkes estimate   =    -329.49022162 Ry
     estimated scf accuracy    <       0.00000009 Ry

     iteration #  7     ecut=    30.00 Ry     beta=0.70
     Davidson diagonalization with overlap
     ethr =  1.62E-10,  avg # of iterations =  3.0

     total cpu time spent up to now is       13.5 secs

     total energy              =    -329.49022113 Ry
     Harris-Foulkes estimate   =    -329.49022134 Ry
     estimated scf accuracy    <       0.00000003 Ry

     iteration #  8     ecut=    30.00 Ry     beta=0.70
     Davidson diagonalization with overlap
     ethr =  6.11E-11,  avg # of iterations =  2.0

     total cpu time spent up to now is       13.8 secs

     total energy              =    -329.49022108 Ry
     Harris-Foulkes estimate   =    -329.49022114 Ry
     estimated scf accuracy    <       0.00000001 Ry

     iteration #  9     ecut=    30.00 Ry     beta=0.70
     Davidson diagonalization with overlap
     ethr =  2.18E-11,  avg # of iterations =  2.0

     total cpu time spent up to now is       14.0 secs

     total energy              =    -329.49022101 Ry
     Harris-Foulkes estimate   =    -329.49022109 Ry
     estimated scf accuracy    <          9.6E-10 Ry

     iteration # 10     ecut=    30.00 Ry     beta=0.70
     Davidson diagonalization with overlap
     ethr =  1.75E-12,  avg # of iterations =  3.0

     total cpu time spent up to now is       14.4 secs

     End of self-consistent calculation

          k = 0.0000 0.0000 0.0000 ( 22119 PWs)   bands (ev):

    -8.5254  -7.8012  -7.6601  -7.2084  -6.8415  -6.7609  -6.6189  -6.5119
    -6.2630  -6.1006  -5.9337  -5.7707  -5.7271  -5.6752  -5.4940  -5.3633
    -5.3010  -5.2735  -5.1976  -5.1751  -5.1718  -5.1178  -5.0079  -4.9650
    -4.8146  -4.7196  -4.5122  -3.7567  -2.4977  -2.2374  -0.5585  -0.1797
     0.5066   0.7740

     the Fermi energy is    -3.7187 ev

!    total energy              =    -329.49022100 Ry
     Harris-Foulkes estimate   =    -329.49022101 Ry
     estimated scf accuracy    <          2.5E-10 Ry

     The total energy is the sum of the following terms:

     one-electron contribution =    -608.99277520 Ry
     hartree contribution      =     325.92583547 Ry
     xc contribution           =     -51.39635732 Ry
     ewald contribution        =       4.97869382 Ry
     smearing contrib. (-TS)   =      -0.00561778 Ry

     convergence has been achieved in  10 iterations

     Forces acting on atoms (Ry/au):

     atom    1 type  1   force =     0.00286341    0.00062729    0.00258333
     atom    2 type  1   force =     0.00338222    0.00161564    0.00138357
     atom    3 type  1   force =    -0.00032528   -0.00448989   -0.00555745
     atom    4 type  1   force =    -0.00333572   -0.00015409    0.00122539
     atom    5 type  1   force =    -0.00258463    0.00240105    0.00036516

     Total force =     0.010374     Total SCF correction =     0.000082

     number of scf cycles    =   5
     number of bfgs steps    =   4

     energy   old            =    -329.4894523602 Ry
     energy   new            =    -329.4902209995 Ry

     CASE: energy  _new < energy  _old

     new trust radius        =       0.0599697114 bohr
     new conv_thr            =       0.0000000006 Ry


ATOMIC_POSITIONS (bohr)
Au      -1.915670718   2.583550292  -0.803105090
Au      -0.876215037   3.420251242   4.199845480
Au       2.929288548   2.213005681   0.545650991
Au       4.149545941   3.543735874   5.652486017
Au       7.580829266   1.631395912   2.337316602



     Writing output data file pwscf.save
     Check: negative starting charge=   -0.006522
     NEW-OLD atomic charge density approx. for the potential
     Check: negative starting charge=   -0.006491

     negative rho (up, down):  7.158E-04 0.000E+00

     total cpu time spent up to now is       14.8 secs

     per-process dynamical memory:    50.7 Mb

     Self-consistent Calculation

     iteration #  1     ecut=    30.00 Ry     beta=0.70
     Davidson diagonalization with overlap
     ethr =  1.00E-06,  avg # of iterations =  6.0

     negative rho (up, down):  3.692E-05 0.000E+00

     total cpu time spent up to now is       15.2 secs

     total energy              =    -329.49038233 Ry
     Harris-Foulkes estimate   =    -329.49011644 Ry
     estimated scf accuracy    <       0.00058564 Ry

     iteration #  2     ecut=    30.00 Ry     beta=0.70
     Davidson diagonalization with overlap
     ethr =  1.06E-06,  avg # of iterations =  5.0

     negative rho (up, down):  1.148E-05 0.000E+00

     total cpu time spent up to now is       15.5 secs

     total energy              =    -329.49035124 Ry
     Harris-Foulkes estimate   =    -329.49083980 Ry
     estimated scf accuracy    <       0.00114491 Ry

     iteration #  3     ecut=    30.00 Ry     beta=0.70
     Davidson diagonalization with overlap
     ethr =  1.06E-06,  avg # of iterations =  2.0

     negative rho (up, down):  3.969E-07 0.000E+00

     total cpu time spent up to now is       15.7 secs

     total energy              =    -329.49059369 Ry
     Harris-Foulkes estimate   =    -329.49064627 Ry
     estimated scf accuracy    <       0.00016073 Ry

     iteration #  4     ecut=    30.00 Ry     beta=0.70
     Davidson diagonalization with overlap
     ethr =  2.92E-07,  avg # of iterations =  2.0

     total cpu time spent up to now is       15.9 secs

     total energy              =    -329.49062403 Ry
     Harris-Foulkes estimate   =    -329.49063039 Ry
     estimated scf accuracy    <       0.00001737 Ry

     iteration #  5     ecut=    30.00 Ry     beta=0.70
     Davidson diagonalization with overlap
     ethr =  3.16E-08,  avg # of iterations =  3.0

     total cpu time spent up to now is       16.2 secs

     total energy              =    -329.49062704 Ry
     Harris-Foulkes estimate   =    -329.49063030 Ry
     estimated scf accuracy    <       0.00000710 Ry

     iteration #  6     ecut=    30.00 Ry     beta=0.70
     Davidson diagonalization with overlap
     ethr =  1.29E-08,  avg # of iterations =  2.0

     total cpu time spent up to now is       16.4 secs

     total energy              =    -329.49062802 Ry
     Harris-Foulkes estimate   =    -329.49062846 Ry
     estimated scf accuracy    <       0.00000016 Ry

     iteration #  7     ecut=    30.00 Ry     beta=0.70
     Davidson diagonalization with overlap
     ethr =  2.98E-10,  avg # of iterations =  3.0

     total cpu time spent up to now is       16.8 secs

     total energy              =    -329.49062794 Ry
     Harris-Foulkes estimate   =    -329.49062810 Ry
     estimated scf accuracy    <       0.00000006 Ry

     iteration #  8     ecut=    30.00 Ry     beta=0.70
     Davidson diagonalization with overlap
     ethr =  1.11E-10,  avg # of iterations =  2.0

     total cpu time spent up to now is       17.0 secs

     total energy              =    -329.49062788 Ry
     Harris-Foulkes estimate   =    -329.49062796 Ry
     estimated scf accuracy    <       0.00000003 Ry

     iteration #  9     ecut=    30.00 Ry     beta=0.70
     Davidson diagonalization with overlap
     ethr =  5.13E-11,  avg # of iterations =  2.0

     total cpu time spent up to now is       17.2 secs

     total energy              =    -329.49062787 Ry
     Harris-Foulkes estimate   =    -329.49062789 Ry
     estimated scf accuracy    <          1.5E-09 Ry

     iteration # 10     ecut=    30.00 Ry     beta=0.70
     Davidson diagonalization with overlap
     ethr =  2.81E-12,  avg # of iterations =  3.0

     total cpu time spent up to now is       17.5 secs

     End of self-consistent calculation

          k = 0.0000 0.0000 0.0000 ( 22119 PWs)   bands (ev):

    -8.5471  -7.8091  -7.6358  -7.2140  -6.8673  -6.8024  -6.6429  -6.4914
    -6.2654  -6.0961  -5.9665  -5.7757  -5.7459  -5.6840  -5.4645  -5.3728
    -5.3030  -5.2582  -5.1998  -5.1801  -5.1722  -5.1238  -4.9897  -4.9532
    -4.8384  -4.7082  -4.4915  -3.7629  -2.4761  -2.2270  -0.5588  -0.1990
     0.5181   0.7904

     the Fermi energy is    -3.7274 ev

!    total energy              =    -329.49062786 Ry
     Harris-Foulkes estimate   =    -329.49062788 Ry
     estimated scf accuracy    <          3.1E-10 Ry

     The total energy is the sum of the following terms:

     one-electron contribution =    -610.04775903 Ry
     hartree contribution      =     326.45095180 Ry
     xc contribution           =     -51.40287479 Ry
     ewald contribution        =       5.51406681 Ry
     smearing contrib. (-TS)   =      -0.00501265 Ry

     convergence has been achieved in  10 iterations

     Forces acting on atoms (Ry/au):

     atom    1 type  1   force =    -0.00138325   -0.00005431    0.00016178
     atom    2 type  1   force =     0.00457889    0.00080425   -0.00014283
     atom    3 type  1   force =    -0.00300817   -0.00161333   -0.00173356
     atom    4 type  1   force =    -0.00416790    0.00054265    0.00108337
     atom    5 type  1   force =     0.00398043    0.00032074    0.00063124

     Total force =     0.008568     Total SCF correction =     0.000088

     number of scf cycles    =   6
     number of bfgs steps    =   5

     energy   old            =    -329.4902209995 Ry
     energy   new            =    -329.4906278624 Ry

     CASE: energy  _new < energy  _old

     new trust radius        =       0.0040991997 bohr
     new conv_thr            =       0.0000000004 Ry


ATOMIC_POSITIONS (bohr)
Au      -1.917042189   2.583429191  -0.803003832
Au      -0.872189555   3.421010993   4.199698127
Au       2.926705068   2.211581790   0.544119245
Au       4.145893072   3.544221895   5.653477809
Au       7.584411604   1.631695131   2.337902651



     Writing output data file pwscf.save
     Check: negative starting charge=   -0.006491
     NEW-OLD atomic charge density approx. for the potential
     Check: negative starting charge=   -0.006493

     negative rho (up, down):  6.630E-08 0.000E+00

     total cpu time spent up to now is       17.8 secs

     per-process dynamical memory:    50.7 Mb

     Self-consistent Calculation

     iteration #  1     ecut=    30.00 Ry     beta=0.70
     Davidson diagonalization with overlap
     ethr =  1.00E-06,  avg # of iterations =  3.0

     Threshold (ethr) on eigenvalues was too large:
     Diagonalizing with lowered threshold

     Davidson diagonalization with overlap
     ethr =  7.07E-09,  avg # of iterations =  2.0

     total cpu time spent up to now is       18.2 secs

     total energy              =    -329.49068417 Ry
     Harris-Foulkes estimate   =    -329.49068406 Ry
     estimated scf accuracy    <       0.00000409 Ry

     iteration #  2     ecut=    30.00 Ry     beta=0.70
     Davidson diagonalization with overlap
     ethr =  7.43E-09,  avg # of iterations =  3.0

     total cpu time spent up to now is       18.5 secs

     total energy              =    -329.49068366 Ry
     Harris-Foulkes estimate   =    -329.49068805 Ry
     estimated scf accuracy    <       0.00001137 Ry

     iteration #  3     ecut=    30.00 Ry     beta=0.70
     Davidson diagonalization with overlap
     ethr =  7.43E-09,  avg # of iterations =  2.0

     total cpu time spent up to now is       18.7 secs

     total energy              =    -329.49068584 Ry
     Harris-Foulkes estimate   =    -329.49068612 Ry
     estimated scf accuracy    <       0.00000079 Ry

     iteration #  4     ecut=    30.00 Ry     beta=0.70
     Davidson diagonalization with overlap
     ethr =  1.44E-09,  avg # of iterations =  2.0

     total cpu time spent up to now is       18.9 secs

     total energy              =    -329.49068604 Ry
     Harris-Foulkes estimate   =    -329.49068605 Ry
     estimated scf accuracy    <       0.00000013 Ry

     iteration #  5     ecut=    30.00 Ry     beta=0.70
     Davidson diagonalization with overlap
     ethr =  2.29E-10,  avg # of iterations =  2.0

     total cpu time spent up to now is       19.2 secs

     total energy              =    -329.49068606 Ry
     Harris-Foulkes estimate   =    -329.49068608 Ry
     estimated scf accuracy    <       0.00000004 Ry

     iteration #  6     ecut=    30.00 Ry     beta=0.70
     Davidson diagonalization with overlap
     ethr =  7.23E-11,  avg # of iterations =  2.0

     total cpu time spent up to now is       19.4 secs

     total energy              =    -329.49068602 Ry
     Harris-Foulkes estimate   =    -329.49068607 Ry
     estimated scf accuracy    <          1.9E-09 Ry

     iteration #  7     ecut=    30.00 Ry     beta=0.70
     Davidson diagonalization with overlap
     ethr =  3.52E-12,  avg # of iterations =  3.0

     total cpu time spent up to now is       19.7 secs

     total energy              =    -329.49068607 Ry
     Harris-Foulkes estimate   =    -329.49068602 Ry
     estimated scf accuracy    <          5.8E-10 Ry

     iteration #  8     ecut=    30.00 Ry     beta=0.70
     Davidson diagonalization with overlap
     ethr =  1.06E-12,  avg # of iterations =  2.0

     total cpu time spent up to now is       19.9 secs

     End of self-consistent calculation

          k = 0.0000 0.0000 0.0000 ( 22119 PWs)   bands (ev):

    -8.5429  -7.8055  -7.6397  -7.2143  -6.8664  -6.8026  -6.6383  -6.4915
    -6.2679  -6.0940  -5.9633  -5.7755  -5.7443  -5.6840  -5.4642  -5.3737
    -5.3042  -5.2578  -5.2006  -5.1790  -5.1728  -5.1239  -4.9908  -4.9521
    -4.8366  -4.7103  -4.4907  -3.7650  -2.4778  -2.2252  -0.5588  -0.1997
     0.5177   0.7913

     the Fermi energy is    -3.7298 ev

!    total energy              =    -329.49068606 Ry
     Harris-Foulkes estimate   =    -329.49068607 Ry
     estimated scf accuracy    <          1.6E-10 Ry

     The total energy is the sum of the following terms:

     one-electron contribution =    -609.98410396 Ry
     hartree contribution      =     326.41971157 Ry
     xc contribution           =     -51.40256680 Ry
     ewald contribution        =       5.48121596 Ry
     smearing contrib. (-TS)   =      -0.00494284 Ry

     convergence has been achieved in   8 iterations

     Forces acting on atoms (Ry/au):

     atom    1 type  1   force =    -0.00153041   -0.00004342    0.00011454
     atom    2 type  1   force =     0.00396734    0.00082452   -0.00024667
     atom    3 type  1   force =    -0.00196905   -0.00166831   -0.00130132
     atom    4 type  1   force =    -0.00328345    0.00032295    0.00077593
     atom    5 type  1   force =     0.00281557    0.00056426    0.00065752

     Total force =     0.006882     Total SCF correction =     0.000034

     number of scf cycles    =   7
     number of bfgs steps    =   6

     energy   old            =    -329.4906278624 Ry
     energy   new            =    -329.4906860616 Ry

     CASE: energy  _new < energy  _old

     new trust radius        =       0.0045091196 bohr
     new conv_thr            =            1.0E-10 Ry


ATOMIC_POSITIONS (bohr)
Au      -1.917834039   2.583374177  -0.802222342
Au      -0.867885052   3.422346494   4.199839013
Au       2.925169377   2.208779505   0.541365054
Au       4.142236151   3.544438596   5.654563873
Au       7.586091563   1.633000228   2.338648402



     Writing output data file pwscf.save
     Check: negative starting charge=   -0.006493
     NEW-OLD atomic charge density approx. for the potential
     Check: negative starting charge=   -0.006493

     negative rho (up, down):  8.036E-08 0.000E+00

     total cpu time spent up to now is       20.1 secs

     per-process dynamical memory:    50.7 Mb

     Self-consistent Calculation

     iteration #  1     ecut=    30.00 Ry     beta=0.70
     Davidson diagonalization with overlap
     ethr =  1.00E-06,  avg # of iterations =  3.0

     Threshold (ethr) on eigenvalues was too large:
     Diagonalizing with lowered threshold

     Davidson diagonalization with overlap
     ethr =  6.33E-09,  avg # of iterations =  2.0

     total cpu time spent up to now is       20.6 secs

     total energy              =    -329.49073002 Ry
     Harris-Foulkes estimate   =    -329.49073059 Ry
     estimated scf accuracy    <       0.00000369 Ry

     iteration #  2     ecut=    30.00 Ry     beta=0.70
     Davidson diagonalization with overlap
     ethr =  6.70E-09,  avg # of iterations =  3.0

     total cpu time spent up to now is       20.8 secs

     total energy              =    -329.49072996 Ry
     Harris-Foulkes estimate   =    -329.49073241 Ry
     estimated scf accuracy    <       0.00000517 Ry

     iteration #  3     ecut=    30.00 Ry     beta=0.70
     Davidson diagonalization with overlap
     ethr =  6.70E-09,  avg # of iterations =  2.0

     total cpu time spent up to now is       21.1 secs

     total energy              =    -329.49073111 Ry
     Harris-Foulkes estimate   =    -329.49073146 Ry
     estimated scf accuracy    <       0.00000118 Ry

     iteration #  4     ecut=    30.00 Ry     beta=0.70
     Davidson diagonalization with overlap
     ethr =  2.14E-09,  avg # of iterations =  2.0

     total cpu time spent up to now is       21.3 secs

     total energy              =    -329.49073122 Ry
     Harris-Foulkes estimate   =    -329.49073140 Ry
     estimated scf accuracy    <       0.00000012 Ry

     iteration #  5     ecut=    30.00 Ry     beta=0.70
     Davidson diagonalization with overlap
     ethr =  2.25E-10,  avg # of iterations =  2.0

     total cpu time spent up to now is       21.5 secs

     total energy              =    -329.49073127 Ry
     Harris-Foulkes estimate   =    -329.49073126 Ry
     estimated scf accuracy    <       0.00000003 Ry

     iteration #  6     ecut=    30.00 Ry     beta=0.70
     Davidson diagonalization with overlap
     ethr =  5.60E-11,  avg # of iterations =  2.0

     total cpu time spent up to now is       21.7 secs

     total energy              =    -329.49073127 Ry
     Harris-Foulkes estimate   =    -329.49073127 Ry
     estimated scf accuracy    <          1.7E-09 Ry

     iteration #  7     ecut=    30.00 Ry     beta=0.70
     Davidson diagonalization with overlap
     ethr =  3.17E-12,  avg # of iterations =  3.0

     total cpu time spent up to now is       22.0 secs

     total energy              =    -329.49073129 Ry
     Harris-Foulkes estimate   =    -329.49073127 Ry
     estimated scf accuracy    <          3.3E-10 Ry

     iteration #  8     ecut=    30.00 Ry     beta=0.70
     Davidson diagonalization with overlap
     ethr =  6.03E-13,  avg # of iterations =  2.0

     total cpu time spent up to now is       22.2 secs

     total energy              =    -329.49073127 Ry
     Harris-Foulkes estimate   =    -329.49073129 Ry
     estimated scf accuracy    <          2.1E-10 Ry

     iteration #  9     ecut=    30.00 Ry     beta=0.70
     Davidson diagonalization with overlap
     ethr =  3.79E-13,  avg # of iterations =  2.0

     total cpu time spent up to now is       22.6 secs

     End of self-consistent calculation

          k = 0.0000 0.0000 0.0000 ( 22119 PWs)   bands (ev):

    -8.5397  -7.8026  -7.6430  -7.2151  -6.8668  -6.8039  -6.6351  -6.4912
    -6.2705  -6.0918  -5.9614  -5.7754  -5.7433  -5.6843  -5.4628  -5.3748
    -5.3054  -5.2569  -5.2013  -5.1783  -5.1731  -5.1242  -4.9913  -4.9506
    -4.8357  -4.7119  -4.4891  -3.7672  -2.4788  -2.2230  -0.5589  -0.2008
     0.5176   0.7929

     the Fermi energy is    -3.7324 ev

!    total energy              =    -329.49073127 Ry
     Harris-Foulkes estimate   =    -329.49073127 Ry
     estimated scf accuracy    <          2.5E-11 Ry

     The total energy is the sum of the following terms:

     one-electron contribution =    -609.96971797 Ry
     hartree contribution      =     326.41297351 Ry
     xc contribution           =     -51.40256538 Ry
     ewald contribution        =       5.47342975 Ry
     smearing contrib. (-TS)   =      -0.00485119 Ry

     convergence has been achieved in   9 iterations

     Forces acting on atoms (Ry/au):

     atom    1 type  1   force =    -0.00169445   -0.00005788    0.00003747
     atom    2 type  1   force =     0.00337994    0.00081528   -0.00042323
     atom    3 type  1   force =    -0.00128667   -0.00160314   -0.00086668
     atom    4 type  1   force =    -0.00248936    0.00016772    0.00055532
     atom    5 type  1   force =     0.00209053    0.00067802    0.00069712

     Total force =     0.005654     Total SCF correction =     0.000015

     number of scf cycles    =   8
     number of bfgs steps    =   7

     energy   old            =    -329.4906860616 Ry
     energy   new            =    -329.4907312739 Ry

     CASE: energy  _new < energy  _old

     new trust radius        =       0.0067636794 bohr
     new conv_thr            =            1.0E-10 Ry


ATOMIC_POSITIONS (bohr)
Au      -1.919636574   2.583263545  -0.801173895
Au      -0.861470661   3.424487497   4.199700991
Au       2.923426656   2.204371339   0.537684230
Au       4.137257855   3.544605622   5.656014651
Au       7.588200724   1.635210997   2.339968023



     Writing output data file pwscf.save
     Check: negative starting charge=   -0.006493
     NEW-OLD atomic charge density approx. for the potential
     Check: negative starting charge=   -0.006493

     negative rho (up, down):  9.240E-07 0.000E+00

     total cpu time spent up to now is       22.8 secs

     per-process dynamical memory:    50.7 Mb

     Self-consistent Calculation

     iteration #  1     ecut=    30.00 Ry     beta=0.70
     Davidson diagonalization with overlap
     ethr =  1.00E-06,  avg # of iterations =  3.0

     Threshold (ethr) on eigenvalues was too large:
     Diagonalizing with lowered threshold

     Davidson diagonalization with overlap
     ethr =  1.36E-08,  avg # of iterations =  2.0

     total cpu time spent up to now is       23.3 secs

     total energy              =    -329.49077920 Ry
     Harris-Foulkes estimate   =    -329.49078059 Ry
     estimated scf accuracy    <       0.00000794 Ry

     iteration #  2     ecut=    30.00 Ry     beta=0.70
     Davidson diagonalization with overlap
     ethr =  1.44E-08,  avg # of iterations =  3.0

     total cpu time spent up to now is       23.5 secs

     total energy              =    -329.49077962 Ry
     Harris-Foulkes estimate   =    -329.49078397 Ry
     estimated scf accuracy    <       0.00000931 Ry

     iteration #  3     ecut=    30.00 Ry     beta=0.70
     Davidson diagonalization with overlap
     ethr =  1.44E-08,  avg # of iterations =  2.0

     total cpu time spent up to now is       23.8 secs

     total energy              =    -329.49078136 Ry
     Harris-Foulkes estimate   =    -329.49078239 Ry
     estimated scf accuracy    <       0.00000237 Ry

     iteration #  4     ecut=    30.00 Ry     beta=0.70
     Davidson diagonalization with overlap
     ethr =  4.30E-09,  avg # of iterations =  2.0

     total cpu time spent up to now is       24.2 secs

     total energy              =    -329.49078162 Ry
     Harris-Foulkes estimate   =    -329.49078197 Ry
     estimated scf accuracy    <       0.00000032 Ry

     iteration #  5     ecut=    30.00 Ry     beta=0.70
     Davidson diagonalization with overlap
     ethr =  5.79E-10,  avg # of iterations =  2.0

     total cpu time spent up to now is       24.5 secs

     total energy              =    -329.49078176 Ry
     Harris-Foulkes estimate   =    -329.49078170 Ry
     estimated scf accuracy    <       0.00000006 Ry

     iteration #  6     ecut=    30.00 Ry     beta=0.70
     Davidson diagonalization with overlap
     ethr =  1.12E-10,  avg # of iterations =  2.0

     total cpu time spent up to now is       24.7 secs

     total energy              =    -329.49078176 Ry
     Harris-Foulkes estimate   =    -329.49078177 Ry
     estimated scf accuracy    <          2.8E-09 Ry

     iteration #  7     ecut=    30.00 Ry     beta=0.70
     Davidson diagonalization with overlap
     ethr =  5.04E-12,  avg # of iterations =  3.0

     total cpu time spent up to now is       24.9 secs

     total energy              =    -329.49078169 Ry
     Harris-Foulkes estimate   =    -329.49078176 Ry
     estimated scf accuracy    <          7.6E-10 Ry

     iteration #  8     ecut=    30.00 Ry     beta=0.70
     Davidson diagonalization with overlap
     ethr =  1.38E-12,  avg # of iterations =  2.0

     total cpu time spent up to now is       25.2 secs

     total energy              =    -329.49078168 Ry
     Harris-Foulkes estimate   =    -329.49078170 Ry
     estimated scf accuracy    <          4.0E-10 Ry

     iteration #  9     ecut=    30.00 Ry     beta=0.70
     Davidson diagonalization with overlap
     ethr =  7.23E-13,  avg # of iterations =  2.0

     total cpu time spent up to now is       25.4 secs

     End of self-consistent calculation

          k = 0.0000 0.0000 0.0000 ( 22119 PWs)   bands (ev):

    -8.5352  -7.7987  -7.6480  -7.2168  -6.8678  -6.8053  -6.6309  -6.4909
    -6.2745  -6.0885  -5.9590  -5.7751  -5.7418  -5.6847  -5.4611  -5.3764
    -5.3072  -5.2555  -5.2023  -5.1778  -5.1732  -5.1245  -4.9922  -4.9482
    -4.8343  -4.7141  -4.4867  -3.7700  -2.4802  -2.2197  -0.5591  -0.2024
     0.5172   0.7954

     the Fermi energy is    -3.7358 ev

!    total energy              =    -329.49078170 Ry
     Harris-Foulkes estimate   =    -329.49078168 Ry
     estimated scf accuracy    <          2.6E-11 Ry

     The total energy is the sum of the following terms:

     one-electron contribution =    -609.96037921 Ry
     hartree contribution      =     326.40881982 Ry
     xc contribution           =     -51.40261732 Ry
     ewald contribution        =       5.46811530 Ry
     smearing contrib. (-TS)   =      -0.00472029 Ry

     convergence has been achieved in   9 iterations

     Forces acting on atoms (Ry/au):

     atom    1 type  1   force =    -0.00176993   -0.00008122   -0.00002355
     atom    2 type  1   force =     0.00250665    0.00079137   -0.00068928
     atom    3 type  1   force =    -0.00055143   -0.00147752   -0.00035451
     atom    4 type  1   force =    -0.00139447   -0.00001712    0.00032481
     atom    5 type  1   force =     0.00120918    0.00078449    0.00074253

     Total force =     0.004221     Total SCF correction =     0.000019

     number of scf cycles    =   9
     number of bfgs steps    =   8

     energy   old            =    -329.4907312739 Ry
     energy   new            =    -329.4907816953 Ry

     CASE: energy  _new < energy  _old

     new trust radius        =       0.0101455192 bohr
     new conv_thr            =            1.0E-10 Ry


ATOMIC_POSITIONS (bohr)
Au      -1.923218913   2.583035947  -0.799754261
Au      -0.851969746   3.427933675   4.198813276
Au       2.921395996   2.197448817   0.532814012
Au       4.130641801   3.544635983   5.658018039
Au       7.590928863   1.638884577   2.342302934



     Writing output data file pwscf.save
     Check: negative starting charge=   -0.006493
     NEW-OLD atomic charge density approx. for the potential
     Check: negative starting charge=   -0.006493

     negative rho (up, down):  6.330E-06 0.000E+00

     total cpu time spent up to now is       25.6 secs

     per-process dynamical memory:    50.7 Mb

     Self-consistent Calculation

     iteration #  1     ecut=    30.00 Ry     beta=0.70
     Davidson diagonalization with overlap
     ethr =  1.00E-06,  avg # of iterations =  4.0

     Threshold (ethr) on eigenvalues was too large:
     Diagonalizing with lowered threshold

     Davidson diagonalization with overlap
     ethr =  3.09E-08,  avg # of iterations =  2.0

     total cpu time spent up to now is       26.3 secs

     total energy              =    -329.49082388 Ry
     Harris-Foulkes estimate   =    -329.49082625 Ry
     estimated scf accuracy    <       0.00001774 Ry

     iteration #  2     ecut=    30.00 Ry     beta=0.70
     Davidson diagonalization with overlap
     ethr =  3.23E-08,  avg # of iterations =  3.0

     total cpu time spent up to now is       26.5 secs

     total energy              =    -329.49082534 Ry
     Harris-Foulkes estimate   =    -329.49083407 Ry
     estimated scf accuracy    <       0.00001832 Ry

     iteration #  3     ecut=    30.00 Ry     beta=0.70
     Davidson diagonalization with overlap
     ethr =  3.23E-08,  avg # of iterations =  2.0

     total cpu time spent up to now is       26.8 secs

     total energy              =    -329.49082909 Ry
     Harris-Foulkes estimate   =    -329.49083080 Ry
     estimated scf accuracy    <       0.00000469 Ry

     iteration #  4     ecut=    30.00 Ry     beta=0.70
     Davidson diagonalization with overlap
     ethr =  8.52E-09,  avg # of iterations =  2.0

     total cpu time spent up to now is       27.0 secs

     total energy              =    -329.49083026 Ry
     Harris-Foulkes estimate   =    -329.49083038 Ry
     estimated scf accuracy    <       0.00000080 Ry

     iteration #  5     ecut=    30.00 Ry     beta=0.70
     Davidson diagonalization with overlap
     ethr =  1.46E-09,  avg # of iterations =  2.0

     total cpu time spent up to now is       27.2 secs

     total energy              =    -329.49083043 Ry
     Harris-Foulkes estimate   =    -329.49083045 Ry
     estimated scf accuracy    <       0.00000012 Ry

     iteration #  6     ecut=    30.00 Ry     beta=0.70
     Davidson diagonalization with overlap
     ethr =  2.13E-10,  avg # of iterations =  2.0

     total cpu time spent up to now is       27.4 secs

     total energy              =    -329.49083041 Ry
     Harris-Foulkes estimate   =    -329.49083045 Ry
     estimated scf accuracy    <          4.6E-09 Ry

     iteration #  7     ecut=    30.00 Ry     beta=0.70
     Davidson diagonalization with overlap
     ethr =  8.39E-12,  avg # of iterations =  3.0

     total cpu time spent up to now is       27.7 secs

     total energy              =    -329.49083044 Ry
     Harris-Foulkes estimate   =    -329.49083042 Ry
     estimated scf accuracy    <          1.4E-09 Ry

     iteration #  8     ecut=    30.00 Ry     beta=0.70
     Davidson diagonalization with overlap
     ethr =  2.63E-12,  avg # of iterations =  2.0

     total cpu time spent up to now is       27.9 secs

     total energy              =    -329.49083041 Ry
     Harris-Foulkes estimate   =    -329.49083044 Ry
     estimated scf accuracy    <          5.4E-10 Ry

     iteration #  9     ecut=    30.00 Ry     beta=0.70
     Davidson diagonalization with overlap
     ethr =  9.79E-13,  avg # of iterations =  2.0

     total cpu time spent up to now is       28.1 secs

     End of self-consistent calculation

          k = 0.0000 0.0000 0.0000 ( 22119 PWs)   bands (ev):

    -8.5289  -7.7936  -7.6553  -7.2201  -6.8702  -6.8061  -6.6255  -6.4909
    -6.2805  -6.0836  -5.9559  -5.7745  -5.7396  -5.6853  -5.4589  -5.3786
    -5.3097  -5.2536  -5.2037  -5.1778  -5.1725  -5.1247  -4.9937  -4.9446
    -4.8323  -4.7171  -4.4832  -3.7738  -2.4826  -2.2147  -0.5594  -0.2044
     0.5163   0.7992

     the Fermi energy is    -3.7403 ev

!    total energy              =    -329.49083041 Ry
     Harris-Foulkes estimate   =    -329.49083041 Ry
     estimated scf accuracy    <          7.4E-11 Ry

     The total energy is the sum of the following terms:

     one-electron contribution =    -609.95958389 Ry
     hartree contribution      =     326.40905008 Ry
     xc contribution           =     -51.40276376 Ry
     ewald contribution        =       5.46700250 Ry
     smearing contrib. (-TS)   =      -0.00453534 Ry

     convergence has been achieved in   9 iterations

     Forces acting on atoms (Ry/au):

     atom    1 type  1   force =    -0.00166267   -0.00011722   -0.00006217
     atom    2 type  1   force =     0.00121042    0.00074135   -0.00107062
     atom    3 type  1   force =     0.00021218   -0.00126037    0.00023321
     atom    4 type  1   force =     0.00010412   -0.00022439    0.00011791
     atom    5 type  1   force =     0.00013595    0.00086063    0.00078168

     Total force =     0.003013     Total SCF correction =     0.000026

     number of scf cycles    =  10
     number of bfgs steps    =   9

     energy   old            =    -329.4907816953 Ry
     energy   new            =    -329.4908304052 Ry

     CASE: energy  _new < energy  _old

     new trust radius        =       0.0122826504 bohr
     new conv_thr            =            1.0E-10 Ry


ATOMIC_POSITIONS (bohr)
Au      -1.928835456   2.582631870  -0.798219173
Au      -0.840849421   3.432556162   4.196397806
Au       2.919602749   2.188491344   0.527891636
Au       4.124240864   3.544333295   5.660340090
Au       7.593619263   1.643926329   2.345783640



     Writing output data file pwscf.save
     Check: negative starting charge=   -0.006493
     NEW-OLD atomic charge density approx. for the potential
     Check: negative starting charge=   -0.006491

     negative rho (up, down):  1.401E-05 0.000E+00

     total cpu time spent up to now is       28.4 secs

     per-process dynamical memory:    50.7 Mb

     Self-consistent Calculation

     iteration #  1     ecut=    30.00 Ry     beta=0.70
     Davidson diagonalization with overlap
     ethr =  1.00E-06,  avg # of iterations =  4.0

     Threshold (ethr) on eigenvalues was too large:
     Diagonalizing with lowered threshold

     Davidson diagonalization with overlap
     ethr =  4.85E-08,  avg # of iterations =  1.0

     negative rho (up, down):  1.242E-08 0.000E+00

     total cpu time spent up to now is       28.8 secs

     total energy              =    -329.49084777 Ry
     Harris-Foulkes estimate   =    -329.49085163 Ry
     estimated scf accuracy    <       0.00002697 Ry

     iteration #  2     ecut=    30.00 Ry     beta=0.70
     Davidson diagonalization with overlap
     ethr =  4.90E-08,  avg # of iterations =  3.0

     total cpu time spent up to now is       29.1 secs

     total energy              =    -329.49085083 Ry
     Harris-Foulkes estimate   =    -329.49086279 Ry
     estimated scf accuracy    <       0.00002506 Ry

     iteration #  3     ecut=    30.00 Ry     beta=0.70
     Davidson diagonalization with overlap
     ethr =  4.56E-08,  avg # of iterations =  2.0

     total cpu time spent up to now is       29.3 secs

     total energy              =    -329.49085585 Ry
     Harris-Foulkes estimate   =    -329.49085820 Ry
     estimated scf accuracy    <       0.00000612 Ry

     iteration #  4     ecut=    30.00 Ry     beta=0.70
     Davidson diagonalization with overlap
     ethr =  1.11E-08,  avg # of iterations =  2.0

     total cpu time spent up to now is       29.5 secs

     total energy              =    -329.49085717 Ry
     Harris-Foulkes estimate   =    -329.49085768 Ry
     estimated scf accuracy    <       0.00000137 Ry

     iteration #  5     ecut=    30.00 Ry     beta=0.70
     Davidson diagonalization with overlap
     ethr =  2.49E-09,  avg # of iterations =  2.0

     total cpu time spent up to now is       29.7 secs

     total energy              =    -329.49085728 Ry
     Harris-Foulkes estimate   =    -329.49085746 Ry
     estimated scf accuracy    <       0.00000014 Ry

     iteration #  6     ecut=    30.00 Ry     beta=0.70
     Davidson diagonalization with overlap
     ethr =  2.52E-10,  avg # of iterations =  2.0

     total cpu time spent up to now is       29.9 secs

     total energy              =    -329.49085719 Ry
     Harris-Foulkes estimate   =    -329.49085731 Ry
     estimated scf accuracy    <          6.4E-09 Ry

     iteration #  7     ecut=    30.00 Ry     beta=0.70
     Davidson diagonalization with overlap
     ethr =  1.16E-11,  avg # of iterations =  3.0

     total cpu time spent up to now is       30.2 secs

     total energy              =    -329.49085723 Ry
     Harris-Foulkes estimate   =    -329.49085719 Ry
     estimated scf accuracy    <          1.9E-09 Ry

     iteration #  8     ecut=    30.00 Ry     beta=0.70
     Davidson diagonalization with overlap
     ethr =  3.52E-12,  avg # of iterations =  2.0

     total cpu time spent up to now is       30.5 secs

     total energy              =    -329.49085727 Ry
     Harris-Foulkes estimate   =    -329.49085723 Ry
     estimated scf accuracy    <          4.0E-10 Ry

     iteration #  9     ecut=    30.00 Ry     beta=0.70
     Davidson diagonalization with overlap
     ethr =  7.19E-13,  avg # of iterations =  2.0

     total cpu time spent up to now is       30.8 secs

     total energy              =    -329.49085728 Ry
     Harris-Foulkes estimate   =    -329.49085727 Ry
     estimated scf accuracy    <          1.1E-10 Ry

     iteration # 10     ecut=    30.00 Ry     beta=0.70
     Davidson diagonalization with overlap
     ethr =  2.02E-13,  avg # of iterations =  2.0

     total cpu time spent up to now is       31.0 secs

     End of self-consistent calculation

          k = 0.0000 0.0000 0.0000 ( 22119 PWs)   bands (ev):

    -8.5217  -7.7886  -7.6632  -7.2252  -6.8738  -6.8055  -6.6208  -6.4912
    -6.2877  -6.0779  -5.9532  -5.7736  -5.7370  -5.6859  -5.4572  -5.3807
    -5.3123  -5.2513  -5.2048  -5.1784  -5.1713  -5.1249  -4.9960  -4.9404
    -4.8305  -4.7199  -4.4794  -3.7773  -2.4858  -2.2088  -0.5600  -0.2062
     0.5147   0.8040

     the Fermi energy is    -3.7447 ev

!    total energy              =    -329.49085728 Ry
     Harris-Foulkes estimate   =    -329.49085728 Ry
     estimated scf accuracy    <          9.2E-12 Ry

     The total energy is the sum of the following terms:

     one-electron contribution =    -609.97280665 Ry
     hartree contribution      =     326.41617908 Ry
     xc contribution           =     -51.40299846 Ry
     ewald contribution        =       5.47311016 Ry
     smearing contrib. (-TS)   =      -0.00434142 Ry

     convergence has been achieved in  10 iterations

     Forces acting on atoms (Ry/au):

     atom    1 type  1   force =    -0.00124010   -0.00017188   -0.00007301
     atom    2 type  1   force =    -0.00026820    0.00067659   -0.00144185
     atom    3 type  1   force =     0.00070554   -0.00096657    0.00069490
     atom    4 type  1   force =     0.00163016   -0.00037168    0.00004964
     atom    5 type  1   force =    -0.00082739    0.00083354    0.00077033

     Total force =     0.003297     Total SCF correction =     0.000012

     number of scf cycles    =  11
     number of bfgs steps    =  10

     energy   old            =    -329.4908304052 Ry
     energy   new            =    -329.4908572791 Ry

     CASE: energy  _new < energy  _old

     new trust radius        =       0.0048068894 bohr
     new conv_thr            =            1.0E-10 Ry


ATOMIC_POSITIONS (bohr)
Au      -1.931897121   2.582321409  -0.797756331
Au      -0.837291142   3.434804886   4.194076585
Au       2.919393680   2.184495995   0.526846707
Au       4.123608877   3.543906976   5.661279468
Au       7.593963707   1.646409734   2.347747572



     Writing output data file pwscf.save
     Check: negative starting charge=   -0.006491
     NEW-OLD atomic charge density approx. for the potential
     Check: negative starting charge=   -0.006489

     negative rho (up, down):  1.385E-07 0.000E+00

     total cpu time spent up to now is       31.2 secs

     per-process dynamical memory:    50.7 Mb

     Self-consistent Calculation

     iteration #  1     ecut=    30.00 Ry     beta=0.70
     Davidson diagonalization with overlap
     ethr =  1.00E-06,  avg # of iterations =  3.0

     Threshold (ethr) on eigenvalues was too large:
     Diagonalizing with lowered threshold

     Davidson diagonalization with overlap
     ethr =  8.23E-09,  avg # of iterations =  2.0

     total cpu time spent up to now is       31.8 secs

     total energy              =    -329.49086712 Ry
     Harris-Foulkes estimate   =    -329.49086783 Ry
     estimated scf accuracy    <       0.00000488 Ry

     iteration #  2     ecut=    30.00 Ry     beta=0.70
     Davidson diagonalization with overlap
     ethr =  8.87E-09,  avg # of iterations =  2.0

     total cpu time spent up to now is       32.2 secs

     total energy              =    -329.49086778 Ry
     Harris-Foulkes estimate   =    -329.49086992 Ry
     estimated scf accuracy    <       0.00000453 Ry

     iteration #  3     ecut=    30.00 Ry     beta=0.70
     Davidson diagonalization with overlap
     ethr =  8.24E-09,  avg # of iterations =  2.0

     total cpu time spent up to now is       32.5 secs

     total energy              =    -329.49086873 Ry
     Harris-Foulkes estimate   =    -329.49086911 Ry
     estimated scf accuracy    <       0.00000113 Ry

     iteration #  4     ecut=    30.00 Ry     beta=0.70
     Davidson diagonalization with overlap
     ethr =  2.06E-09,  avg # of iterations =  2.0

     total cpu time spent up to now is       32.7 secs

     total energy              =    -329.49086891 Ry
     Harris-Foulkes estimate   =    -329.49086907 Ry
     estimated scf accuracy    <       0.00000024 Ry

     iteration #  5     ecut=    30.00 Ry     beta=0.70
     Davidson diagonalization with overlap
     ethr =  4.41E-10,  avg # of iterations =  2.0

     total cpu time spent up to now is       32.9 secs

     total energy              =    -329.49086897 Ry
     Harris-Foulkes estimate   =    -329.49086896 Ry
     estimated scf accuracy    <       0.00000002 Ry

     iteration #  6     ecut=    30.00 Ry     beta=0.70
     Davidson diagonalization with overlap
     ethr =  3.20E-11,  avg # of iterations =  2.0

     total cpu time spent up to now is       33.1 secs

     total energy              =    -329.49086894 Ry
     Harris-Foulkes estimate   =    -329.49086897 Ry
     estimated scf accuracy    <          1.6E-09 Ry

     iteration #  7     ecut=    30.00 Ry     beta=0.70
     Davidson diagonalization with overlap
     ethr =  2.97E-12,  avg # of iterations =  2.0

     total cpu time spent up to now is       33.4 secs

     total energy              =    -329.49086889 Ry
     Harris-Foulkes estimate   =    -329.49086894 Ry
     estimated scf accuracy    <          5.4E-10 Ry

     iteration #  8     ecut=    30.00 Ry     beta=0.70
     Davidson diagonalization with overlap
     ethr =  9.82E-13,  avg # of iterations =  2.0

     total cpu time spent up to now is       33.6 secs

     total energy              =    -329.49086890 Ry
     Harris-Foulkes estimate   =    -329.49086889 Ry
     estimated scf accuracy    <          1.5E-10 Ry

     iteration #  9     ecut=    30.00 Ry     beta=0.70
     Davidson diagonalization with overlap
     ethr =  2.81E-13,  avg # of iterations =  2.0

     total cpu time spent up to now is       33.8 secs

     End of self-consistent calculation

          k = 0.0000 0.0000 0.0000 ( 22119 PWs)   bands (ev):

    -8.5195  -7.7880  -7.6649  -7.2278  -6.8747  -6.8050  -6.6212  -6.4915
    -6.2901  -6.0761  -5.9536  -5.7731  -5.7362  -5.6860  -5.4574  -5.3811
    -5.3129  -5.2508  -5.2048  -5.1788  -5.1711  -5.1249  -4.9972  -4.9391
    -4.8305  -4.7204  -4.4785  -3.7775  -2.4873  -2.2070  -0.5602  -0.2064
     0.5135   0.8058

     the Fermi energy is    -3.7450 ev

!    total energy              =    -329.49086889 Ry
     Harris-Foulkes estimate   =    -329.49086890 Ry
     estimated scf accuracy    <          2.3E-11 Ry

     The total energy is the sum of the following terms:

     one-electron contribution =    -609.98734677 Ry
     hartree contribution      =     326.42328634 Ry
     xc contribution           =     -51.40307671 Ry
     ewald contribution        =       5.48058179 Ry
     smearing contrib. (-TS)   =      -0.00431355 Ry

     convergence has been achieved in   9 iterations

     Forces acting on atoms (Ry/au):

     atom    1 type  1   force =    -0.00088043   -0.00021372   -0.00009055
     atom    2 type  1   force =    -0.00061299    0.00067153   -0.00142315
     atom    3 type  1   force =     0.00056888   -0.00082585    0.00067912
     atom    4 type  1   force =     0.00183154   -0.00033743    0.00013813
     atom    5 type  1   force =    -0.00090701    0.00070548    0.00069645

     Total force =     0.003231     Total SCF correction =     0.000019

     number of scf cycles    =  12
     number of bfgs steps    =  11

     energy   old            =    -329.4908572791 Ry
     energy   new            =    -329.4908688908 Ry

     CASE: energy  _new < energy  _old

     new trust radius        =       0.0052875783 bohr
     new conv_thr            =            1.0E-10 Ry


ATOMIC_POSITIONS (bohr)
Au      -1.935384978   2.581838140  -0.797356652
Au      -0.834301448   3.437550972   4.190688483
Au       2.919374057   2.179953857   0.526253078
Au       4.124360884   3.543271848   5.662412772
Au       7.593729484   1.649324183   2.350196320



     Writing output data file pwscf.save
     Check: negative starting charge=   -0.006489
     NEW-OLD atomic charge density approx. for the potential
     Check: negative starting charge=   -0.006487

     negative rho (up, down):  3.234E-07 0.000E+00

     total cpu time spent up to now is       34.0 secs

     per-process dynamical memory:    50.7 Mb

     Self-consistent Calculation

     iteration #  1     ecut=    30.00 Ry     beta=0.70
     Davidson diagonalization with overlap
     ethr =  1.00E-06,  avg # of iterations =  3.0

     Threshold (ethr) on eigenvalues was too large:
     Diagonalizing with lowered threshold

     Davidson diagonalization with overlap
     ethr =  1.09E-08,  avg # of iterations =  2.0

     total cpu time spent up to now is       34.5 secs

     total energy              =    -329.49088097 Ry
     Harris-Foulkes estimate   =    -329.49088274 Ry
     estimated scf accuracy    <       0.00000645 Ry

     iteration #  2     ecut=    30.00 Ry     beta=0.70
     Davidson diagonalization with overlap
     ethr =  1.17E-08,  avg # of iterations =  2.0

     total cpu time spent up to now is       34.7 secs

     total energy              =    -329.49088203 Ry
     Harris-Foulkes estimate   =    -329.49088486 Ry
     estimated scf accuracy    <       0.00000683 Ry

     iteration #  3     ecut=    30.00 Ry     beta=0.70
     Davidson diagonalization with overlap
     ethr =  1.17E-08,  avg # of iterations =  2.0

     total cpu time spent up to now is       34.9 secs

     total energy              =    -329.49088349 Ry
     Harris-Foulkes estimate   =    -329.49088406 Ry
     estimated scf accuracy    <       0.00000181 Ry

     iteration #  4     ecut=    30.00 Ry     beta=0.70
     Davidson diagonalization with overlap
     ethr =  3.29E-09,  avg # of iterations =  2.0

     total cpu time spent up to now is       35.1 secs

     total energy              =    -329.49088414 Ry
     Harris-Foulkes estimate   =    -329.49088398 Ry
     estimated scf accuracy    <       0.00000026 Ry

     iteration #  5     ecut=    30.00 Ry     beta=0.70
     Davidson diagonalization with overlap
     ethr =  4.70E-10,  avg # of iterations =  2.0

     total cpu time spent up to now is       35.3 secs

     total energy              =    -329.49088405 Ry
     Harris-Foulkes estimate   =    -329.49088419 Ry
     estimated scf accuracy    <       0.00000002 Ry

     iteration #  6     ecut=    30.00 Ry     beta=0.70
     Davidson diagonalization with overlap
     ethr =  3.17E-11,  avg # of iterations =  2.0

     total cpu time spent up to now is       35.6 secs

     total energy              =    -329.49088413 Ry
     Harris-Foulkes estimate   =    -329.49088405 Ry
     estimated scf accuracy    <          2.2E-09 Ry

     iteration #  7     ecut=    30.00 Ry     beta=0.70
     Davidson diagonalization with overlap
     ethr =  4.00E-12,  avg # of iterations =  3.0

     total cpu time spent up to now is       35.8 secs

     total energy              =    -329.49088418 Ry
     Harris-Foulkes estimate   =    -329.49088413 Ry
     estimated scf accuracy    <          6.8E-10 Ry

     iteration #  8     ecut=    30.00 Ry     beta=0.70
     Davidson diagonalization with overlap
     ethr =  1.24E-12,  avg # of iterations =  2.0

     total cpu time spent up to now is       36.0 secs

     End of self-consistent calculation

          k = 0.0000 0.0000 0.0000 ( 22119 PWs)   bands (ev):

    -8.5178  -7.7885  -7.6652  -7.2306  -6.8753  -6.8045  -6.6232  -6.4919
    -6.2922  -6.0747  -5.9552  -5.7724  -5.7357  -5.6862  -5.4581  -5.3811
    -5.3132  -5.2505  -5.2045  -5.1793  -5.1711  -5.1250  -4.9985  -4.9381
    -4.8311  -4.7204  -4.4780  -3.7769  -2.4888  -2.2056  -0.5605  -0.2062
     0.5121   0.8076

     the Fermi energy is    -3.7444 ev

!    total energy              =    -329.49088418 Ry
     Harris-Foulkes estimate   =    -329.49088418 Ry
     estimated scf accuracy    <          5.5E-11 Ry

     The total energy is the sum of the following terms:

     one-electron contribution =    -610.00650260 Ry
     hartree contribution      =     326.43244114 Ry
     xc contribution           =     -51.40313969 Ry
     ewald contribution        =       5.49063795 Ry
     smearing contrib. (-TS)   =      -0.00432096 Ry

     convergence has been achieved in   8 iterations

     Forces acting on atoms (Ry/au):

     atom    1 type  1   force =    -0.00043930   -0.00027339   -0.00014751
     atom    2 type  1   force =    -0.00076190    0.00068501   -0.00126794
     atom    3 type  1   force =     0.00026452   -0.00066485    0.00056248
     atom    4 type  1   force =     0.00173066   -0.00024079    0.00028480
     atom    5 type  1   force =    -0.00079398    0.00049401    0.00056818

     Total force =     0.002847     Total SCF correction =     0.000036

     number of scf cycles    =  13
     number of bfgs steps    =  12

     energy   old            =    -329.4908688908 Ry
     energy   new            =    -329.4908841757 Ry

     CASE: energy  _new < energy  _old

     new trust radius        =       0.0079313675 bohr
     new conv_thr            =            1.0E-10 Ry


ATOMIC_POSITIONS (bohr)
Au      -1.940214885   2.580891197  -0.796978059
Au      -0.830966542   3.441952579   4.184995430
Au       2.919287258   2.173229315   0.525845490
Au       4.126850232   3.542263125   5.664352685
Au       7.592821937   1.653602784   2.353978454



     Writing output data file pwscf.save
     Check: negative starting charge=   -0.006487
     NEW-OLD atomic charge density approx. for the potential
     Check: negative starting charge=   -0.006483

     negative rho (up, down):  3.095E-06 0.000E+00

     total cpu time spent up to now is       36.4 secs

     per-process dynamical memory:    50.7 Mb

     Self-consistent Calculation

     iteration #  1     ecut=    30.00 Ry     beta=0.70
     Davidson diagonalization with overlap
     ethr =  1.00E-06,  avg # of iterations =  3.0

     Threshold (ethr) on eigenvalues was too large:
     Diagonalizing with lowered threshold

     Davidson diagonalization with overlap
     ethr =  2.50E-08,  avg # of iterations =  1.0

     total cpu time spent up to now is       36.9 secs

     total energy              =    -329.49089727 Ry
     Harris-Foulkes estimate   =    -329.49090093 Ry
     estimated scf accuracy    <       0.00001471 Ry

     iteration #  2     ecut=    30.00 Ry     beta=0.70
     Davidson diagonalization with overlap
     ethr =  2.67E-08,  avg # of iterations =  2.0

     total cpu time spent up to now is       37.2 secs

     total energy              =    -329.49089840 Ry
     Harris-Foulkes estimate   =    -329.49090637 Ry
     estimated scf accuracy    <       0.00001681 Ry

     iteration #  3     ecut=    30.00 Ry     beta=0.70
     Davidson diagonalization with overlap
     ethr =  2.67E-08,  avg # of iterations =  2.0

     total cpu time spent up to now is       37.4 secs

     total energy              =    -329.49090220 Ry
     Harris-Foulkes estimate   =    -329.49090343 Ry
     estimated scf accuracy    <       0.00000446 Ry

     iteration #  4     ecut=    30.00 Ry     beta=0.70
     Davidson diagonalization with overlap
     ethr =  8.11E-09,  avg # of iterations =  2.0

     total cpu time spent up to now is       37.6 secs

     total energy              =    -329.49090362 Ry
     Harris-Foulkes estimate   =    -329.49090333 Ry
     estimated scf accuracy    <       0.00000055 Ry

     iteration #  5     ecut=    30.00 Ry     beta=0.70
     Davidson diagonalization with overlap
     ethr =  1.00E-09,  avg # of iterations =  2.0

     total cpu time spent up to now is       37.8 secs

     total energy              =    -329.49090380 Ry
     Harris-Foulkes estimate   =    -329.49090374 Ry
     estimated scf accuracy    <       0.00000004 Ry

     iteration #  6     ecut=    30.00 Ry     beta=0.70
     Davidson diagonalization with overlap
     ethr =  7.24E-11,  avg # of iterations =  2.0

     total cpu time spent up to now is       38.0 secs

     total energy              =    -329.49090380 Ry
     Harris-Foulkes estimate   =    -329.49090381 Ry
     estimated scf accuracy    <          6.1E-09 Ry

     iteration #  7     ecut=    30.00 Ry     beta=0.70
     Davidson diagonalization with overlap
     ethr =  1.11E-11,  avg # of iterations =  2.0

     total cpu time spent up to now is       38.2 secs

     total energy              =    -329.49090380 Ry
     Harris-Foulkes estimate   =    -329.49090380 Ry
     estimated scf accuracy    <          1.6E-09 Ry

     iteration #  8     ecut=    30.00 Ry     beta=0.70
     Davidson diagonalization with overlap
     ethr =  2.91E-12,  avg # of iterations =  2.0

     total cpu time spent up to now is       38.5 secs

     total energy              =    -329.49090381 Ry
     Harris-Foulkes estimate   =    -329.49090380 Ry
     estimated scf accuracy    <          2.5E-10 Ry

     iteration #  9     ecut=    30.00 Ry     beta=0.70
     Davidson diagonalization with overlap
     ethr =  4.60E-13,  avg # of iterations =  3.0

     total cpu time spent up to now is       38.7 secs

     total energy              =    -329.49090381 Ry
     Harris-Foulkes estimate   =    -329.49090381 Ry
     estimated scf accuracy    <          1.1E-10 Ry

     iteration # 10     ecut=    30.00 Ry     beta=0.70
     Davidson diagonalization with overlap
     ethr =  1.92E-13,  avg # of iterations =  2.0

     total cpu time spent up to now is       38.9 secs

     End of self-consistent calculation

          k = 0.0000 0.0000 0.0000 ( 22119 PWs)   bands (ev):

    -8.5161  -7.7901  -7.6641  -7.2344  -6.8754  -6.8040  -6.6274  -6.4923
    -6.2943  -6.0730  -5.9584  -5.7715  -5.7351  -5.6864  -5.4596  -5.3808
    -5.3132  -5.2502  -5.2038  -5.1802  -5.1712  -5.1251  -5.0004  -4.9371
    -4.8327  -4.7199  -4.4779  -3.7754  -2.4909  -2.2042  -0.5609  -0.2056
     0.5097   0.8101

     the Fermi energy is    -3.7427 ev

!    total energy              =    -329.49090383 Ry
     Harris-Foulkes estimate   =    -329.49090381 Ry
     estimated scf accuracy    <          1.2E-11 Ry

     The total energy is the sum of the following terms:

     one-electron contribution =    -610.02861982 Ry
     hartree contribution      =     326.44269167 Ry
     xc contribution           =     -51.40318126 Ry
     ewald contribution        =       5.50257266 Ry
     smearing contrib. (-TS)   =      -0.00436709 Ry

     convergence has been achieved in  10 iterations

     Forces acting on atoms (Ry/au):

     atom    1 type  1   force =     0.00016492   -0.00036617   -0.00028688
     atom    2 type  1   force =    -0.00073071    0.00072997   -0.00090453
     atom    3 type  1   force =    -0.00022044   -0.00044535    0.00034254
     atom    4 type  1   force =     0.00127013   -0.00005477    0.00051577
     atom    5 type  1   force =    -0.00048390    0.00013631    0.00033311

     Total force =     0.002177     Total SCF correction =     0.000015

     number of scf cycles    =  14
     number of bfgs steps    =  13

     energy   old            =    -329.4908841757 Ry
     energy   new            =    -329.4909038338 Ry

     CASE: energy  _new < energy  _old

     new trust radius        =       0.0118970512 bohr
     new conv_thr            =            1.0E-10 Ry


ATOMIC_POSITIONS (bohr)
Au      -1.946250397   2.579043743  -0.796916237
Au      -0.827339606   3.449060306   4.176171294
Au       2.918659405   2.163437458   0.525593116
Au       4.131729469   3.540897071   5.667853402
Au       7.590979129   1.659500423   2.359492425



     Writing output data file pwscf.save
     Check: negative starting charge=   -0.006483
     NEW-OLD atomic charge density approx. for the potential
     Check: negative starting charge=   -0.006476

     negative rho (up, down):  1.631E-05 0.000E+00

     total cpu time spent up to now is       39.2 secs

     per-process dynamical memory:    50.7 Mb

     Self-consistent Calculation

     iteration #  1     ecut=    30.00 Ry     beta=0.70
     Davidson diagonalization with overlap
     ethr =  1.00E-06,  avg # of iterations =  4.0

     Threshold (ethr) on eigenvalues was too large:
     Diagonalizing with lowered threshold

     Davidson diagonalization with overlap
     ethr =  5.82E-08,  avg # of iterations =  1.0

     negative rho (up, down):  1.254E-08 0.000E+00

     total cpu time spent up to now is       39.6 secs

     total energy              =    -329.49090717 Ry
     Harris-Foulkes estimate   =    -329.49091619 Ry
     estimated scf accuracy    <       0.00003232 Ry

     iteration #  2     ecut=    30.00 Ry     beta=0.70
     Davidson diagonalization with overlap
     ethr =  5.88E-08,  avg # of iterations =  2.0

     total cpu time spent up to now is       39.8 secs

     total energy              =    -329.49090935 Ry
     Harris-Foulkes estimate   =    -329.49092726 Ry
     estimated scf accuracy    <       0.00003793 Ry

     iteration #  3     ecut=    30.00 Ry     beta=0.70
     Davidson diagonalization with overlap
     ethr =  5.88E-08,  avg # of iterations =  2.0

     total cpu time spent up to now is       40.1 secs

     total energy              =    -329.49091689 Ry
     Harris-Foulkes estimate   =    -329.49092060 Ry
     estimated scf accuracy    <       0.00000974 Ry

     iteration #  4     ecut=    30.00 Ry     beta=0.70
     Davidson diagonalization with overlap
     ethr =  1.77E-08,  avg # of iterations =  2.0

     total cpu time spent up to now is       40.3 secs

     total energy              =    -329.49091956 Ry
     Harris-Foulkes estimate   =    -329.49091936 Ry
     estimated scf accuracy    <       0.00000121 Ry

     iteration #  5     ecut=    30.00 Ry     beta=0.70
     Davidson diagonalization with overlap
     ethr =  2.21E-09,  avg # of iterations =  2.0

     total cpu time spent up to now is       40.5 secs

     total energy              =    -329.49091986 Ry
     Harris-Foulkes estimate   =    -329.49091983 Ry
     estimated scf accuracy    <       0.00000010 Ry

     iteration #  6     ecut=    30.00 Ry     beta=0.70
     Davidson diagonalization with overlap
     ethr =  1.90E-10,  avg # of iterations =  2.0

     total cpu time spent up to now is       40.7 secs

     total energy              =    -329.49091998 Ry
     Harris-Foulkes estimate   =    -329.49091989 Ry
     estimated scf accuracy    <       0.00000002 Ry

     iteration #  7     ecut=    30.00 Ry     beta=0.70
     Davidson diagonalization with overlap
     ethr =  2.76E-11,  avg # of iterations =  2.0

     total cpu time spent up to now is       40.9 secs

     total energy              =    -329.49092012 Ry
     Harris-Foulkes estimate   =    -329.49091999 Ry
     estimated scf accuracy    <          2.9E-09 Ry

     iteration #  8     ecut=    30.00 Ry     beta=0.70
     Davidson diagonalization with overlap
     ethr =  5.27E-12,  avg # of iterations =  2.0

     total cpu time spent up to now is       41.2 secs

     total energy              =    -329.49092008 Ry
     Harris-Foulkes estimate   =    -329.49092012 Ry
     estimated scf accuracy    <          9.5E-10 Ry

     iteration #  9     ecut=    30.00 Ry     beta=0.70
     Davidson diagonalization with overlap
     ethr =  1.73E-12,  avg # of iterations =  2.0

     total cpu time spent up to now is       41.4 secs

     total energy              =    -329.49092008 Ry
     Harris-Foulkes estimate   =    -329.49092008 Ry
     estimated scf accuracy    <          2.3E-10 Ry

     iteration # 10     ecut=    30.00 Ry     beta=0.70
     Davidson diagonalization with overlap
     ethr =  4.11E-13,  avg # of iterations =  2.0

     total cpu time spent up to now is       41.6 secs

     End of self-consistent calculation

          k = 0.0000 0.0000 0.0000 ( 22119 PWs)   bands (ev):

    -8.5144  -7.7928  -7.6606  -7.2389  -6.8752  -6.8036  -6.6343  -6.4925
    -6.2961  -6.0713  -5.9637  -5.7701  -5.7345  -5.6865  -5.4617  -5.3800
    -5.3128  -5.2499  -5.2026  -5.1817  -5.1712  -5.1254  -5.0027  -4.9362
    -4.8359  -4.7183  -4.4784  -3.7726  -2.4936  -2.2032  -0.5613  -0.2045
     0.5063   0.8134

     the Fermi energy is    -3.7395 ev

!    total energy              =    -329.49092009 Ry
     Harris-Foulkes estimate   =    -329.49092008 Ry
     estimated scf accuracy    <          1.7E-11 Ry

     The total energy is the sum of the following terms:

     one-electron contribution =    -610.03461190 Ry
     hartree contribution      =     326.44455060 Ry
     xc contribution           =     -51.40314190 Ry
     ewald contribution        =       5.50674626 Ry
     smearing contrib. (-TS)   =      -0.00446314 Ry

     convergence has been achieved in  10 iterations

     Forces acting on atoms (Ry/au):

     atom    1 type  1   force =     0.00086369   -0.00048897   -0.00056149
     atom    2 type  1   force =    -0.00041313    0.00083359   -0.00024670
     atom    3 type  1   force =    -0.00078805   -0.00018166    0.00005769
     atom    4 type  1   force =     0.00031650    0.00023008    0.00080109
     atom    5 type  1   force =     0.00002099   -0.00039303   -0.00005059

     Total force =     0.001959     Total SCF correction =     0.000018

     bfgs converged in  15 scf cycles and  14 bfgs steps
     (criteria: energy <  1.0E-04, force <  1.0E-03)

     End of BFGS Geometry Optimization

     Final energy   =    -329.4909200931 Ry
Begin final coordinates

ATOMIC_POSITIONS (bohr)
Au      -1.946250397   2.579043743  -0.796916237
Au      -0.827339606   3.449060306   4.176171294
Au       2.918659405   2.163437458   0.525593116
Au       4.131729469   3.540897071   5.667853402
Au       7.590979129   1.659500423   2.359492425
End final coordinates



     Writing output data file pwscf.save
 
     init_run     :      0.16s CPU      0.20s WALL (       1 calls)
     electrons    :     35.90s CPU     38.45s WALL (      15 calls)
     update_pot   :      0.97s CPU      1.23s WALL (      14 calls)
     forces       :      0.68s CPU      0.69s WALL (      15 calls)

     Called by init_run:
     wfcinit      :      0.07s CPU      0.08s WALL (       1 calls)
     potinit      :      0.03s CPU      0.04s WALL (       1 calls)

     Called by electrons:
     c_bands      :     27.55s CPU     28.09s WALL (     148 calls)
     sum_band     :      3.96s CPU      4.05s WALL (     148 calls)
     v_of_rho     :      3.05s CPU      3.10s WALL (     153 calls)
     mix_rho      :      1.09s CPU      2.32s WALL (     148 calls)

     Called by c_bands:
     init_us_2    :      0.48s CPU      0.50s WALL (     297 calls)
     cegterg      :     24.69s CPU     25.04s WALL (     148 calls)

     Called by sum_band:

     Called by *egterg:
     h_psi        :     19.44s CPU     19.67s WALL (     505 calls)
     g_psi        :      0.17s CPU      0.17s WALL (     356 calls)
     cdiaghg      :      1.20s CPU      1.20s WALL (     480 calls)

     Called by h_psi:
     h_psi:pot    :     19.20s CPU     19.42s WALL (     505 calls)
     h_psi:calbec :      1.04s CPU      1.04s WALL (     505 calls)
     vloc_psi     :     17.10s CPU     17.31s WALL (     505 calls)
     add_vuspsi   :      1.06s CPU      1.06s WALL (     505 calls)

     General routines
     calbec       :      1.24s CPU      1.26s WALL (     565 calls)
     fft          :      1.71s CPU      1.75s WALL (    1732 calls)
     fftw         :     18.21s CPU     18.57s WALL (   32384 calls)
     davcio       :      0.16s CPU      1.12s WALL (    1376 calls)
 
     Parallel routines
     fft_scatter  :      6.42s CPU      6.39s WALL (   34116 calls)
 
     PWSCF        :    38.19s CPU        41.79s WALL

 
   This run was terminated on:  16:41:32   3Aug2017            

=------------------------------------------------------------------------------=
   JOB DONE.
=------------------------------------------------------------------------------=
