
     Program PWSCF v.6.0 (svn rev. 13079) starts on  4Aug2017 at  3:29: 2 

     This program is part of the open-source Quantum ESPRESSO suite
     for quantum simulation of materials; please cite
         "P. Giannozzi et al., J. Phys.:Condens. Matter 21 395502 (2009);
          URL http://www.quantum-espresso.org", 
     in publications or presentations arising from this work. More details at
     http://www.quantum-espresso.org/quote

     Parallel version (MPI), running on    10 processors
     R & G space division:  proc/nbgrp/npool/nimage =      10
     Reading input from input/multi/minchecks-Gold5-696.in

     Current dimensions of program PWSCF are:
     Max number of different atomic species (ntypx) = 10
     Max number of k-points (npk) =  40000
     Max angular momentum in pseudopotentials (lmaxx) =  3
     Message from routine iosys:
     pot_extrapolation='second-order' not available, using 'atomic'
     Message from routine iosys:
     wfc_extrapolation='second-order' not available, using 'atomic'

     Subspace diagonalization in iterative solution of the eigenvalue problem:
     a serial algorithm will be used

 
     Parallelization info
     --------------------
     sticks:   dense  smooth     PW     G-vecs:    dense   smooth      PW
     Min         380     380     94                17748    17748    2208
     Max         381     381     95                17753    17753    2213
     Sum        3809    3809    949               177509   177509   22119
 


     bravais-lattice index     =            1
     lattice parameter (alat)  =      20.0000  a.u.
     unit-cell volume          =    8000.0000 (a.u.)^3
     number of atoms/cell      =            5
     number of atomic types    =            1
     number of electrons       =        55.00
     number of Kohn-Sham states=           34
     kinetic-energy cutoff     =      30.0000  Ry
     charge density cutoff     =     120.0000  Ry
     convergence threshold     =      1.0E-08
     mixing beta               =       0.7000
     number of iterations used =            8  plain     mixing
     Exchange-correlation      = BLYP ( 1  3  1  3 0 0)
     nstep                     =           50


     celldm(1)=  20.000000  celldm(2)=   0.000000  celldm(3)=   0.000000
     celldm(4)=   0.000000  celldm(5)=   0.000000  celldm(6)=   0.000000

     crystal axes: (cart. coord. in units of alat)
               a(1) = (   1.000000   0.000000   0.000000 )  
               a(2) = (   0.000000   1.000000   0.000000 )  
               a(3) = (   0.000000   0.000000   1.000000 )  

     reciprocal axes: (cart. coord. in units 2 pi/alat)
               b(1) = (  1.000000  0.000000  0.000000 )  
               b(2) = (  0.000000  1.000000  0.000000 )  
               b(3) = (  0.000000  0.000000  1.000000 )  


     PseudoPot. # 1 for Au read from file:
     ./Au.blyp-d-hgh.UPF
     MD5 check sum: c10d8bae01f806c36a1643a1c69a8479
     Pseudo is Norm-conserving, Zval = 11.0
     Generated in analytical, separable form
     Using radial grid of 1279 points,  6 beta functions with: 
                l(1) =   0
                l(2) =   0
                l(3) =   1
                l(4) =   1
                l(5) =   2
                l(6) =   2

     atomic species   valence    mass     pseudopotential
        Au            11.00    28.08600     Au( 1.00)

     No symmetry found



   Cartesian axes

     site n.     atom                  positions (alat units)
         1           Au  tau(   1) = (  -0.1021503   0.0486897  -0.0194387  )
         2           Au  tau(   2) = (   0.0161385   0.1673482   0.1796580  )
         3           Au  tau(   3) = (   0.1454445   0.0376128   0.0094772  )
         4           Au  tau(   4) = (   0.2271864   0.2418005   0.3030039  )
         5           Au  tau(   5) = (   0.3246796   0.0525304   0.1381422  )

     number of k points=     1  Marzari-Vanderbilt smearing, width (Ry)=  0.0250
                       cart. coord. in units 2pi/alat
        k(    1) = (   0.0000000   0.0000000   0.0000000), wk =   2.0000000

     Dense  grid:   177509 G-vectors     FFT dimensions: (  72,  72,  72)

     Estimated max dynamical RAM per process >      15.04Mb

     Estimated total allocated dynamical RAM >     150.39Mb

     Initial potential from superposition of free atoms
     Check: negative starting charge=   -0.006266

     starting charge   54.99940, renormalised to   55.00000

     negative rho (up, down):  6.266E-03 0.000E+00
     Starting wfc are   45 randomized atomic wfcs

     total cpu time spent up to now is        0.3 secs

     per-process dynamical memory:    41.0 Mb

     Self-consistent Calculation

     iteration #  1     ecut=    30.00 Ry     beta=0.70
     Davidson diagonalization with overlap
     ethr =  1.00E-02,  avg # of iterations =  3.0

     Threshold (ethr) on eigenvalues was too large:
     Diagonalizing with lowered threshold

     Davidson diagonalization with overlap
     ethr =  5.72E-04,  avg # of iterations =  2.0

     negative rho (up, down):  7.827E-04 0.000E+00

     total cpu time spent up to now is        0.7 secs

     total energy              =    -329.27636617 Ry
     Harris-Foulkes estimate   =    -329.49602446 Ry
     estimated scf accuracy    <       0.36350962 Ry

     iteration #  2     ecut=    30.00 Ry     beta=0.70
     Davidson diagonalization with overlap
     ethr =  6.61E-04,  avg # of iterations =  2.0

     negative rho (up, down):  3.405E-04 0.000E+00

     total cpu time spent up to now is        0.9 secs

     total energy              =    -329.36525598 Ry
     Harris-Foulkes estimate   =    -329.52797505 Ry
     estimated scf accuracy    <       0.32778066 Ry

     iteration #  3     ecut=    30.00 Ry     beta=0.70
     Davidson diagonalization with overlap
     ethr =  5.96E-04,  avg # of iterations =  2.0

     negative rho (up, down):  1.857E-04 0.000E+00

     total cpu time spent up to now is        1.1 secs

     total energy              =    -329.39760612 Ry
     Harris-Foulkes estimate   =    -329.44685361 Ry
     estimated scf accuracy    <       0.15788457 Ry

     iteration #  4     ecut=    30.00 Ry     beta=0.70
     Davidson diagonalization with overlap
     ethr =  2.87E-04,  avg # of iterations =  1.0

     negative rho (up, down):  4.068E-05 0.000E+00

     total cpu time spent up to now is        1.3 secs

     total energy              =    -329.42154763 Ry
     Harris-Foulkes estimate   =    -329.43046923 Ry
     estimated scf accuracy    <       0.04742965 Ry

     iteration #  5     ecut=    30.00 Ry     beta=0.70
     Davidson diagonalization with overlap
     ethr =  8.62E-05,  avg # of iterations =  1.0

     total cpu time spent up to now is        1.5 secs

     total energy              =    -329.42455757 Ry
     Harris-Foulkes estimate   =    -329.42573130 Ry
     estimated scf accuracy    <       0.00314320 Ry

     iteration #  6     ecut=    30.00 Ry     beta=0.70
     Davidson diagonalization with overlap
     ethr =  5.71E-06,  avg # of iterations =  6.0

     total cpu time spent up to now is        1.8 secs

     total energy              =    -329.42526061 Ry
     Harris-Foulkes estimate   =    -329.42568833 Ry
     estimated scf accuracy    <       0.00238005 Ry

     iteration #  7     ecut=    30.00 Ry     beta=0.70
     Davidson diagonalization with overlap
     ethr =  4.33E-06,  avg # of iterations =  1.0

     total cpu time spent up to now is        2.0 secs

     total energy              =    -329.42537276 Ry
     Harris-Foulkes estimate   =    -329.42545518 Ry
     estimated scf accuracy    <       0.00028666 Ry

     iteration #  8     ecut=    30.00 Ry     beta=0.70
     Davidson diagonalization with overlap
     ethr =  5.21E-07,  avg # of iterations =  2.0

     total cpu time spent up to now is        2.2 secs

     total energy              =    -329.42541193 Ry
     Harris-Foulkes estimate   =    -329.42541852 Ry
     estimated scf accuracy    <       0.00001462 Ry

     iteration #  9     ecut=    30.00 Ry     beta=0.70
     Davidson diagonalization with overlap
     ethr =  2.66E-08,  avg # of iterations =  3.0

     total cpu time spent up to now is        2.4 secs

     total energy              =    -329.42541612 Ry
     Harris-Foulkes estimate   =    -329.42541841 Ry
     estimated scf accuracy    <       0.00000589 Ry

     iteration # 10     ecut=    30.00 Ry     beta=0.70
     Davidson diagonalization with overlap
     ethr =  1.07E-08,  avg # of iterations =  2.0

     total cpu time spent up to now is        2.6 secs

     total energy              =    -329.42541709 Ry
     Harris-Foulkes estimate   =    -329.42541734 Ry
     estimated scf accuracy    <       0.00000069 Ry

     iteration # 11     ecut=    30.00 Ry     beta=0.70
     Davidson diagonalization with overlap
     ethr =  1.25E-09,  avg # of iterations =  2.0

     total cpu time spent up to now is        2.9 secs

     total energy              =    -329.42541711 Ry
     Harris-Foulkes estimate   =    -329.42541729 Ry
     estimated scf accuracy    <       0.00000059 Ry

     iteration # 12     ecut=    30.00 Ry     beta=0.70
     Davidson diagonalization with overlap
     ethr =  1.06E-09,  avg # of iterations =  1.0

     total cpu time spent up to now is        3.0 secs

     End of self-consistent calculation

          k = 0.0000 0.0000 0.0000 ( 22119 PWs)   bands (ev):

    -8.8881  -8.2443  -7.9548  -7.5661  -7.2569  -7.0163  -6.7567  -6.4966
    -6.3286  -6.1463  -5.9601  -5.8467  -5.7953  -5.5773  -5.5505  -5.4752
    -5.4229  -5.3902  -5.2367  -5.1414  -5.1182  -5.0177  -4.9727  -4.8316
    -4.6602  -4.4922  -4.1998  -3.9513  -2.4583  -1.8733  -0.5182  -0.3059
     0.3921   0.7737

     the Fermi energy is    -3.9296 ev

!    total energy              =    -329.42541715 Ry
     Harris-Foulkes estimate   =    -329.42541718 Ry
     estimated scf accuracy    <          8.2E-09 Ry

     The total energy is the sum of the following terms:

     one-electron contribution =    -615.28573457 Ry
     hartree contribution      =     328.99157753 Ry
     xc contribution           =     -51.48944831 Ry
     ewald contribution        =       8.35242719 Ry
     smearing contrib. (-TS)   =       0.00576100 Ry

     convergence has been achieved in  12 iterations

     Forces acting on atoms (Ry/au):

     atom    1 type  1   force =    -0.01694038    0.00494530   -0.00022611
     atom    2 type  1   force =    -0.00852489    0.00671513    0.00423655
     atom    3 type  1   force =    -0.14215963   -0.02338294   -0.12158763
     atom    4 type  1   force =    -0.00042086   -0.01291327   -0.00873742
     atom    5 type  1   force =     0.16804576    0.02463579    0.12631461

     Total force =     0.284661     Total SCF correction =     0.000380

     BFGS Geometry Optimization

     number of scf cycles    =   1
     number of bfgs steps    =   0

     energy   new            =    -329.4254171534 Ry

     new trust radius        =       0.2116640721 bohr
     new conv_thr            =       0.0000000100 Ry


ATOMIC_POSITIONS (bohr)
Au      -2.059947382   0.978738298  -0.389000114
Au       0.314245115   3.353679128   3.597395549
Au       2.766730370   0.728873055   0.067957370
Au       4.543308142   4.823095729   6.051340583
Au       6.661637755   1.075244790   2.889157613



     Writing output data file pwscf.save
     Check: negative starting charge=   -0.006266
     NEW-OLD atomic charge density approx. for the potential
     Check: negative starting charge=   -0.006263

     negative rho (up, down):  3.742E-03 0.000E+00

     total cpu time spent up to now is        3.2 secs

     per-process dynamical memory:    42.9 Mb

     Self-consistent Calculation

     iteration #  1     ecut=    30.00 Ry     beta=0.70
     Davidson diagonalization with overlap
     ethr =  1.00E-06,  avg # of iterations = 14.0

     negative rho (up, down):  4.152E-04 0.000E+00

     total cpu time spent up to now is        3.8 secs

     total energy              =    -329.25938313 Ry
     Harris-Foulkes estimate   =    -329.76417273 Ry
     estimated scf accuracy    <       0.02563139 Ry

     iteration #  2     ecut=    30.00 Ry     beta=0.70
     Davidson diagonalization with overlap
     ethr =  4.66E-05,  avg # of iterations =  4.0

     negative rho (up, down):  2.667E-04 0.000E+00

     total cpu time spent up to now is        4.1 secs

     total energy              =    -329.45165927 Ry
     Harris-Foulkes estimate   =    -329.49485026 Ry
     estimated scf accuracy    <       0.15221575 Ry

     iteration #  3     ecut=    30.00 Ry     beta=0.70
     Davidson diagonalization with overlap
     ethr =  4.66E-05,  avg # of iterations =  3.0

     negative rho (up, down):  1.666E-04 0.000E+00

     total cpu time spent up to now is        4.3 secs

     total energy              =    -329.46394170 Ry
     Harris-Foulkes estimate   =    -329.47633854 Ry
     estimated scf accuracy    <       0.05226940 Ry

     iteration #  4     ecut=    30.00 Ry     beta=0.70
     Davidson diagonalization with overlap
     ethr =  4.66E-05,  avg # of iterations =  2.0

     negative rho (up, down):  7.705E-05 0.000E+00

     total cpu time spent up to now is        4.5 secs

     total energy              =    -329.47014755 Ry
     Harris-Foulkes estimate   =    -329.47128245 Ry
     estimated scf accuracy    <       0.00787760 Ry

     iteration #  5     ecut=    30.00 Ry     beta=0.70
     Davidson diagonalization with overlap
     ethr =  1.43E-05,  avg # of iterations =  1.0

     negative rho (up, down):  1.464E-05 0.000E+00

     total cpu time spent up to now is        4.7 secs

     total energy              =    -329.47030169 Ry
     Harris-Foulkes estimate   =    -329.47057128 Ry
     estimated scf accuracy    <       0.00194235 Ry

     iteration #  6     ecut=    30.00 Ry     beta=0.70
     Davidson diagonalization with overlap
     ethr =  3.53E-06,  avg # of iterations =  6.0

     negative rho (up, down):  1.794E-08 0.000E+00

     total cpu time spent up to now is        4.9 secs

     total energy              =    -329.47024343 Ry
     Harris-Foulkes estimate   =    -329.47041818 Ry
     estimated scf accuracy    <       0.00058642 Ry

     iteration #  7     ecut=    30.00 Ry     beta=0.70
     Davidson diagonalization with overlap
     ethr =  1.07E-06,  avg # of iterations =  2.0

     total cpu time spent up to now is        5.1 secs

     total energy              =    -329.47028474 Ry
     Harris-Foulkes estimate   =    -329.47031357 Ry
     estimated scf accuracy    <       0.00006192 Ry

     iteration #  8     ecut=    30.00 Ry     beta=0.70
     Davidson diagonalization with overlap
     ethr =  1.13E-07,  avg # of iterations =  2.0

     total cpu time spent up to now is        5.4 secs

     total energy              =    -329.47029026 Ry
     Harris-Foulkes estimate   =    -329.47029784 Ry
     estimated scf accuracy    <       0.00001518 Ry

     iteration #  9     ecut=    30.00 Ry     beta=0.70
     Davidson diagonalization with overlap
     ethr =  2.76E-08,  avg # of iterations =  2.0

     total cpu time spent up to now is        5.6 secs

     total energy              =    -329.47029231 Ry
     Harris-Foulkes estimate   =    -329.47029319 Ry
     estimated scf accuracy    <       0.00000254 Ry

     iteration # 10     ecut=    30.00 Ry     beta=0.70
     Davidson diagonalization with overlap
     ethr =  4.62E-09,  avg # of iterations =  2.0

     total cpu time spent up to now is        5.8 secs

     total energy              =    -329.47029251 Ry
     Harris-Foulkes estimate   =    -329.47029298 Ry
     estimated scf accuracy    <       0.00000095 Ry

     iteration # 11     ecut=    30.00 Ry     beta=0.70
     Davidson diagonalization with overlap
     ethr =  1.73E-09,  avg # of iterations =  2.0

     total cpu time spent up to now is        6.0 secs

     total energy              =    -329.47029268 Ry
     Harris-Foulkes estimate   =    -329.47029272 Ry
     estimated scf accuracy    <       0.00000013 Ry

     iteration # 12     ecut=    30.00 Ry     beta=0.70
     Davidson diagonalization with overlap
     ethr =  2.42E-10,  avg # of iterations =  2.0

     total cpu time spent up to now is        6.2 secs

     total energy              =    -329.47029272 Ry
     Harris-Foulkes estimate   =    -329.47029272 Ry
     estimated scf accuracy    <       0.00000002 Ry

     iteration # 13     ecut=    30.00 Ry     beta=0.70
     Davidson diagonalization with overlap
     ethr =  4.05E-11,  avg # of iterations =  2.0

     total cpu time spent up to now is        6.5 secs

     End of self-consistent calculation

          k = 0.0000 0.0000 0.0000 ( 22119 PWs)   bands (ev):

    -8.5169  -7.8682  -7.6214  -7.4137  -6.8801  -6.8452  -6.5726  -6.3846
    -6.2211  -6.0374  -5.9095  -5.7631  -5.7045  -5.5848  -5.5155  -5.4692
    -5.2955  -5.2502  -5.1919  -5.0892  -5.0753  -4.9965  -4.9284  -4.8570
    -4.7168  -4.5456  -4.2622  -3.8334  -2.4517  -1.9892  -0.4786  -0.2585
     0.4136   0.7245

     the Fermi energy is    -3.8440 ev

!    total energy              =    -329.47029272 Ry
     Harris-Foulkes estimate   =    -329.47029273 Ry
     estimated scf accuracy    <          4.9E-09 Ry

     The total energy is the sum of the following terms:

     one-electron contribution =    -606.93562649 Ry
     hartree contribution      =     325.00671409 Ry
     xc contribution           =     -51.46016620 Ry
     ewald contribution        =       3.91348726 Ry
     smearing contrib. (-TS)   =       0.00529861 Ry

     convergence has been achieved in  13 iterations

     Forces acting on atoms (Ry/au):

     atom    1 type  1   force =    -0.03996422    0.00562739   -0.00193803
     atom    2 type  1   force =    -0.00510024    0.00618941    0.00544933
     atom    3 type  1   force =     0.00734607   -0.01477687   -0.03264353
     atom    4 type  1   force =     0.00145395   -0.01270072   -0.00711982
     atom    5 type  1   force =     0.03626445    0.01566080    0.03625206

     Total force =     0.078442     Total SCF correction =     0.000285

     number of scf cycles    =   2
     number of bfgs steps    =   1

     energy   old            =    -329.4254171534 Ry
     energy   new            =    -329.4702927248 Ry

     CASE: energy  _new < energy  _old

     new trust radius        =       0.0787705276 bohr
     new conv_thr            =       0.0000000040 Ry


ATOMIC_POSITIONS (bohr)
Au      -2.110296135   0.985983744  -0.391405502
Au       0.307432333   3.361725843   3.604378122
Au       2.767143625   0.709214568   0.020273635
Au       4.545076769   4.806636511   6.042022610
Au       6.716617408   1.096070335   2.941582134



     Writing output data file pwscf.save
     Check: negative starting charge=   -0.006263
     NEW-OLD atomic charge density approx. for the potential
     Check: negative starting charge=   -0.006229

     negative rho (up, down):  9.316E-04 0.000E+00

     total cpu time spent up to now is        6.7 secs

     per-process dynamical memory:    50.7 Mb

     Self-consistent Calculation

     iteration #  1     ecut=    30.00 Ry     beta=0.70
     Davidson diagonalization with overlap
     ethr =  1.00E-06,  avg # of iterations =  7.0

     negative rho (up, down):  5.989E-05 0.000E+00

     total cpu time spent up to now is        7.1 secs

     total energy              =    -329.47649195 Ry
     Harris-Foulkes estimate   =    -329.47623788 Ry
     estimated scf accuracy    <       0.00107305 Ry

     iteration #  2     ecut=    30.00 Ry     beta=0.70
     Davidson diagonalization with overlap
     ethr =  1.95E-06,  avg # of iterations =  5.0

     negative rho (up, down):  3.882E-05 0.000E+00

     total cpu time spent up to now is        7.4 secs

     total energy              =    -329.47528421 Ry
     Harris-Foulkes estimate   =    -329.47847792 Ry
     estimated scf accuracy    <       0.01425662 Ry

     iteration #  3     ecut=    30.00 Ry     beta=0.70
     Davidson diagonalization with overlap
     ethr =  1.95E-06,  avg # of iterations =  3.0

     negative rho (up, down):  2.539E-06 0.000E+00

     total cpu time spent up to now is        7.6 secs

     total energy              =    -329.47696375 Ry
     Harris-Foulkes estimate   =    -329.47705420 Ry
     estimated scf accuracy    <       0.00044440 Ry

     iteration #  4     ecut=    30.00 Ry     beta=0.70
     Davidson diagonalization with overlap
     ethr =  8.08E-07,  avg # of iterations =  2.0

     total cpu time spent up to now is        7.8 secs

     total energy              =    -329.47701990 Ry
     Harris-Foulkes estimate   =    -329.47703870 Ry
     estimated scf accuracy    <       0.00006299 Ry

     iteration #  5     ecut=    30.00 Ry     beta=0.70
     Davidson diagonalization with overlap
     ethr =  1.15E-07,  avg # of iterations =  2.0

     total cpu time spent up to now is        8.0 secs

     total energy              =    -329.47703375 Ry
     Harris-Foulkes estimate   =    -329.47703653 Ry
     estimated scf accuracy    <       0.00000865 Ry

     iteration #  6     ecut=    30.00 Ry     beta=0.70
     Davidson diagonalization with overlap
     ethr =  1.57E-08,  avg # of iterations =  2.0

     total cpu time spent up to now is        8.3 secs

     total energy              =    -329.47703552 Ry
     Harris-Foulkes estimate   =    -329.47703578 Ry
     estimated scf accuracy    <       0.00000032 Ry

     iteration #  7     ecut=    30.00 Ry     beta=0.70
     Davidson diagonalization with overlap
     ethr =  5.82E-10,  avg # of iterations =  3.0

     total cpu time spent up to now is        8.5 secs

     total energy              =    -329.47703558 Ry
     Harris-Foulkes estimate   =    -329.47703563 Ry
     estimated scf accuracy    <       0.00000009 Ry

     iteration #  8     ecut=    30.00 Ry     beta=0.70
     Davidson diagonalization with overlap
     ethr =  1.61E-10,  avg # of iterations =  2.0

     total cpu time spent up to now is        8.7 secs

     total energy              =    -329.47703564 Ry
     Harris-Foulkes estimate   =    -329.47703561 Ry
     estimated scf accuracy    <       0.00000002 Ry

     iteration #  9     ecut=    30.00 Ry     beta=0.70
     Davidson diagonalization with overlap
     ethr =  3.18E-11,  avg # of iterations =  2.0

     total cpu time spent up to now is        8.9 secs

     End of self-consistent calculation

          k = 0.0000 0.0000 0.0000 ( 22119 PWs)   bands (ev):

    -8.3854  -7.7255  -7.5572  -7.3437  -6.8863  -6.7671  -6.4994  -6.3671
    -6.2002  -6.0458  -5.9112  -5.7340  -5.6716  -5.5805  -5.5018  -5.4684
    -5.2756  -5.2335  -5.1889  -5.0852  -5.0778  -4.9984  -4.9251  -4.8763
    -4.7628  -4.5756  -4.2919  -3.8189  -2.4762  -2.0421  -0.4678  -0.2564
     0.3995   0.7065

     the Fermi energy is    -3.8263 ev

!    total energy              =    -329.47703564 Ry
     Harris-Foulkes estimate   =    -329.47703564 Ry
     estimated scf accuracy    <          2.5E-09 Ry

     The total energy is the sum of the following terms:

     one-electron contribution =    -602.46064079 Ry
     hartree contribution      =     322.79637994 Ry
     xc contribution           =     -51.43750403 Ry
     ewald contribution        =       1.62065277 Ry
     smearing contrib. (-TS)   =       0.00407647 Ry

     convergence has been achieved in   9 iterations

     Forces acting on atoms (Ry/au):

     atom    1 type  1   force =    -0.02809628    0.00664458    0.00125763
     atom    2 type  1   force =    -0.00334287    0.00214952   -0.00087531
     atom    3 type  1   force =     0.01347839   -0.01038542   -0.01683315
     atom    4 type  1   force =     0.00223504   -0.01146365   -0.00612265
     atom    5 type  1   force =     0.01572572    0.01305497    0.02257348

     Total force =     0.050257     Total SCF correction =     0.000182

     number of scf cycles    =   3
     number of bfgs steps    =   2

     energy   old            =    -329.4702927248 Ry
     energy   new            =    -329.4770356437 Ry

     CASE: energy  _new < energy  _old

     new trust radius        =       0.0866475804 bohr
     new conv_thr            =       0.0000000028 Ry


ATOMIC_POSITIONS (bohr)
Au      -2.173970222   0.999921355  -0.389802969
Au       0.299216595   3.368020785   3.604880153
Au       2.781709940   0.684278318  -0.029702397
Au       4.549457251   4.781295518   6.028232456
Au       6.769560435   1.126115025   3.003243757



     Writing output data file pwscf.save
     Check: negative starting charge=   -0.006229
     NEW-OLD atomic charge density approx. for the potential
     Check: negative starting charge=   -0.006207

     negative rho (up, down):  1.209E-03 0.000E+00

     total cpu time spent up to now is        9.2 secs

     per-process dynamical memory:    50.7 Mb

     Self-consistent Calculation

     iteration #  1     ecut=    30.00 Ry     beta=0.70
     Davidson diagonalization with overlap
     ethr =  1.00E-06,  avg # of iterations =  8.0

     negative rho (up, down):  9.017E-05 0.000E+00

     total cpu time spent up to now is        9.6 secs

     total energy              =    -329.48093321 Ry
     Harris-Foulkes estimate   =    -329.48038802 Ry
     estimated scf accuracy    <       0.00121350 Ry

     iteration #  2     ecut=    30.00 Ry     beta=0.70
     Davidson diagonalization with overlap
     ethr =  2.21E-06,  avg # of iterations =  5.0

     negative rho (up, down):  5.756E-05 0.000E+00

     total cpu time spent up to now is        9.9 secs

     total energy              =    -329.47983355 Ry
     Harris-Foulkes estimate   =    -329.48285084 Ry
     estimated scf accuracy    <       0.01226878 Ry

     iteration #  3     ecut=    30.00 Ry     beta=0.70
     Davidson diagonalization with overlap
     ethr =  2.21E-06,  avg # of iterations =  3.0

     negative rho (up, down):  2.969E-06 0.000E+00

     total cpu time spent up to now is       10.2 secs

     total energy              =    -329.48144114 Ry
     Harris-Foulkes estimate   =    -329.48153737 Ry
     estimated scf accuracy    <       0.00047614 Ry

     iteration #  4     ecut=    30.00 Ry     beta=0.70
     Davidson diagonalization with overlap
     ethr =  8.66E-07,  avg # of iterations =  2.0

     total cpu time spent up to now is       10.3 secs

     total energy              =    -329.48150299 Ry
     Harris-Foulkes estimate   =    -329.48152036 Ry
     estimated scf accuracy    <       0.00005890 Ry

     iteration #  5     ecut=    30.00 Ry     beta=0.70
     Davidson diagonalization with overlap
     ethr =  1.07E-07,  avg # of iterations =  2.0

     total cpu time spent up to now is       10.6 secs

     total energy              =    -329.48151671 Ry
     Harris-Foulkes estimate   =    -329.48152101 Ry
     estimated scf accuracy    <       0.00001285 Ry

     iteration #  6     ecut=    30.00 Ry     beta=0.70
     Davidson diagonalization with overlap
     ethr =  2.34E-08,  avg # of iterations =  2.0

     total cpu time spent up to now is       10.8 secs

     total energy              =    -329.48151967 Ry
     Harris-Foulkes estimate   =    -329.48151960 Ry
     estimated scf accuracy    <       0.00000050 Ry

     iteration #  7     ecut=    30.00 Ry     beta=0.70
     Davidson diagonalization with overlap
     ethr =  9.15E-10,  avg # of iterations =  3.0

     total cpu time spent up to now is       11.0 secs

     total energy              =    -329.48151957 Ry
     Harris-Foulkes estimate   =    -329.48151983 Ry
     estimated scf accuracy    <       0.00000011 Ry

     iteration #  8     ecut=    30.00 Ry     beta=0.70
     Davidson diagonalization with overlap
     ethr =  1.97E-10,  avg # of iterations =  3.0

     total cpu time spent up to now is       11.3 secs

     total energy              =    -329.48151960 Ry
     Harris-Foulkes estimate   =    -329.48151960 Ry
     estimated scf accuracy    <       0.00000003 Ry

     iteration #  9     ecut=    30.00 Ry     beta=0.70
     Davidson diagonalization with overlap
     ethr =  4.67E-11,  avg # of iterations =  2.0

     total cpu time spent up to now is       11.5 secs

     total energy              =    -329.48151962 Ry
     Harris-Foulkes estimate   =    -329.48151961 Ry
     estimated scf accuracy    <          4.2E-09 Ry

     iteration # 10     ecut=    30.00 Ry     beta=0.70
     Davidson diagonalization with overlap
     ethr =  7.65E-12,  avg # of iterations =  2.0

     total cpu time spent up to now is       11.7 secs

     End of self-consistent calculation

          k = 0.0000 0.0000 0.0000 ( 22119 PWs)   bands (ev):

    -8.2510  -7.5865  -7.5060  -7.2897  -6.9364  -6.6714  -6.4477  -6.3532
    -6.1766  -6.0777  -5.9229  -5.7026  -5.6400  -5.5826  -5.4931  -5.4749
    -5.2615  -5.2211  -5.1939  -5.0835  -5.0815  -5.0052  -4.9277  -4.8980
    -4.8178  -4.6047  -4.3248  -3.8032  -2.5153  -2.0892  -0.4589  -0.2562
     0.3774   0.6898

     the Fermi energy is    -3.8032 ev

!    total energy              =    -329.48151965 Ry
     Harris-Foulkes estimate   =    -329.48151962 Ry
     estimated scf accuracy    <          4.1E-10 Ry

     The total energy is the sum of the following terms:

     one-electron contribution =    -598.06202838 Ry
     hartree contribution      =     320.61105265 Ry
     xc contribution           =     -51.41373805 Ry
     ewald contribution        =      -0.61918306 Ry
     smearing contrib. (-TS)   =       0.00237720 Ry

     convergence has been achieved in  10 iterations

     Forces acting on atoms (Ry/au):

     atom    1 type  1   force =    -0.01263101    0.00765977    0.00471093
     atom    2 type  1   force =    -0.00206694   -0.00145890   -0.00665731
     atom    3 type  1   force =     0.01033632   -0.00638489   -0.00431350
     atom    4 type  1   force =     0.00167886   -0.00895347   -0.00433846
     atom    5 type  1   force =     0.00268276    0.00913749    0.01059834

     Total force =     0.027607     Total SCF correction =     0.000089

     number of scf cycles    =   4
     number of bfgs steps    =   3

     energy   old            =    -329.4770356437 Ry
     energy   new            =    -329.4815196524 Ry

     CASE: energy  _new < energy  _old

     new trust radius        =       0.0752635627 bohr
     new conv_thr            =       0.0000000013 Ry


ATOMIC_POSITIONS (bohr)
Au      -2.229538056   1.020434814  -0.381020495
Au       0.290970466   3.369262325   3.594227041
Au       2.800961884   0.659304669  -0.068312491
Au       4.554420159   4.752389026   6.013355357
Au       6.809159547   1.158240166   3.058601589



     Writing output data file pwscf.save
     Check: negative starting charge=   -0.006207
     NEW-OLD atomic charge density approx. for the potential
     Check: negative starting charge=   -0.006205

     negative rho (up, down):  1.029E-03 0.000E+00

     total cpu time spent up to now is       11.9 secs

     per-process dynamical memory:    50.7 Mb

     Self-consistent Calculation

     iteration #  1     ecut=    30.00 Ry     beta=0.70
     Davidson diagonalization with overlap
     ethr =  1.00E-06,  avg # of iterations =  6.0

     negative rho (up, down):  6.975E-05 0.000E+00

     total cpu time spent up to now is       12.3 secs

     total energy              =    -329.48287717 Ry
     Harris-Foulkes estimate   =    -329.48226175 Ry
     estimated scf accuracy    <       0.00083135 Ry

     iteration #  2     ecut=    30.00 Ry     beta=0.70
     Davidson diagonalization with overlap
     ethr =  1.51E-06,  avg # of iterations =  5.0

     negative rho (up, down):  4.036E-05 0.000E+00

     total cpu time spent up to now is       12.6 secs

     total energy              =    -329.48233271 Ry
     Harris-Foulkes estimate   =    -329.48391647 Ry
     estimated scf accuracy    <       0.00569186 Ry

     iteration #  3     ecut=    30.00 Ry     beta=0.70
     Davidson diagonalization with overlap
     ethr =  1.51E-06,  avg # of iterations =  3.0

     negative rho (up, down):  1.720E-06 0.000E+00

     total cpu time spent up to now is       12.9 secs

     total energy              =    -329.48318499 Ry
     Harris-Foulkes estimate   =    -329.48326975 Ry
     estimated scf accuracy    <       0.00039201 Ry

     iteration #  4     ecut=    30.00 Ry     beta=0.70
     Davidson diagonalization with overlap
     ethr =  7.13E-07,  avg # of iterations =  2.0

     total cpu time spent up to now is       13.0 secs

     total energy              =    -329.48324124 Ry
     Harris-Foulkes estimate   =    -329.48324775 Ry
     estimated scf accuracy    <       0.00003313 Ry

     iteration #  5     ecut=    30.00 Ry     beta=0.70
     Davidson diagonalization with overlap
     ethr =  6.02E-08,  avg # of iterations =  2.0

     total cpu time spent up to now is       13.3 secs

     total energy              =    -329.48325076 Ry
     Harris-Foulkes estimate   =    -329.48325324 Ry
     estimated scf accuracy    <       0.00001024 Ry

     iteration #  6     ecut=    30.00 Ry     beta=0.70
     Davidson diagonalization with overlap
     ethr =  1.86E-08,  avg # of iterations =  2.0

     total cpu time spent up to now is       13.5 secs

     total energy              =    -329.48325329 Ry
     Harris-Foulkes estimate   =    -329.48325306 Ry
     estimated scf accuracy    <       0.00000052 Ry

     iteration #  7     ecut=    30.00 Ry     beta=0.70
     Davidson diagonalization with overlap
     ethr =  9.46E-10,  avg # of iterations =  3.0

     total cpu time spent up to now is       13.7 secs

     total energy              =    -329.48325355 Ry
     Harris-Foulkes estimate   =    -329.48325343 Ry
     estimated scf accuracy    <       0.00000006 Ry

     iteration #  8     ecut=    30.00 Ry     beta=0.70
     Davidson diagonalization with overlap
     ethr =  1.12E-10,  avg # of iterations =  2.0

     total cpu time spent up to now is       14.0 secs

     total energy              =    -329.48325361 Ry
     Harris-Foulkes estimate   =    -329.48325357 Ry
     estimated scf accuracy    <       0.00000001 Ry

     iteration #  9     ecut=    30.00 Ry     beta=0.70
     Davidson diagonalization with overlap
     ethr =  2.37E-11,  avg # of iterations =  2.0

     total cpu time spent up to now is       14.2 secs

     total energy              =    -329.48325365 Ry
     Harris-Foulkes estimate   =    -329.48325361 Ry
     estimated scf accuracy    <          2.6E-09 Ry

     iteration # 10     ecut=    30.00 Ry     beta=0.70
     Davidson diagonalization with overlap
     ethr =  4.67E-12,  avg # of iterations =  2.0

     total cpu time spent up to now is       14.4 secs

     End of self-consistent calculation

          k = 0.0000 0.0000 0.0000 ( 22119 PWs)   bands (ev):

    -8.1630  -7.5002  -7.4678  -7.2774  -6.9862  -6.6083  -6.4303  -6.3453
    -6.1624  -6.1106  -5.9452  -5.6792  -5.6208  -5.5941  -5.4968  -5.4846
    -5.2538  -5.2125  -5.2055  -5.0855  -5.0824  -5.0164  -4.9350  -4.9170
    -4.8658  -4.6289  -4.3512  -3.7856  -2.5566  -2.1166  -0.4549  -0.2557
     0.3556   0.6788

     the Fermi energy is    -3.7765 ev

!    total energy              =    -329.48325364 Ry
     Harris-Foulkes estimate   =    -329.48325365 Ry
     estimated scf accuracy    <          4.5E-10 Ry

     The total energy is the sum of the following terms:

     one-electron contribution =    -595.19508843 Ry
     hartree contribution      =     319.17442839 Ry
     xc contribution           =     -51.39621457 Ry
     ewald contribution        =      -2.06691430 Ry
     smearing contrib. (-TS)   =       0.00053527 Ry

     convergence has been achieved in  10 iterations

     Forces acting on atoms (Ry/au):

     atom    1 type  1   force =    -0.00013861    0.00810352    0.00700847
     atom    2 type  1   force =    -0.00123859   -0.00327593   -0.00931061
     atom    3 type  1   force =     0.00530603   -0.00394685    0.00309447
     atom    4 type  1   force =    -0.00070880   -0.00526446   -0.00173708
     atom    5 type  1   force =    -0.00322004    0.00438373    0.00094475

     Total force =     0.018132     Total SCF correction =     0.000078

     number of scf cycles    =   5
     number of bfgs steps    =   4

     energy   old            =    -329.4815196524 Ry
     energy   new            =    -329.4832536365 Ry

     CASE: energy  _new < energy  _old

     new trust radius        =       0.0253770313 bohr
     new conv_thr            =       0.0000000009 Ry


ATOMIC_POSITIONS (bohr)
Au      -2.246216325   1.036033431  -0.370238334
Au       0.286965142   3.365993737   3.580449575
Au       2.811510094   0.646983476  -0.077300838
Au       4.554747380   4.737804834   6.007026371
Au       6.818967709   1.172815522   3.076914225



     Writing output data file pwscf.save
     Check: negative starting charge=   -0.006205
     NEW-OLD atomic charge density approx. for the potential
     Check: negative starting charge=   -0.006205

     negative rho (up, down):  1.775E-04 0.000E+00

     total cpu time spent up to now is       14.6 secs

     per-process dynamical memory:    50.7 Mb

     Self-consistent Calculation

     iteration #  1     ecut=    30.00 Ry     beta=0.70
     Davidson diagonalization with overlap
     ethr =  1.00E-06,  avg # of iterations =  4.0

     negative rho (up, down):  3.079E-06 0.000E+00

     total cpu time spent up to now is       15.0 secs

     total energy              =    -329.48364248 Ry
     Harris-Foulkes estimate   =    -329.48363083 Ry
     estimated scf accuracy    <       0.00012310 Ry

     iteration #  2     ecut=    30.00 Ry     beta=0.70
     Davidson diagonalization with overlap
     ethr =  2.24E-07,  avg # of iterations =  3.0

     negative rho (up, down):  9.891E-07 0.000E+00

     total cpu time spent up to now is       15.2 secs

     total energy              =    -329.48358952 Ry
     Harris-Foulkes estimate   =    -329.48376001 Ry
     estimated scf accuracy    <       0.00053176 Ry

     iteration #  3     ecut=    30.00 Ry     beta=0.70
     Davidson diagonalization with overlap
     ethr =  2.24E-07,  avg # of iterations =  3.0

     negative rho (up, down):  1.407E-08 0.000E+00

     total cpu time spent up to now is       15.5 secs

     total energy              =    -329.48367944 Ry
     Harris-Foulkes estimate   =    -329.48370182 Ry
     estimated scf accuracy    <       0.00009647 Ry

     iteration #  4     ecut=    30.00 Ry     beta=0.70
     Davidson diagonalization with overlap
     ethr =  1.75E-07,  avg # of iterations =  1.0

     total cpu time spent up to now is       15.7 secs

     total energy              =    -329.48369462 Ry
     Harris-Foulkes estimate   =    -329.48369418 Ry
     estimated scf accuracy    <       0.00000502 Ry

     iteration #  5     ecut=    30.00 Ry     beta=0.70
     Davidson diagonalization with overlap
     ethr =  9.12E-09,  avg # of iterations =  3.0

     total cpu time spent up to now is       15.9 secs

     total energy              =    -329.48369612 Ry
     Harris-Foulkes estimate   =    -329.48369670 Ry
     estimated scf accuracy    <       0.00000193 Ry

     iteration #  6     ecut=    30.00 Ry     beta=0.70
     Davidson diagonalization with overlap
     ethr =  3.51E-09,  avg # of iterations =  2.0

     total cpu time spent up to now is       16.1 secs

     total energy              =    -329.48369669 Ry
     Harris-Foulkes estimate   =    -329.48369652 Ry
     estimated scf accuracy    <       0.00000012 Ry

     iteration #  7     ecut=    30.00 Ry     beta=0.70
     Davidson diagonalization with overlap
     ethr =  2.18E-10,  avg # of iterations =  3.0

     total cpu time spent up to now is       16.3 secs

     total energy              =    -329.48369675 Ry
     Harris-Foulkes estimate   =    -329.48369673 Ry
     estimated scf accuracy    <       0.00000002 Ry

     iteration #  8     ecut=    30.00 Ry     beta=0.70
     Davidson diagonalization with overlap
     ethr =  2.80E-11,  avg # of iterations =  2.0

     total cpu time spent up to now is       16.6 secs

     total energy              =    -329.48369670 Ry
     Harris-Foulkes estimate   =    -329.48369675 Ry
     estimated scf accuracy    <          3.7E-09 Ry

     iteration #  9     ecut=    30.00 Ry     beta=0.70
     Davidson diagonalization with overlap
     ethr =  6.75E-12,  avg # of iterations =  3.0

     total cpu time spent up to now is       16.8 secs

     End of self-consistent calculation

          k = 0.0000 0.0000 0.0000 ( 22119 PWs)   bands (ev):

    -8.1511  -7.4901  -7.4590  -7.2856  -7.0083  -6.5979  -6.4293  -6.3483
    -6.1638  -6.1211  -5.9608  -5.6728  -5.6180  -5.6029  -5.5077  -5.4859
    -5.2512  -5.2135  -5.2067  -5.0852  -5.0805  -5.0204  -4.9363  -4.9231
    -4.8803  -4.6368  -4.3554  -3.7762  -2.5680  -2.1190  -0.4558  -0.2551
     0.3503   0.6784

     the Fermi energy is    -3.7640 ev

!    total energy              =    -329.48369674 Ry
     Harris-Foulkes estimate   =    -329.48369670 Ry
     estimated scf accuracy    <          8.6E-10 Ry

     The total energy is the sum of the following terms:

     one-electron contribution =    -594.99133821 Ry
     hartree contribution      =     319.06616845 Ry
     xc contribution           =     -51.39316772 Ry
     ewald contribution        =      -2.16524399 Ry
     smearing contrib. (-TS)   =      -0.00011528 Ry

     convergence has been achieved in   9 iterations

     Forces acting on atoms (Ry/au):

     atom    1 type  1   force =     0.00300736    0.00753775    0.00684052
     atom    2 type  1   force =    -0.00048906   -0.00301739   -0.00866974
     atom    3 type  1   force =     0.00338529   -0.00356512    0.00427243
     atom    4 type  1   force =    -0.00224034   -0.00324757   -0.00040769
     atom    5 type  1   force =    -0.00366325    0.00229233   -0.00203551

     Total force =     0.016677     Total SCF correction =     0.000121

     number of scf cycles    =   6
     number of bfgs steps    =   5

     energy   old            =    -329.4832536365 Ry
     energy   new            =    -329.4836967418 Ry

     CASE: energy  _new < energy  _old

     new trust radius        =       0.0279147344 bohr
     new conv_thr            =       0.0000000004 Ry


ATOMIC_POSITIONS (bohr)
Au      -2.255994283   1.056687966  -0.354206673
Au       0.283374255   3.360244304   3.560197583
Au       2.823300851   0.633109073  -0.079917898
Au       4.552149176   4.722956546   6.001782853
Au       6.823144000   1.186633111   3.088995134



     Writing output data file pwscf.save
     Check: negative starting charge=   -0.006205
     NEW-OLD atomic charge density approx. for the potential
     Check: negative starting charge=   -0.006206

     negative rho (up, down):  1.942E-04 0.000E+00

     total cpu time spent up to now is       17.0 secs

     per-process dynamical memory:    50.7 Mb

     Self-consistent Calculation

     iteration #  1     ecut=    30.00 Ry     beta=0.70
     Davidson diagonalization with overlap
     ethr =  1.00E-06,  avg # of iterations =  4.0

     negative rho (up, down):  3.649E-06 0.000E+00

     total cpu time spent up to now is       17.4 secs

     total energy              =    -329.48409981 Ry
     Harris-Foulkes estimate   =    -329.48407984 Ry
     estimated scf accuracy    <       0.00011871 Ry

     iteration #  2     ecut=    30.00 Ry     beta=0.70
     Davidson diagonalization with overlap
     ethr =  2.16E-07,  avg # of iterations =  3.0

     negative rho (up, down):  7.970E-07 0.000E+00

     total cpu time spent up to now is       17.6 secs

     total energy              =    -329.48407695 Ry
     Harris-Foulkes estimate   =    -329.48418105 Ry
     estimated scf accuracy    <       0.00027001 Ry

     iteration #  3     ecut=    30.00 Ry     beta=0.70
     Davidson diagonalization with overlap
     ethr =  2.16E-07,  avg # of iterations =  3.0

     negative rho (up, down):  2.537E-08 0.000E+00

     total cpu time spent up to now is       17.8 secs

     total energy              =    -329.48412405 Ry
     Harris-Foulkes estimate   =    -329.48415943 Ry
     estimated scf accuracy    <       0.00013804 Ry

     iteration #  4     ecut=    30.00 Ry     beta=0.70
     Davidson diagonalization with overlap
     ethr =  2.16E-07,  avg # of iterations =  1.0

     total cpu time spent up to now is       18.0 secs

     total energy              =    -329.48414381 Ry
     Harris-Foulkes estimate   =    -329.48414514 Ry
     estimated scf accuracy    <       0.00000690 Ry

     iteration #  5     ecut=    30.00 Ry     beta=0.70
     Davidson diagonalization with overlap
     ethr =  1.25E-08,  avg # of iterations =  3.0

     total cpu time spent up to now is       18.3 secs

     total energy              =    -329.48414553 Ry
     Harris-Foulkes estimate   =    -329.48414637 Ry
     estimated scf accuracy    <       0.00000231 Ry

     iteration #  6     ecut=    30.00 Ry     beta=0.70
     Davidson diagonalization with overlap
     ethr =  4.19E-09,  avg # of iterations =  2.0

     total cpu time spent up to now is       18.5 secs

     total energy              =    -329.48414597 Ry
     Harris-Foulkes estimate   =    -329.48414599 Ry
     estimated scf accuracy    <       0.00000014 Ry

     iteration #  7     ecut=    30.00 Ry     beta=0.70
     Davidson diagonalization with overlap
     ethr =  2.47E-10,  avg # of iterations =  3.0

     total cpu time spent up to now is       18.7 secs

     total energy              =    -329.48414594 Ry
     Harris-Foulkes estimate   =    -329.48414601 Ry
     estimated scf accuracy    <       0.00000002 Ry

     iteration #  8     ecut=    30.00 Ry     beta=0.70
     Davidson diagonalization with overlap
     ethr =  3.03E-11,  avg # of iterations =  3.0

     total cpu time spent up to now is       18.9 secs

     total energy              =    -329.48414588 Ry
     Harris-Foulkes estimate   =    -329.48414595 Ry
     estimated scf accuracy    <          4.7E-09 Ry

     iteration #  9     ecut=    30.00 Ry     beta=0.70
     Davidson diagonalization with overlap
     ethr =  8.54E-12,  avg # of iterations =  3.0

     total cpu time spent up to now is       19.2 secs

     total energy              =    -329.48414587 Ry
     Harris-Foulkes estimate   =    -329.48414588 Ry
     estimated scf accuracy    <          8.6E-10 Ry

     iteration # 10     ecut=    30.00 Ry     beta=0.70
     Davidson diagonalization with overlap
     ethr =  1.56E-12,  avg # of iterations =  3.0

     total cpu time spent up to now is       19.4 secs

     End of self-consistent calculation

          k = 0.0000 0.0000 0.0000 ( 22119 PWs)   bands (ev):

    -8.1584  -7.4935  -7.4623  -7.2983  -7.0306  -6.5997  -6.4296  -6.3557
    -6.1689  -6.1297  -5.9789  -5.6719  -5.6191  -5.6106  -5.5218  -5.4858
    -5.2490  -5.2187  -5.2031  -5.0836  -5.0771  -5.0223  -4.9348  -4.9261
    -4.8882  -4.6416  -4.3534  -3.7670  -2.5717  -2.1149  -0.4585  -0.2546
     0.3496   0.6817

     the Fermi energy is    -3.7529 ev

!    total energy              =    -329.48414587 Ry
     Harris-Foulkes estimate   =    -329.48414587 Ry
     estimated scf accuracy    <          2.0E-10 Ry

     The total energy is the sum of the following terms:

     one-electron contribution =    -595.56790660 Ry
     hartree contribution      =     319.34683896 Ry
     xc contribution           =     -51.39398953 Ry
     ewald contribution        =      -1.86857543 Ry
     smearing contrib. (-TS)   =      -0.00051328 Ry

     convergence has been achieved in  10 iterations

     Forces acting on atoms (Ry/au):

     atom    1 type  1   force =     0.00418364    0.00608405    0.00527231
     atom    2 type  1   force =     0.00071295   -0.00196704   -0.00652603
     atom    3 type  1   force =     0.00186843   -0.00351688    0.00420669
     atom    4 type  1   force =    -0.00372891   -0.00112831    0.00094919
     atom    5 type  1   force =    -0.00303611    0.00052819   -0.00390216

     Total force =     0.014270     Total SCF correction =     0.000051

     number of scf cycles    =   7
     number of bfgs steps    =   6

     energy   old            =    -329.4836967418 Ry
     energy   new            =    -329.4841458709 Ry

     CASE: energy  _new < energy  _old

     new trust radius        =       0.0418721017 bohr
     new conv_thr            =       0.0000000004 Ry


ATOMIC_POSITIONS (bohr)
Au      -2.259896743   1.089239320  -0.328159542
Au       0.280789027   3.350694129   3.527264572
Au       2.840032407   0.612196178  -0.075217854
Au       4.543274679   4.704777965   5.997595429
Au       6.821774630   1.202723408   3.095368395



     Writing output data file pwscf.save
     Check: negative starting charge=   -0.006206
     NEW-OLD atomic charge density approx. for the potential
     Check: negative starting charge=   -0.006203

     negative rho (up, down):  4.225E-04 0.000E+00

     total cpu time spent up to now is       19.6 secs

     per-process dynamical memory:    50.7 Mb

     Self-consistent Calculation

     iteration #  1     ecut=    30.00 Ry     beta=0.70
     Davidson diagonalization with overlap
     ethr =  1.00E-06,  avg # of iterations =  5.0

     negative rho (up, down):  1.569E-05 0.000E+00

     total cpu time spent up to now is       20.1 secs

     total energy              =    -329.48451620 Ry
     Harris-Foulkes estimate   =    -329.48437036 Ry
     estimated scf accuracy    <       0.00023139 Ry

     iteration #  2     ecut=    30.00 Ry     beta=0.70
     Davidson diagonalization with overlap
     ethr =  4.21E-07,  avg # of iterations =  3.0

     negative rho (up, down):  2.673E-06 0.000E+00

     total cpu time spent up to now is       20.3 secs

     total energy              =    -329.48452528 Ry
     Harris-Foulkes estimate   =    -329.48463787 Ry
     estimated scf accuracy    <       0.00024884 Ry

     iteration #  3     ecut=    30.00 Ry     beta=0.70
     Davidson diagonalization with overlap
     ethr =  4.21E-07,  avg # of iterations =  2.0

     negative rho (up, down):  2.261E-07 0.000E+00

     total cpu time spent up to now is       20.5 secs

     total energy              =    -329.48456002 Ry
     Harris-Foulkes estimate   =    -329.48462154 Ry
     estimated scf accuracy    <       0.00021085 Ry

     iteration #  4     ecut=    30.00 Ry     beta=0.70
     Davidson diagonalization with overlap
     ethr =  3.83E-07,  avg # of iterations =  1.0

     total cpu time spent up to now is       20.7 secs

     total energy              =    -329.48459418 Ry
     Harris-Foulkes estimate   =    -329.48460019 Ry
     estimated scf accuracy    <       0.00002693 Ry

     iteration #  5     ecut=    30.00 Ry     beta=0.70
     Davidson diagonalization with overlap
     ethr =  4.90E-08,  avg # of iterations =  2.0

     total cpu time spent up to now is       20.9 secs

     total energy              =    -329.48459868 Ry
     Harris-Foulkes estimate   =    -329.48460034 Ry
     estimated scf accuracy    <       0.00000413 Ry

     iteration #  6     ecut=    30.00 Ry     beta=0.70
     Davidson diagonalization with overlap
     ethr =  7.51E-09,  avg # of iterations =  2.0

     total cpu time spent up to now is       21.1 secs

     total energy              =    -329.48459937 Ry
     Harris-Foulkes estimate   =    -329.48459954 Ry
     estimated scf accuracy    <       0.00000019 Ry

     iteration #  7     ecut=    30.00 Ry     beta=0.70
     Davidson diagonalization with overlap
     ethr =  3.49E-10,  avg # of iterations =  3.0

     total cpu time spent up to now is       21.3 secs

     total energy              =    -329.48459924 Ry
     Harris-Foulkes estimate   =    -329.48459945 Ry
     estimated scf accuracy    <       0.00000004 Ry

     iteration #  8     ecut=    30.00 Ry     beta=0.70
     Davidson diagonalization with overlap
     ethr =  7.29E-11,  avg # of iterations =  3.0

     total cpu time spent up to now is       21.6 secs

     total energy              =    -329.48459924 Ry
     Harris-Foulkes estimate   =    -329.48459925 Ry
     estimated scf accuracy    <          9.5E-09 Ry

     iteration #  9     ecut=    30.00 Ry     beta=0.70
     Davidson diagonalization with overlap
     ethr =  1.72E-11,  avg # of iterations =  3.0

     total cpu time spent up to now is       21.8 secs

     total energy              =    -329.48459923 Ry
     Harris-Foulkes estimate   =    -329.48459924 Ry
     estimated scf accuracy    <          1.4E-09 Ry

     iteration # 10     ecut=    30.00 Ry     beta=0.70
     Davidson diagonalization with overlap
     ethr =  2.61E-12,  avg # of iterations =  3.0

     total cpu time spent up to now is       22.0 secs

     End of self-consistent calculation

          k = 0.0000 0.0000 0.0000 ( 22119 PWs)   bands (ev):

    -8.1901  -7.5120  -7.4822  -7.3172  -7.0587  -6.6171  -6.4300  -6.3685
    -6.1765  -6.1421  -6.0024  -5.6836  -5.6226  -5.6150  -5.5411  -5.4835
    -5.2486  -5.2223  -5.1990  -5.0798  -5.0712  -5.0213  -4.9318  -4.9223
    -4.8886  -4.6429  -4.3432  -3.7572  -2.5658  -2.1020  -0.4639  -0.2546
     0.3549   0.6912

     the Fermi energy is    -3.7427 ev

!    total energy              =    -329.48459923 Ry
     Harris-Foulkes estimate   =    -329.48459923 Ry
     estimated scf accuracy    <          2.8E-10 Ry

     The total energy is the sum of the following terms:

     one-electron contribution =    -597.19662853 Ry
     hartree contribution      =     320.15105063 Ry
     xc contribution           =     -51.39981185 Ry
     ewald contribution        =      -1.03857689 Ry
     smearing contrib. (-TS)   =      -0.00063259 Ry

     convergence has been achieved in  10 iterations

     Forces acting on atoms (Ry/au):

     atom    1 type  1   force =     0.00283028    0.00301460    0.00078251
     atom    2 type  1   force =     0.00295937    0.00042958   -0.00102927
     atom    3 type  1   force =     0.00034469   -0.00378070    0.00252894
     atom    4 type  1   force =    -0.00506365    0.00137820    0.00253531
     atom    5 type  1   force =    -0.00107068   -0.00104168   -0.00481750

     Total force =     0.010389     Total SCF correction =     0.000063

     number of scf cycles    =   8
     number of bfgs steps    =   7

     energy   old            =    -329.4841458709 Ry
     energy   new            =    -329.4845992258 Ry

     CASE: energy  _new < energy  _old

     new trust radius        =       0.0182512051 bohr
     new conv_thr            =       0.0000000005 Ry


ATOMIC_POSITIONS (bohr)
Au      -2.254147499   1.103470322  -0.318283750
Au       0.283976240   3.347369756   3.514392372
Au       2.846181337   0.601940718  -0.066922067
Au       4.534087393   4.701362524   5.999885726
Au       6.815876529   1.205487680   3.087778719



     Writing output data file pwscf.save
     Check: negative starting charge=   -0.006203
     NEW-OLD atomic charge density approx. for the potential
     Check: negative starting charge=   -0.006200

     negative rho (up, down):  6.578E-05 0.000E+00

     total cpu time spent up to now is       22.3 secs

     per-process dynamical memory:    50.7 Mb

     Self-consistent Calculation

     iteration #  1     ecut=    30.00 Ry     beta=0.70
     Davidson diagonalization with overlap
     ethr =  1.00E-06,  avg # of iterations =  4.0

     Threshold (ethr) on eigenvalues was too large:
     Diagonalizing with lowered threshold

     Davidson diagonalization with overlap
     ethr =  9.53E-08,  avg # of iterations =  1.0

     negative rho (up, down):  3.476E-07 0.000E+00

     total cpu time spent up to now is       22.8 secs

     total energy              =    -329.48475787 Ry
     Harris-Foulkes estimate   =    -329.48476059 Ry
     estimated scf accuracy    <       0.00005224 Ry

     iteration #  2     ecut=    30.00 Ry     beta=0.70
     Davidson diagonalization with overlap
     ethr =  9.50E-08,  avg # of iterations =  2.0

     negative rho (up, down):  1.726E-08 0.000E+00

     total cpu time spent up to now is       23.0 secs

     total energy              =    -329.48476087 Ry
     Harris-Foulkes estimate   =    -329.48478293 Ry
     estimated scf accuracy    <       0.00004729 Ry

     iteration #  3     ecut=    30.00 Ry     beta=0.70
     Davidson diagonalization with overlap
     ethr =  8.60E-08,  avg # of iterations =  2.0

     total cpu time spent up to now is       23.2 secs

     total energy              =    -329.48476667 Ry
     Harris-Foulkes estimate   =    -329.48478045 Ry
     estimated scf accuracy    <       0.00004830 Ry

     iteration #  4     ecut=    30.00 Ry     beta=0.70
     Davidson diagonalization with overlap
     ethr =  8.60E-08,  avg # of iterations =  1.0

     total cpu time spent up to now is       23.4 secs

     total energy              =    -329.48477363 Ry
     Harris-Foulkes estimate   =    -329.48477557 Ry
     estimated scf accuracy    <       0.00000533 Ry

     iteration #  5     ecut=    30.00 Ry     beta=0.70
     Davidson diagonalization with overlap
     ethr =  9.69E-09,  avg # of iterations =  2.0

     total cpu time spent up to now is       23.6 secs

     total energy              =    -329.48477422 Ry
     Harris-Foulkes estimate   =    -329.48477464 Ry
     estimated scf accuracy    <       0.00000050 Ry

     iteration #  6     ecut=    30.00 Ry     beta=0.70
     Davidson diagonalization with overlap
     ethr =  9.16E-10,  avg # of iterations =  2.0

     total cpu time spent up to now is       23.8 secs

     total energy              =    -329.48477419 Ry
     Harris-Foulkes estimate   =    -329.48477434 Ry
     estimated scf accuracy    <       0.00000004 Ry

     iteration #  7     ecut=    30.00 Ry     beta=0.70
     Davidson diagonalization with overlap
     ethr =  6.82E-11,  avg # of iterations =  2.0

     total cpu time spent up to now is       24.0 secs

     total energy              =    -329.48477406 Ry
     Harris-Foulkes estimate   =    -329.48477420 Ry
     estimated scf accuracy    <       0.00000001 Ry

     iteration #  8     ecut=    30.00 Ry     beta=0.70
     Davidson diagonalization with overlap
     ethr =  2.01E-11,  avg # of iterations =  2.0

     total cpu time spent up to now is       24.2 secs

     total energy              =    -329.48477404 Ry
     Harris-Foulkes estimate   =    -329.48477407 Ry
     estimated scf accuracy    <          1.1E-09 Ry

     iteration #  9     ecut=    30.00 Ry     beta=0.70
     Davidson diagonalization with overlap
     ethr =  2.00E-12,  avg # of iterations =  2.0

     total cpu time spent up to now is       24.4 secs

     End of self-consistent calculation

          k = 0.0000 0.0000 0.0000 ( 22119 PWs)   bands (ev):

    -8.2130  -7.5272  -7.4979  -7.3251  -7.0643  -6.6309  -6.4300  -6.3733
    -6.1750  -6.1511  -6.0069  -5.6923  -5.6249  -5.6145  -5.5461  -5.4805
    -5.2510  -5.2196  -5.2000  -5.0774  -5.0687  -5.0172  -4.9277  -4.9160
    -4.8816  -4.6386  -4.3348  -3.7586  -2.5541  -2.0929  -0.4669  -0.2560
     0.3620   0.6991

     the Fermi energy is    -3.7459 ev

!    total energy              =    -329.48477399 Ry
     Harris-Foulkes estimate   =    -329.48477404 Ry
     estimated scf accuracy    <          2.8E-10 Ry

     The total energy is the sum of the following terms:

     one-electron contribution =    -598.28735149 Ry
     hartree contribution      =     320.69461874 Ry
     xc contribution           =     -51.40500634 Ry
     ewald contribution        =      -0.48674824 Ry
     smearing contrib. (-TS)   =      -0.00028667 Ry

     convergence has been achieved in   9 iterations

     Forces acting on atoms (Ry/au):

     atom    1 type  1   force =     0.00123071    0.00183366   -0.00138780
     atom    2 type  1   force =     0.00346199    0.00163968    0.00140390
     atom    3 type  1   force =    -0.00040611   -0.00422235    0.00060993
     atom    4 type  1   force =    -0.00449934    0.00146056    0.00274507
     atom    5 type  1   force =     0.00021275   -0.00071155   -0.00337110

     Total force =     0.009146     Total SCF correction =     0.000071

     number of scf cycles    =   9
     number of bfgs steps    =   8

     energy   old            =    -329.4845992258 Ry
     energy   new            =    -329.4847739903 Ry

     CASE: energy  _new < energy  _old

     new trust radius        =       0.0184476081 bohr
     new conv_thr            =       0.0000000002 Ry


ATOMIC_POSITIONS (bohr)
Au      -2.244542395   1.118039048  -0.312299734
Au       0.292609158   3.346883327   3.505616863
Au       2.850494956   0.587445280  -0.056460435
Au       4.519227168   4.701576689   6.006761041
Au       6.808185113   1.205686655   3.073233265



     Writing output data file pwscf.save
     Check: negative starting charge=   -0.006200
     NEW-OLD atomic charge density approx. for the potential
     Check: negative starting charge=   -0.006201

     negative rho (up, down):  1.088E-04 0.000E+00

     total cpu time spent up to now is       24.8 secs

     per-process dynamical memory:    50.7 Mb

     Self-consistent Calculation

     iteration #  1     ecut=    30.00 Ry     beta=0.70
     Davidson diagonalization with overlap
     ethr =  1.00E-06,  avg # of iterations =  4.0

     negative rho (up, down):  1.017E-06 0.000E+00

     total cpu time spent up to now is       25.1 secs

     total energy              =    -329.48491102 Ry
     Harris-Foulkes estimate   =    -329.48492286 Ry
     estimated scf accuracy    <       0.00009103 Ry

     iteration #  2     ecut=    30.00 Ry     beta=0.70
     Davidson diagonalization with overlap
     ethr =  1.66E-07,  avg # of iterations =  2.0

     negative rho (up, down):  1.142E-07 0.000E+00

     total cpu time spent up to now is       25.3 secs

     total energy              =    -329.48490437 Ry
     Harris-Foulkes estimate   =    -329.48496545 Ry
     estimated scf accuracy    <       0.00013991 Ry

     iteration #  3     ecut=    30.00 Ry     beta=0.70
     Davidson diagonalization with overlap
     ethr =  1.66E-07,  avg # of iterations =  2.0

     total cpu time spent up to now is       25.6 secs

     total energy              =    -329.48492483 Ry
     Harris-Foulkes estimate   =    -329.48495737 Ry
     estimated scf accuracy    <       0.00012841 Ry

     iteration #  4     ecut=    30.00 Ry     beta=0.70
     Davidson diagonalization with overlap
     ethr =  1.66E-07,  avg # of iterations =  1.0

     total cpu time spent up to now is       25.7 secs

     total energy              =    -329.48494069 Ry
     Harris-Foulkes estimate   =    -329.48494319 Ry
     estimated scf accuracy    <       0.00000482 Ry

     iteration #  5     ecut=    30.00 Ry     beta=0.70
     Davidson diagonalization with overlap
     ethr =  8.76E-09,  avg # of iterations =  3.0

     total cpu time spent up to now is       26.0 secs

     total energy              =    -329.48494136 Ry
     Harris-Foulkes estimate   =    -329.48494251 Ry
     estimated scf accuracy    <       0.00000220 Ry

     iteration #  6     ecut=    30.00 Ry     beta=0.70
     Davidson diagonalization with overlap
     ethr =  4.00E-09,  avg # of iterations =  2.0

     total cpu time spent up to now is       26.2 secs

     total energy              =    -329.48494164 Ry
     Harris-Foulkes estimate   =    -329.48494177 Ry
     estimated scf accuracy    <       0.00000013 Ry

     iteration #  7     ecut=    30.00 Ry     beta=0.70
     Davidson diagonalization with overlap
     ethr =  2.28E-10,  avg # of iterations =  3.0

     total cpu time spent up to now is       26.4 secs

     total energy              =    -329.48494146 Ry
     Harris-Foulkes estimate   =    -329.48494167 Ry
     estimated scf accuracy    <       0.00000001 Ry

     iteration #  8     ecut=    30.00 Ry     beta=0.70
     Davidson diagonalization with overlap
     ethr =  2.62E-11,  avg # of iterations =  2.0

     total cpu time spent up to now is       26.6 secs

     total energy              =    -329.48494141 Ry
     Harris-Foulkes estimate   =    -329.48494146 Ry
     estimated scf accuracy    <          2.8E-09 Ry

     iteration #  9     ecut=    30.00 Ry     beta=0.70
     Davidson diagonalization with overlap
     ethr =  5.15E-12,  avg # of iterations =  3.0

     total cpu time spent up to now is       26.9 secs

     total energy              =    -329.48494143 Ry
     Harris-Foulkes estimate   =    -329.48494141 Ry
     estimated scf accuracy    <          1.2E-09 Ry

     iteration # 10     ecut=    30.00 Ry     beta=0.70
     Davidson diagonalization with overlap
     ethr =  2.19E-12,  avg # of iterations =  2.0

     total cpu time spent up to now is       27.1 secs

     End of self-consistent calculation

          k = 0.0000 0.0000 0.0000 ( 22119 PWs)   bands (ev):

    -8.2351  -7.5467  -7.5134  -7.3290  -7.0600  -6.6443  -6.4295  -6.3764
    -6.1743  -6.1559  -6.0048  -5.7004  -5.6272  -5.6118  -5.5472  -5.4749
    -5.2552  -5.2142  -5.2036  -5.0753  -5.0675  -5.0103  -4.9221  -4.9067
    -4.8702  -4.6304  -4.3263  -3.7664  -2.5372  -2.0832  -0.4696  -0.2593
     0.3718   0.7095

     the Fermi energy is    -3.7569 ev

!    total energy              =    -329.48494142 Ry
     Harris-Foulkes estimate   =    -329.48494143 Ry
     estimated scf accuracy    <          9.3E-11 Ry

     The total energy is the sum of the following terms:

     one-electron contribution =    -599.33847383 Ry
     hartree contribution      =     321.22181668 Ry
     xc contribution           =     -51.41086394 Ry
     ewald contribution        =       0.04222185 Ry
     smearing contrib. (-TS)   =       0.00035783 Ry

     convergence has been achieved in  10 iterations

     Forces acting on atoms (Ry/au):

     atom    1 type  1   force =    -0.00026383    0.00106233   -0.00296868
     atom    2 type  1   force =     0.00295436    0.00220736    0.00255472
     atom    3 type  1   force =    -0.00146150   -0.00453431   -0.00171687
     atom    4 type  1   force =    -0.00262262    0.00077322    0.00269364
     atom    5 type  1   force =     0.00139359    0.00049140   -0.00056281

     Total force =     0.008545     Total SCF correction =     0.000047

     number of scf cycles    =  10
     number of bfgs steps    =   9

     energy   old            =    -329.4847739903 Ry
     energy   new            =    -329.4849414240 Ry

     CASE: energy  _new < energy  _old

     new trust radius        =       0.0183871432 bohr
     new conv_thr            =       0.0000000002 Ry


ATOMIC_POSITIONS (bohr)
Au      -2.238771622   1.131220146  -0.311260814
Au       0.302682234   3.349303060   3.501685505
Au       2.852154658   0.569737927  -0.051793308
Au       4.504748729   4.701937860   6.015227817
Au       6.805160001   1.207432006   3.062991800



     Writing output data file pwscf.save
     Check: negative starting charge=   -0.006201
     NEW-OLD atomic charge density approx. for the potential
     Check: negative starting charge=   -0.006205

     negative rho (up, down):  7.910E-05 0.000E+00

     total cpu time spent up to now is       27.3 secs

     per-process dynamical memory:    50.7 Mb

     Self-consistent Calculation

     iteration #  1     ecut=    30.00 Ry     beta=0.70
     Davidson diagonalization with overlap
     ethr =  1.00E-06,  avg # of iterations =  4.0

     negative rho (up, down):  5.269E-07 0.000E+00

     total cpu time spent up to now is       27.6 secs

     total energy              =    -329.48504115 Ry
     Harris-Foulkes estimate   =    -329.48506353 Ry
     estimated scf accuracy    <       0.00008368 Ry

     iteration #  2     ecut=    30.00 Ry     beta=0.70
     Davidson diagonalization with overlap
     ethr =  1.52E-07,  avg # of iterations =  2.0

     negative rho (up, down):  2.574E-08 0.000E+00

     total cpu time spent up to now is       27.9 secs

     total energy              =    -329.48505084 Ry
     Harris-Foulkes estimate   =    -329.48508652 Ry
     estimated scf accuracy    <       0.00007343 Ry

     iteration #  3     ecut=    30.00 Ry     beta=0.70
     Davidson diagonalization with overlap
     ethr =  1.34E-07,  avg # of iterations =  2.0

     total cpu time spent up to now is       28.1 secs

     total energy              =    -329.48506008 Ry
     Harris-Foulkes estimate   =    -329.48507620 Ry
     estimated scf accuracy    <       0.00005237 Ry

     iteration #  4     ecut=    30.00 Ry     beta=0.70
     Davidson diagonalization with overlap
     ethr =  9.52E-08,  avg # of iterations =  1.0

     total cpu time spent up to now is       28.3 secs

     total energy              =    -329.48506772 Ry
     Harris-Foulkes estimate   =    -329.48507113 Ry
     estimated scf accuracy    <       0.00001057 Ry

     iteration #  5     ecut=    30.00 Ry     beta=0.70
     Davidson diagonalization with overlap
     ethr =  1.92E-08,  avg # of iterations =  2.0

     total cpu time spent up to now is       28.5 secs

     total energy              =    -329.48506869 Ry
     Harris-Foulkes estimate   =    -329.48506984 Ry
     estimated scf accuracy    <       0.00000183 Ry

     iteration #  6     ecut=    30.00 Ry     beta=0.70
     Davidson diagonalization with overlap
     ethr =  3.33E-09,  avg # of iterations =  2.0

     total cpu time spent up to now is       28.6 secs

     total energy              =    -329.48506888 Ry
     Harris-Foulkes estimate   =    -329.48506905 Ry
     estimated scf accuracy    <       0.00000006 Ry

     iteration #  7     ecut=    30.00 Ry     beta=0.70
     Davidson diagonalization with overlap
     ethr =  1.18E-10,  avg # of iterations =  3.0

     total cpu time spent up to now is       28.9 secs

     total energy              =    -329.48506876 Ry
     Harris-Foulkes estimate   =    -329.48506891 Ry
     estimated scf accuracy    <          8.9E-09 Ry

     iteration #  8     ecut=    30.00 Ry     beta=0.70
     Davidson diagonalization with overlap
     ethr =  1.61E-11,  avg # of iterations =  3.0

     total cpu time spent up to now is       29.1 secs

     total energy              =    -329.48506873 Ry
     Harris-Foulkes estimate   =    -329.48506877 Ry
     estimated scf accuracy    <          3.0E-09 Ry

     iteration #  9     ecut=    30.00 Ry     beta=0.70
     Davidson diagonalization with overlap
     ethr =  5.50E-12,  avg # of iterations =  2.0

     total cpu time spent up to now is       29.4 secs

     total energy              =    -329.48506868 Ry
     Harris-Foulkes estimate   =    -329.48506873 Ry
     estimated scf accuracy    <          3.7E-10 Ry

     iteration # 10     ecut=    30.00 Ry     beta=0.70
     Davidson diagonalization with overlap
     ethr =  6.77E-13,  avg # of iterations =  2.0

     total cpu time spent up to now is       29.6 secs

     End of self-consistent calculation

          k = 0.0000 0.0000 0.0000 ( 22119 PWs)   bands (ev):

    -8.2437  -7.5600  -7.5179  -7.3260  -7.0504  -6.6494  -6.4277  -6.3763
    -6.1819  -6.1487  -5.9997  -5.7047  -5.6270  -5.6080  -5.5462  -5.4690
    -5.2588  -5.2125  -5.2050  -5.0745  -5.0679  -5.0049  -4.9189  -4.8995
    -4.8618  -4.6235  -4.3233  -3.7754  -2.5259  -2.0784  -0.4708  -0.2629
     0.3789   0.7177

     the Fermi energy is    -3.7685 ev

!    total energy              =    -329.48506865 Ry
     Harris-Foulkes estimate   =    -329.48506868 Ry
     estimated scf accuracy    <          6.0E-11 Ry

     The total energy is the sum of the following terms:

     one-electron contribution =    -599.73127754 Ry
     hartree contribution      =     321.42158927 Ry
     xc contribution           =     -51.41379896 Ry
     ewald contribution        =       0.23752960 Ry
     smearing contrib. (-TS)   =       0.00088897 Ry

     convergence has been achieved in  10 iterations

     Forces acting on atoms (Ry/au):

     atom    1 type  1   force =    -0.00079467    0.00080811   -0.00350964
     atom    2 type  1   force =     0.00192138    0.00172022    0.00207188
     atom    3 type  1   force =    -0.00230498   -0.00424192   -0.00265709
     atom    4 type  1   force =    -0.00042779    0.00017022    0.00271049
     atom    5 type  1   force =     0.00160605    0.00154337    0.00138436

     Total force =     0.008328     Total SCF correction =     0.000039

     number of scf cycles    =  11
     number of bfgs steps    =  10

     energy   old            =    -329.4849414240 Ry
     energy   new            =    -329.4850686532 Ry

     CASE: energy  _new < energy  _old

     new trust radius        =       0.0202258575 bohr
     new conv_thr            =       0.0000000001 Ry


ATOMIC_POSITIONS (bohr)
Au      -2.236523440   1.144637826  -0.312626117
Au       0.312496345   3.352581655   3.498897967
Au       2.852248118   0.549513907  -0.051537218
Au       4.492106211   4.701137156   6.024460486
Au       6.805646767   1.211760456   3.057655881



     Writing output data file pwscf.save
     Check: negative starting charge=   -0.006205
     NEW-OLD atomic charge density approx. for the potential
     Check: negative starting charge=   -0.006211

     negative rho (up, down):  7.435E-05 0.000E+00

     total cpu time spent up to now is       29.8 secs

     per-process dynamical memory:    50.7 Mb

     Self-consistent Calculation

     iteration #  1     ecut=    30.00 Ry     beta=0.70
     Davidson diagonalization with overlap
     ethr =  1.00E-06,  avg # of iterations =  4.0

     negative rho (up, down):  4.467E-07 0.000E+00

     total cpu time spent up to now is       30.2 secs

     total energy              =    -329.48516038 Ry
     Harris-Foulkes estimate   =    -329.48518857 Ry
     estimated scf accuracy    <       0.00008670 Ry

     iteration #  2     ecut=    30.00 Ry     beta=0.70
     Davidson diagonalization with overlap
     ethr =  1.58E-07,  avg # of iterations =  3.0

     negative rho (up, down):  1.756E-08 0.000E+00

     total cpu time spent up to now is       30.4 secs

     total energy              =    -329.48517675 Ry
     Harris-Foulkes estimate   =    -329.48520720 Ry
     estimated scf accuracy    <       0.00006241 Ry

     iteration #  3     ecut=    30.00 Ry     beta=0.70
     Davidson diagonalization with overlap
     ethr =  1.13E-07,  avg # of iterations =  2.0

     total cpu time spent up to now is       30.6 secs

     total energy              =    -329.48518788 Ry
     Harris-Foulkes estimate   =    -329.48519216 Ry
     estimated scf accuracy    <       0.00000760 Ry

     iteration #  4     ecut=    30.00 Ry     beta=0.70
     Davidson diagonalization with overlap
     ethr =  1.38E-08,  avg # of iterations =  2.0

     total cpu time spent up to now is       30.8 secs

     total energy              =    -329.48518777 Ry
     Harris-Foulkes estimate   =    -329.48519340 Ry
     estimated scf accuracy    <       0.00002046 Ry

     iteration #  5     ecut=    30.00 Ry     beta=0.70
     Davidson diagonalization with overlap
     ethr =  1.38E-08,  avg # of iterations =  2.0

     total cpu time spent up to now is       31.0 secs

     total energy              =    -329.48519005 Ry
     Harris-Foulkes estimate   =    -329.48519116 Ry
     estimated scf accuracy    <       0.00000289 Ry

     iteration #  6     ecut=    30.00 Ry     beta=0.70
     Davidson diagonalization with overlap
     ethr =  5.25E-09,  avg # of iterations =  2.0

     total cpu time spent up to now is       31.2 secs

     total energy              =    -329.48519035 Ry
     Harris-Foulkes estimate   =    -329.48519048 Ry
     estimated scf accuracy    <       0.00000005 Ry

     iteration #  7     ecut=    30.00 Ry     beta=0.70
     Davidson diagonalization with overlap
     ethr =  9.60E-11,  avg # of iterations =  3.0

     total cpu time spent up to now is       31.5 secs

     total energy              =    -329.48519024 Ry
     Harris-Foulkes estimate   =    -329.48519038 Ry
     estimated scf accuracy    <       0.00000001 Ry

     iteration #  8     ecut=    30.00 Ry     beta=0.70
     Davidson diagonalization with overlap
     ethr =  1.83E-11,  avg # of iterations =  2.0

     total cpu time spent up to now is       31.7 secs

     total energy              =    -329.48519026 Ry
     Harris-Foulkes estimate   =    -329.48519024 Ry
     estimated scf accuracy    <          1.7E-09 Ry

     iteration #  9     ecut=    30.00 Ry     beta=0.70
     Davidson diagonalization with overlap
     ethr =  3.14E-12,  avg # of iterations =  3.0

     total cpu time spent up to now is       31.9 secs

     total energy              =    -329.48519026 Ry
     Harris-Foulkes estimate   =    -329.48519026 Ry
     estimated scf accuracy    <          2.8E-10 Ry

     iteration # 10     ecut=    30.00 Ry     beta=0.70
     Davidson diagonalization with overlap
     ethr =  5.11E-13,  avg # of iterations =  2.0

     total cpu time spent up to now is       32.1 secs

     End of self-consistent calculation

          k = 0.0000 0.0000 0.0000 ( 22119 PWs)   bands (ev):

    -8.2444  -7.5674  -7.5147  -7.3187  -7.0407  -6.6499  -6.4248  -6.3742
    -6.1886  -6.1409  -5.9942  -5.7067  -5.6252  -5.6042  -5.5452  -5.4634
    -5.2615  -5.2150  -5.2026  -5.0745  -5.0688  -5.0015  -4.9178  -4.8947
    -4.8565  -4.6187  -4.3241  -3.7831  -2.5197  -2.0769  -0.4712  -0.2662
     0.3835   0.7237

     the Fermi energy is    -3.7779 ev

!    total energy              =    -329.48519026 Ry
     Harris-Foulkes estimate   =    -329.48519026 Ry
     estimated scf accuracy    <          3.6E-11 Ry

     The total energy is the sum of the following terms:

     one-electron contribution =    -599.69607659 Ry
     hartree contribution      =     321.40760550 Ry
     xc contribution           =     -51.41460348 Ry
     ewald contribution        =       0.21662588 Ry
     smearing contrib. (-TS)   =       0.00125843 Ry

     convergence has been achieved in  10 iterations

     Forces acting on atoms (Ry/au):

     atom    1 type  1   force =    -0.00073581    0.00072126   -0.00352922
     atom    2 type  1   force =     0.00093283    0.00080615    0.00097802
     atom    3 type  1   force =    -0.00290288   -0.00355583   -0.00245417
     atom    4 type  1   force =     0.00161698   -0.00021731    0.00271131
     atom    5 type  1   force =     0.00108888    0.00224574    0.00229405

     Total force =     0.008037     Total SCF correction =     0.000026

     number of scf cycles    =  12
     number of bfgs steps    =  11

     energy   old            =    -329.4850686532 Ry
     energy   new            =    -329.4851902643 Ry

     CASE: energy  _new < energy  _old

     new trust radius        =       0.0303387863 bohr
     new conv_thr            =       0.0000000001 Ry


ATOMIC_POSITIONS (bohr)
Au      -2.236156108   1.163724433  -0.316853604
Au       0.325340940   3.356997957   3.494857216
Au       2.850311193   0.519373626  -0.054410153
Au       4.477919793   4.698780990   6.038410928
Au       6.808558182   1.220753994   3.054846614



     Writing output data file pwscf.save
     Check: negative starting charge=   -0.006211
     NEW-OLD atomic charge density approx. for the potential
     Check: negative starting charge=   -0.006218

     negative rho (up, down):  1.814E-04 0.000E+00

     total cpu time spent up to now is       32.4 secs

     per-process dynamical memory:    50.7 Mb

     Self-consistent Calculation

     iteration #  1     ecut=    30.00 Ry     beta=0.70
     Davidson diagonalization with overlap
     ethr =  1.00E-06,  avg # of iterations =  4.0

     negative rho (up, down):  2.928E-06 0.000E+00

     total cpu time spent up to now is       32.7 secs

     total energy              =    -329.48527005 Ry
     Harris-Foulkes estimate   =    -329.48530559 Ry
     estimated scf accuracy    <       0.00018030 Ry

[...]

     total energy              =    -329.49359587 Ry
     Harris-Foulkes estimate   =    -329.49359624 Ry
     estimated scf accuracy    <       0.00020231 Ry

     iteration #  2     ecut=    30.00 Ry     beta=0.70
     Davidson diagonalization with overlap
     ethr =  3.68E-07,  avg # of iterations =  3.0

     negative rho (up, down):  6.209E-07 0.000E+00

     total cpu time spent up to now is      126.7 secs

     total energy              =    -329.49361868 Ry
     Harris-Foulkes estimate   =    -329.49371049 Ry
     estimated scf accuracy    <       0.00018674 Ry

     iteration #  3     ecut=    30.00 Ry     beta=0.70
     Davidson diagonalization with overlap
     ethr =  3.40E-07,  avg # of iterations =  2.0

     negative rho (up, down):  2.029E-08 0.000E+00

     total cpu time spent up to now is      127.0 secs

     total energy              =    -329.49365647 Ry
     Harris-Foulkes estimate   =    -329.49367736 Ry
     estimated scf accuracy    <       0.00005585 Ry

     iteration #  4     ecut=    30.00 Ry     beta=0.70
     Davidson diagonalization with overlap
     ethr =  1.02E-07,  avg # of iterations =  2.0

     total cpu time spent up to now is      127.2 secs

     total energy              =    -329.49366853 Ry
     Harris-Foulkes estimate   =    -329.49367167 Ry
     estimated scf accuracy    <       0.00000965 Ry

     iteration #  5     ecut=    30.00 Ry     beta=0.70
     Davidson diagonalization with overlap
     ethr =  1.75E-08,  avg # of iterations =  2.0

     total cpu time spent up to now is      127.4 secs

     total energy              =    -329.49367009 Ry
     Harris-Foulkes estimate   =    -329.49367066 Ry
     estimated scf accuracy    <       0.00000147 Ry

     iteration #  6     ecut=    30.00 Ry     beta=0.70
     Davidson diagonalization with overlap
     ethr =  2.67E-09,  avg # of iterations =  2.0

     total cpu time spent up to now is      127.6 secs

     total energy              =    -329.49367061 Ry
     Harris-Foulkes estimate   =    -329.49367043 Ry
     estimated scf accuracy    <       0.00000008 Ry

     iteration #  7     ecut=    30.00 Ry     beta=0.70
     Davidson diagonalization with overlap
     ethr =  1.53E-10,  avg # of iterations =  3.0

     total cpu time spent up to now is      127.8 secs

     total energy              =    -329.49367060 Ry
     Harris-Foulkes estimate   =    -329.49367065 Ry
     estimated scf accuracy    <       0.00000003 Ry

     iteration #  8     ecut=    30.00 Ry     beta=0.70
     Davidson diagonalization with overlap
     ethr =  5.51E-11,  avg # of iterations =  2.0

     total cpu time spent up to now is      128.0 secs

     total energy              =    -329.49367065 Ry
     Harris-Foulkes estimate   =    -329.49367061 Ry
     estimated scf accuracy    <          7.7E-09 Ry

     iteration #  9     ecut=    30.00 Ry     beta=0.70
     Davidson diagonalization with overlap
     ethr =  1.40E-11,  avg # of iterations =  2.0

     total cpu time spent up to now is      128.2 secs

     total energy              =    -329.49367069 Ry
     Harris-Foulkes estimate   =    -329.49367065 Ry
     estimated scf accuracy    <          5.6E-10 Ry

     iteration # 10     ecut=    30.00 Ry     beta=0.70
     Davidson diagonalization with overlap
     ethr =  1.02E-12,  avg # of iterations =  3.0

     total cpu time spent up to now is      128.4 secs

     End of self-consistent calculation

          k = 0.0000 0.0000 0.0000 ( 22119 PWs)   bands (ev):

    -8.4923  -7.7758  -7.6508  -7.2421  -6.8592  -6.8035  -6.6168  -6.4712
    -6.3165  -6.0618  -5.9541  -5.7600  -5.7215  -5.6753  -5.4464  -5.3534
    -5.3095  -5.2415  -5.1918  -5.1786  -5.1625  -5.1192  -4.9921  -4.9137
    -4.8367  -4.7285  -4.4748  -3.7527  -2.3886  -2.2170  -0.5116  -0.1855
     0.3887   0.7183

     the Fermi energy is    -3.7174 ev

!    total energy              =    -329.49367066 Ry
     Harris-Foulkes estimate   =    -329.49367069 Ry
     estimated scf accuracy    <          6.3E-11 Ry

     The total energy is the sum of the following terms:

     one-electron contribution =    -603.43335964 Ry
     hartree contribution      =     323.15955222 Ry
     xc contribution           =     -51.39862147 Ry
     ewald contribution        =       2.18375010 Ry
     smearing contrib. (-TS)   =      -0.00499188 Ry

     convergence has been achieved in  10 iterations

     Forces acting on atoms (Ry/au):

     atom    1 type  1   force =    -0.00071043   -0.00070781    0.00098206
     atom    2 type  1   force =    -0.00182898    0.00095849   -0.00090800
     atom    3 type  1   force =     0.00142786   -0.00069904   -0.00126886
     atom    4 type  1   force =     0.00096616    0.00088829    0.00089264
     atom    5 type  1   force =     0.00014540   -0.00043993    0.00030216

     Total force =     0.003744     Total SCF correction =     0.000040

     number of scf cycles    =  48
     number of bfgs steps    =  46

     energy   old            =    -329.4935949209 Ry
     energy   new            =    -329.4936706636 Ry

     CASE: energy  _new < energy  _old

     new trust radius        =       0.0167794107 bohr
     new conv_thr            =            1.0E-10 Ry


ATOMIC_POSITIONS (bohr)
Au      -2.037526805   1.477734253  -0.329170038
Au       0.982344508   3.289453500   3.296596109
Au       2.778687794  -0.307837954  -0.439050723
Au       4.409852639   4.924718810   6.628085135
Au       6.092615865   1.575562391   3.060390518



     Writing output data file pwscf.save
     Check: negative starting charge=   -0.006140
     NEW-OLD atomic charge density approx. for the potential
     Check: negative starting charge=   -0.006131

     negative rho (up, down):  3.493E-05 0.000E+00

     total cpu time spent up to now is      128.7 secs

     per-process dynamical memory:    50.7 Mb

     Self-consistent Calculation

     iteration #  1     ecut=    30.00 Ry     beta=0.70
     Davidson diagonalization with overlap
     ethr =  1.00E-06,  avg # of iterations =  4.0

     Threshold (ethr) on eigenvalues was too large:
     Diagonalizing with lowered threshold

     Davidson diagonalization with overlap
     ethr =  8.59E-08,  avg # of iterations =  1.0

     negative rho (up, down):  1.365E-07 0.000E+00

     total cpu time spent up to now is      129.2 secs

     total energy              =    -329.49367532 Ry
     Harris-Foulkes estimate   =    -329.49368675 Ry
     estimated scf accuracy    <       0.00004739 Ry

     iteration #  2     ecut=    30.00 Ry     beta=0.70
     Davidson diagonalization with overlap
     ethr =  8.62E-08,  avg # of iterations =  2.0

     total cpu time spent up to now is      129.4 secs

     total energy              =    -329.49367722 Ry
     Harris-Foulkes estimate   =    -329.49370519 Ry
     estimated scf accuracy    <       0.00005884 Ry

     iteration #  3     ecut=    30.00 Ry     beta=0.70
     Davidson diagonalization with overlap
     ethr =  8.62E-08,  avg # of iterations =  2.0

     total cpu time spent up to now is      129.6 secs

     total energy              =    -329.49368824 Ry
     Harris-Foulkes estimate   =    -329.49369488 Ry
     estimated scf accuracy    <       0.00001580 Ry

     iteration #  4     ecut=    30.00 Ry     beta=0.70
     Davidson diagonalization with overlap
     ethr =  2.87E-08,  avg # of iterations =  2.0

     total cpu time spent up to now is      129.8 secs

     total energy              =    -329.49369194 Ry
     Harris-Foulkes estimate   =    -329.49369219 Ry
     estimated scf accuracy    <       0.00000213 Ry

     iteration #  5     ecut=    30.00 Ry     beta=0.70
     Davidson diagonalization with overlap
     ethr =  3.88E-09,  avg # of iterations =  2.0

     total cpu time spent up to now is      130.0 secs

     total energy              =    -329.49369227 Ry
     Harris-Foulkes estimate   =    -329.49369249 Ry
     estimated scf accuracy    <       0.00000034 Ry

     iteration #  6     ecut=    30.00 Ry     beta=0.70
     Davidson diagonalization with overlap
     ethr =  6.26E-10,  avg # of iterations =  2.0

     total cpu time spent up to now is      130.2 secs

     total energy              =    -329.49369227 Ry
     Harris-Foulkes estimate   =    -329.49369235 Ry
     estimated scf accuracy    <       0.00000003 Ry

     iteration #  7     ecut=    30.00 Ry     beta=0.70
     Davidson diagonalization with overlap
     ethr =  4.62E-11,  avg # of iterations =  3.0

     total cpu time spent up to now is      130.4 secs

     total energy              =    -329.49369226 Ry
     Harris-Foulkes estimate   =    -329.49369228 Ry
     estimated scf accuracy    <          4.9E-09 Ry

     iteration #  8     ecut=    30.00 Ry     beta=0.70
     Davidson diagonalization with overlap
     ethr =  8.82E-12,  avg # of iterations =  2.0

     total cpu time spent up to now is      130.7 secs

     total energy              =    -329.49369231 Ry
     Harris-Foulkes estimate   =    -329.49369226 Ry
     estimated scf accuracy    <          6.2E-10 Ry

     iteration #  9     ecut=    30.00 Ry     beta=0.70
     Davidson diagonalization with overlap
     ethr =  1.13E-12,  avg # of iterations =  3.0

     total cpu time spent up to now is      130.9 secs

     total energy              =    -329.49369231 Ry
     Harris-Foulkes estimate   =    -329.49369231 Ry
     estimated scf accuracy    <          1.2E-10 Ry

     iteration # 10     ecut=    30.00 Ry     beta=0.70
     Davidson diagonalization with overlap
     ethr =  2.26E-13,  avg # of iterations =  3.0

     total cpu time spent up to now is      131.1 secs

     End of self-consistent calculation

          k = 0.0000 0.0000 0.0000 ( 22119 PWs)   bands (ev):

    -8.4903  -7.7713  -7.6443  -7.2346  -6.8583  -6.8031  -6.6115  -6.4679
    -6.3116  -6.0624  -5.9527  -5.7593  -5.7218  -5.6736  -5.4437  -5.3532
    -5.3093  -5.2412  -5.1923  -5.1800  -5.1609  -5.1202  -4.9903  -4.9155
    -4.8421  -4.7254  -4.4772  -3.7542  -2.3870  -2.2210  -0.5104  -0.1865
     0.3885   0.7191

     the Fermi energy is    -3.7188 ev

!    total energy              =    -329.49369233 Ry
     Harris-Foulkes estimate   =    -329.49369231 Ry
     estimated scf accuracy    <          5.5E-11 Ry

     The total energy is the sum of the following terms:

     one-electron contribution =    -603.11588318 Ry
     hartree contribution      =     323.00258918 Ry
     xc contribution           =     -51.39749845 Ry
     ewald contribution        =       2.02209976 Ry
     smearing contrib. (-TS)   =      -0.00499964 Ry

     convergence has been achieved in  10 iterations

     Forces acting on atoms (Ry/au):

     atom    1 type  1   force =    -0.00062706   -0.00111653    0.00065916
     atom    2 type  1   force =    -0.00101991    0.00113677   -0.00042785
     atom    3 type  1   force =     0.00107737   -0.00016157   -0.00088644
     atom    4 type  1   force =     0.00067276    0.00024896    0.00045950
     atom    5 type  1   force =    -0.00010316   -0.00010762    0.00019563

     Total force =     0.002711     Total SCF correction =     0.000028

     number of scf cycles    =  49
     number of bfgs steps    =  47

     energy   old            =    -329.4936706636 Ry
     energy   new            =    -329.4936923270 Ry

     CASE: energy  _new < energy  _old

     new trust radius        =       0.0081356463 bohr
     new conv_thr            =            1.0E-10 Ry


ATOMIC_POSITIONS (bohr)
Au      -2.039079279   1.476242273  -0.324890059
Au       0.975977213   3.293890650   3.294155207
Au       2.782912988  -0.311227190  -0.441424285
Au       4.410634724   4.923996593   6.628329712
Au       6.095528354   1.576728673   3.060680425



     Writing output data file pwscf.save
     Check: negative starting charge=   -0.006131
     NEW-OLD atomic charge density approx. for the potential
     Check: negative starting charge=   -0.006129

     negative rho (up, down):  1.123E-06 0.000E+00

     total cpu time spent up to now is      131.3 secs

     per-process dynamical memory:    50.7 Mb

     Self-consistent Calculation

     iteration #  1     ecut=    30.00 Ry     beta=0.70
     Davidson diagonalization with overlap
     ethr =  1.00E-06,  avg # of iterations =  3.0

     Threshold (ethr) on eigenvalues was too large:
     Diagonalizing with lowered threshold

     Davidson diagonalization with overlap
     ethr =  1.45E-08,  avg # of iterations =  2.0

     total cpu time spent up to now is      131.8 secs

     total energy              =    -329.49370649 Ry
     Harris-Foulkes estimate   =    -329.49371092 Ry
     estimated scf accuracy    <       0.00000856 Ry

     iteration #  2     ecut=    30.00 Ry     beta=0.70
     Davidson diagonalization with overlap
     ethr =  1.56E-08,  avg # of iterations =  3.0

     total cpu time spent up to now is      132.0 secs

     total energy              =    -329.49370688 Ry
     Harris-Foulkes estimate   =    -329.49371149 Ry
     estimated scf accuracy    <       0.00000986 Ry

     iteration #  3     ecut=    30.00 Ry     beta=0.70
     Davidson diagonalization with overlap
     ethr =  1.56E-08,  avg # of iterations =  2.0

     total cpu time spent up to now is      132.2 secs

     total energy              =    -329.49370871 Ry
     Harris-Foulkes estimate   =    -329.49370979 Ry
     estimated scf accuracy    <       0.00000211 Ry

     iteration #  4     ecut=    30.00 Ry     beta=0.70
     Davidson diagonalization with overlap
     ethr =  3.83E-09,  avg # of iterations =  2.0

     total cpu time spent up to now is      132.5 secs

     total energy              =    -329.49370879 Ry
     Harris-Foulkes estimate   =    -329.49370937 Ry
     estimated scf accuracy    <       0.00000057 Ry

     iteration #  5     ecut=    30.00 Ry     beta=0.70
     Davidson diagonalization with overlap
     ethr =  1.04E-09,  avg # of iterations =  2.0

     total cpu time spent up to now is      132.7 secs

     total energy              =    -329.49370883 Ry
     Harris-Foulkes estimate   =    -329.49370892 Ry
     estimated scf accuracy    <       0.00000006 Ry

     iteration #  6     ecut=    30.00 Ry     beta=0.70
     Davidson diagonalization with overlap
     ethr =  1.03E-10,  avg # of iterations =  2.0

     total cpu time spent up to now is      132.9 secs

     total energy              =    -329.49370885 Ry
     Harris-Foulkes estimate   =    -329.49370884 Ry
     estimated scf accuracy    <          7.5E-09 Ry

     iteration #  7     ecut=    30.00 Ry     beta=0.70
     Davidson diagonalization with overlap
     ethr =  1.36E-11,  avg # of iterations =  2.0

     total cpu time spent up to now is      133.1 secs

     total energy              =    -329.49370880 Ry
     Harris-Foulkes estimate   =    -329.49370885 Ry
     estimated scf accuracy    <          3.2E-09 Ry

     iteration #  8     ecut=    30.00 Ry     beta=0.70
     Davidson diagonalization with overlap
     ethr =  5.84E-12,  avg # of iterations =  2.0

     total cpu time spent up to now is      133.3 secs

     total energy              =    -329.49370877 Ry
     Harris-Foulkes estimate   =    -329.49370880 Ry
     estimated scf accuracy    <          2.8E-10 Ry

     iteration #  9     ecut=    30.00 Ry     beta=0.70
     Davidson diagonalization with overlap
     ethr =  5.02E-13,  avg # of iterations =  2.0

     total cpu time spent up to now is      133.5 secs

     End of self-consistent calculation

          k = 0.0000 0.0000 0.0000 ( 22119 PWs)   bands (ev):

    -8.4835  -7.7630  -7.6355  -7.2258  -6.8566  -6.7996  -6.6090  -6.4613
    -6.3067  -6.0597  -5.9526  -5.7582  -5.7205  -5.6718  -5.4394  -5.3537
    -5.3098  -5.2397  -5.1930  -5.1799  -5.1604  -5.1215  -4.9894  -4.9163
    -4.8456  -4.7258  -4.4773  -3.7567  -2.3871  -2.2245  -0.5090  -0.1887
     0.3892   0.7191

     the Fermi energy is    -3.7217 ev

!    total energy              =    -329.49370876 Ry
     Harris-Foulkes estimate   =    -329.49370877 Ry
     estimated scf accuracy    <          2.5E-11 Ry

     The total energy is the sum of the following terms:

     one-electron contribution =    -602.70785128 Ry
     hartree contribution      =     322.80177474 Ry
     xc contribution           =     -51.39613275 Ry
     ewald contribution        =       1.81343679 Ry
     smearing contrib. (-TS)   =      -0.00493625 Ry

     convergence has been achieved in   9 iterations

     Forces acting on atoms (Ry/au):

     atom    1 type  1   force =    -0.00038762   -0.00148515    0.00018879
     atom    2 type  1   force =     0.00018959    0.00099102    0.00014475
     atom    3 type  1   force =     0.00056927    0.00048393   -0.00046348
     atom    4 type  1   force =     0.00041115    0.00000233   -0.00002659
     atom    5 type  1   force =    -0.00078239    0.00000787    0.00015653

     Total force =     0.002238     Total SCF correction =     0.000019

     number of scf cycles    =  50
     number of bfgs steps    =  48

     energy   old            =    -329.4936923270 Ry
     energy   new            =    -329.4937087617 Ry

     CASE: energy  _new < energy  _old

     new trust radius        =       0.0041153849 bohr
     new conv_thr            =            1.0E-10 Ry


ATOMIC_POSITIONS (bohr)
Au      -2.040574631   1.472459551  -0.324264502
Au       0.972987978   3.296715209   3.294286443
Au       2.784506829  -0.310376240  -0.444466664
Au       4.413484724   4.925379656   6.629019966
Au       6.095569099   1.575452825   3.062275757



     Writing output data file pwscf.save
     Check: negative starting charge=   -0.006129
     NEW-OLD atomic charge density approx. for the potential
     Check: negative starting charge=   -0.006128

     negative rho (up, down):  1.529E-07 0.000E+00

     Writing output data file pwscf.save
 
     init_run     :      0.16s CPU      0.18s WALL (       1 calls)
     electrons    :    115.90s CPU    124.14s WALL (      50 calls)
     update_pot   :      3.29s CPU      4.10s WALL (      50 calls)
     forces       :      2.07s CPU      2.11s WALL (      50 calls)

     Called by init_run:
     wfcinit      :      0.07s CPU      0.08s WALL (       1 calls)
     potinit      :      0.03s CPU      0.03s WALL (       1 calls)

     Called by electrons:
     c_bands      :     88.56s CPU     89.53s WALL (     522 calls)
     sum_band     :     12.16s CPU     12.46s WALL (     522 calls)
     v_of_rho     :     10.10s CPU     10.23s WALL (     563 calls)
     mix_rho      :      3.98s CPU      8.84s WALL (     522 calls)

     Called by c_bands:
     init_us_2    :      1.57s CPU      1.64s WALL (    1045 calls)
     cegterg      :     79.18s CPU     79.74s WALL (     522 calls)

     Called by sum_band:

     Called by *egterg:
     h_psi        :     61.36s CPU     61.78s WALL (    1914 calls)
     g_psi        :      0.62s CPU      0.62s WALL (    1391 calls)
     cdiaghg      :      4.38s CPU      4.39s WALL (    1854 calls)

     Called by h_psi:
     h_psi:pot    :     60.39s CPU     60.81s WALL (    1914 calls)
     h_psi:calbec :      3.36s CPU      3.37s WALL (    1914 calls)
     vloc_psi     :     53.19s CPU     53.58s WALL (    1914 calls)
     add_vuspsi   :      3.84s CPU      3.85s WALL (    1914 calls)

     General routines
     calbec       :      3.96s CPU      4.01s WALL (    2114 calls)
     fft          :      5.55s CPU      5.68s WALL (    6313 calls)
     fftw         :     55.66s CPU     56.50s WALL (  118052 calls)
     davcio       :      0.64s CPU      4.47s WALL (    5592 calls)
 
     Parallel routines
     fft_scatter  :     14.27s CPU     13.76s WALL (  124365 calls)
 
     PWSCF        :  2m 2.77s CPU     2m13.84s WALL

 
   This run was terminated on:   3:31:15   4Aug2017            

=------------------------------------------------------------------------------=
   JOB DONE.
=------------------------------------------------------------------------------=
