
     Program PWSCF v.6.0 (svn rev. 13079) starts on  4Aug2017 at  2:21:58 

     This program is part of the open-source Quantum ESPRESSO suite
     for quantum simulation of materials; please cite
         "P. Giannozzi et al., J. Phys.:Condens. Matter 21 395502 (2009);
          URL http://www.quantum-espresso.org", 
     in publications or presentations arising from this work. More details at
     http://www.quantum-espresso.org/quote

     Parallel version (MPI), running on    10 processors
     R & G space division:  proc/nbgrp/npool/nimage =      10
     Reading input from input/multi/minchecks-Gold5-663.in

     Current dimensions of program PWSCF are:
     Max number of different atomic species (ntypx) = 10
     Max number of k-points (npk) =  40000
     Max angular momentum in pseudopotentials (lmaxx) =  3
     Message from routine iosys:
     pot_extrapolation='second-order' not available, using 'atomic'
     Message from routine iosys:
     wfc_extrapolation='second-order' not available, using 'atomic'

     Subspace diagonalization in iterative solution of the eigenvalue problem:
     a serial algorithm will be used

 
     Parallelization info
     --------------------
     sticks:   dense  smooth     PW     G-vecs:    dense   smooth      PW
     Min         380     380     94                17748    17748    2208
     Max         381     381     95                17753    17753    2213
     Sum        3809    3809    949               177509   177509   22119
 


     bravais-lattice index     =            1
     lattice parameter (alat)  =      20.0000  a.u.
     unit-cell volume          =    8000.0000 (a.u.)^3
     number of atoms/cell      =            5
     number of atomic types    =            1
     number of electrons       =        55.00
     number of Kohn-Sham states=           34
     kinetic-energy cutoff     =      30.0000  Ry
     charge density cutoff     =     120.0000  Ry
     convergence threshold     =      1.0E-08
     mixing beta               =       0.7000
     number of iterations used =            8  plain     mixing
     Exchange-correlation      = BLYP ( 1  3  1  3 0 0)
     nstep                     =           50


     celldm(1)=  20.000000  celldm(2)=   0.000000  celldm(3)=   0.000000
     celldm(4)=   0.000000  celldm(5)=   0.000000  celldm(6)=   0.000000

     crystal axes: (cart. coord. in units of alat)
               a(1) = (   1.000000   0.000000   0.000000 )  
               a(2) = (   0.000000   1.000000   0.000000 )  
               a(3) = (   0.000000   0.000000   1.000000 )  

     reciprocal axes: (cart. coord. in units 2 pi/alat)
               b(1) = (  1.000000  0.000000  0.000000 )  
               b(2) = (  0.000000  1.000000  0.000000 )  
               b(3) = (  0.000000  0.000000  1.000000 )  


     PseudoPot. # 1 for Au read from file:
     ./Au.blyp-d-hgh.UPF
     MD5 check sum: c10d8bae01f806c36a1643a1c69a8479
     Pseudo is Norm-conserving, Zval = 11.0
     Generated in analytical, separable form
     Using radial grid of 1279 points,  6 beta functions with: 
                l(1) =   0
                l(2) =   0
                l(3) =   1
                l(4) =   1
                l(5) =   2
                l(6) =   2

     atomic species   valence    mass     pseudopotential
        Au            11.00    28.08600     Au( 1.00)

     No symmetry found



   Cartesian axes

     site n.     atom                  positions (alat units)
         1           Au  tau(   1) = (  -0.0993653   0.0559619  -0.0176766  )
         2           Au  tau(   2) = (   0.0181999   0.1310468   0.2025550  )
         3           Au  tau(   3) = (   0.1470448   0.0463860   0.0021618  )
         4           Au  tau(   4) = (   0.2355747   0.2321653   0.2996176  )
         5           Au  tau(   5) = (   0.3276972   0.0488288   0.1281825  )

     number of k points=     1  Marzari-Vanderbilt smearing, width (Ry)=  0.0250
                       cart. coord. in units 2pi/alat
        k(    1) = (   0.0000000   0.0000000   0.0000000), wk =   2.0000000

     Dense  grid:   177509 G-vectors     FFT dimensions: (  72,  72,  72)

     Estimated max dynamical RAM per process >      15.04Mb

     Estimated total allocated dynamical RAM >     150.39Mb

     Initial potential from superposition of free atoms
     Check: negative starting charge=   -0.006273

     starting charge   54.99940, renormalised to   55.00000

     negative rho (up, down):  6.273E-03 0.000E+00
     Starting wfc are   45 randomized atomic wfcs

     total cpu time spent up to now is        0.3 secs

     per-process dynamical memory:    41.0 Mb

     Self-consistent Calculation

     iteration #  1     ecut=    30.00 Ry     beta=0.70
     Davidson diagonalization with overlap
     ethr =  1.00E-02,  avg # of iterations =  3.0

     Threshold (ethr) on eigenvalues was too large:
     Diagonalizing with lowered threshold

     Davidson diagonalization with overlap
     ethr =  5.19E-04,  avg # of iterations =  3.0

     negative rho (up, down):  7.985E-04 0.000E+00

     total cpu time spent up to now is        0.7 secs

     total energy              =    -329.28631428 Ry
     Harris-Foulkes estimate   =    -329.48338900 Ry
     estimated scf accuracy    <       0.33089014 Ry

     iteration #  2     ecut=    30.00 Ry     beta=0.70
     Davidson diagonalization with overlap
     ethr =  6.02E-04,  avg # of iterations =  2.0

     negative rho (up, down):  3.204E-04 0.000E+00

     total cpu time spent up to now is        0.9 secs

     total energy              =    -329.37743398 Ry
     Harris-Foulkes estimate   =    -329.49341583 Ry
     estimated scf accuracy    <       0.22988841 Ry

     iteration #  3     ecut=    30.00 Ry     beta=0.70
     Davidson diagonalization with overlap
     ethr =  4.18E-04,  avg # of iterations =  2.0

     negative rho (up, down):  1.811E-04 0.000E+00

     total cpu time spent up to now is        1.1 secs

     total energy              =    -329.40394120 Ry
     Harris-Foulkes estimate   =    -329.42455926 Ry
     estimated scf accuracy    <       0.06162681 Ry

     iteration #  4     ecut=    30.00 Ry     beta=0.70
     Davidson diagonalization with overlap
     ethr =  1.12E-04,  avg # of iterations =  3.0

     negative rho (up, down):  2.877E-05 0.000E+00

     total cpu time spent up to now is        1.3 secs

     total energy              =    -329.41319703 Ry
     Harris-Foulkes estimate   =    -329.42125444 Ry
     estimated scf accuracy    <       0.03930507 Ry

     iteration #  5     ecut=    30.00 Ry     beta=0.70
     Davidson diagonalization with overlap
     ethr =  7.15E-05,  avg # of iterations =  1.0

     total cpu time spent up to now is        1.5 secs

     total energy              =    -329.41679515 Ry
     Harris-Foulkes estimate   =    -329.41783651 Ry
     estimated scf accuracy    <       0.00338457 Ry

     iteration #  6     ecut=    30.00 Ry     beta=0.70
     Davidson diagonalization with overlap
     ethr =  6.15E-06,  avg # of iterations =  6.0

     total cpu time spent up to now is        1.8 secs

     total energy              =    -329.41728936 Ry
     Harris-Foulkes estimate   =    -329.41740556 Ry
     estimated scf accuracy    <       0.00047869 Ry

     iteration #  7     ecut=    30.00 Ry     beta=0.70
     Davidson diagonalization with overlap
     ethr =  8.70E-07,  avg # of iterations =  2.0

     total cpu time spent up to now is        2.0 secs

     total energy              =    -329.41732836 Ry
     Harris-Foulkes estimate   =    -329.41737242 Ry
     estimated scf accuracy    <       0.00014903 Ry

     iteration #  8     ecut=    30.00 Ry     beta=0.70
     Davidson diagonalization with overlap
     ethr =  2.71E-07,  avg # of iterations =  2.0

     total cpu time spent up to now is        2.2 secs

     total energy              =    -329.41735080 Ry
     Harris-Foulkes estimate   =    -329.41735236 Ry
     estimated scf accuracy    <       0.00000539 Ry

     iteration #  9     ecut=    30.00 Ry     beta=0.70
     Davidson diagonalization with overlap
     ethr =  9.80E-09,  avg # of iterations =  3.0

     total cpu time spent up to now is        2.4 secs

     total energy              =    -329.41735211 Ry
     Harris-Foulkes estimate   =    -329.41735348 Ry
     estimated scf accuracy    <       0.00000336 Ry

     iteration # 10     ecut=    30.00 Ry     beta=0.70
     Davidson diagonalization with overlap
     ethr =  6.12E-09,  avg # of iterations =  2.0

     total cpu time spent up to now is        2.7 secs

     total energy              =    -329.41735274 Ry
     Harris-Foulkes estimate   =    -329.41735287 Ry
     estimated scf accuracy    <       0.00000034 Ry

     iteration # 11     ecut=    30.00 Ry     beta=0.70
     Davidson diagonalization with overlap
     ethr =  6.12E-10,  avg # of iterations =  2.0

     total cpu time spent up to now is        2.9 secs

     total energy              =    -329.41735277 Ry
     Harris-Foulkes estimate   =    -329.41735282 Ry
     estimated scf accuracy    <       0.00000013 Ry

     iteration # 12     ecut=    30.00 Ry     beta=0.70
     Davidson diagonalization with overlap
     ethr =  2.39E-10,  avg # of iterations =  2.0

     total cpu time spent up to now is        3.1 secs

     total energy              =    -329.41735278 Ry
     Harris-Foulkes estimate   =    -329.41735279 Ry
     estimated scf accuracy    <       0.00000002 Ry

     iteration # 13     ecut=    30.00 Ry     beta=0.70
     Davidson diagonalization with overlap
     ethr =  3.41E-11,  avg # of iterations =  2.0

     total cpu time spent up to now is        3.3 secs

     End of self-consistent calculation

          k = 0.0000 0.0000 0.0000 ( 22119 PWs)   bands (ev):

    -8.8882  -8.1839  -7.9521  -7.4374  -7.2690  -7.0686  -6.7037  -6.5028
    -6.3956  -6.1223  -5.9013  -5.7985  -5.7938  -5.5572  -5.5444  -5.4951
    -5.3767  -5.3528  -5.2369  -5.1631  -5.1180  -5.0304  -4.9178  -4.8026
    -4.5930  -4.4462  -4.1885  -3.9231  -2.4928  -1.8970  -0.4710  -0.2782
     0.3859   0.7271

     the Fermi energy is    -3.9139 ev

!    total energy              =    -329.41735277 Ry
     Harris-Foulkes estimate   =    -329.41735279 Ry
     estimated scf accuracy    <          1.4E-09 Ry

     The total energy is the sum of the following terms:

     one-electron contribution =    -617.48450829 Ry
     hartree contribution      =     330.13452255 Ry
     xc contribution           =     -51.49844358 Ry
     ewald contribution        =       9.42316932 Ry
     smearing contrib. (-TS)   =       0.00790722 Ry

     convergence has been achieved in  13 iterations

     Forces acting on atoms (Ry/au):

     atom    1 type  1   force =    -0.02596298    0.00143847    0.00153732
     atom    2 type  1   force =    -0.00459334    0.00861406    0.00000690
     atom    3 type  1   force =    -0.14941760   -0.00901057   -0.12371555
     atom    4 type  1   force =    -0.00182650   -0.01495069   -0.00873292
     atom    5 type  1   force =     0.18180041    0.01390872    0.13090424

     Total force =     0.298614     Total SCF correction =     0.000159

     BFGS Geometry Optimization

     number of scf cycles    =   1
     number of bfgs steps    =   0

     energy   new            =    -329.4173527745 Ry

     new trust radius        =       0.2244565947 bohr
     new conv_thr            =       0.0000000100 Ry


ATOMIC_POSITIONS (bohr)
Au      -2.013269981   1.120675471  -0.351995679
Au       0.359403663   2.629550059   4.051106905
Au       2.791478401   0.918710434  -0.080478548
Au       4.709667505   4.628356314   5.983618081
Au       6.735745412   0.990484722   2.694554242



     Writing output data file pwscf.save
     Check: negative starting charge=   -0.006273
     NEW-OLD atomic charge density approx. for the potential
     Check: negative starting charge=   -0.006358

     negative rho (up, down):  4.085E-03 0.000E+00

     total cpu time spent up to now is        3.5 secs

     per-process dynamical memory:    42.9 Mb

     Self-consistent Calculation

     iteration #  1     ecut=    30.00 Ry     beta=0.70
     Davidson diagonalization with overlap
     ethr =  1.00E-06,  avg # of iterations = 14.0

     negative rho (up, down):  4.495E-04 0.000E+00

     total cpu time spent up to now is        4.1 secs

     total energy              =    -329.45680412 Ry
     Harris-Foulkes estimate   =    -329.50615947 Ry
     estimated scf accuracy    <       0.00725976 Ry

     iteration #  2     ecut=    30.00 Ry     beta=0.70
     Davidson diagonalization with overlap
     ethr =  1.32E-05,  avg # of iterations =  5.0

     negative rho (up, down):  2.782E-04 0.000E+00

     total cpu time spent up to now is        4.4 secs

     total energy              =    -329.45997010 Ry
     Harris-Foulkes estimate   =    -329.46997266 Ry
     estimated scf accuracy    <       0.03005119 Ry

     iteration #  3     ecut=    30.00 Ry     beta=0.70
     Davidson diagonalization with overlap
     ethr =  1.32E-05,  avg # of iterations =  3.0

     negative rho (up, down):  1.157E-04 0.000E+00

     total cpu time spent up to now is        4.7 secs

     total energy              =    -329.46399683 Ry
     Harris-Foulkes estimate   =    -329.46725151 Ry
     estimated scf accuracy    <       0.01289931 Ry

     iteration #  4     ecut=    30.00 Ry     beta=0.70
     Davidson diagonalization with overlap
     ethr =  1.32E-05,  avg # of iterations =  2.0

     negative rho (up, down):  1.493E-06 0.000E+00

     total cpu time spent up to now is        4.9 secs

     total energy              =    -329.46544900 Ry
     Harris-Foulkes estimate   =    -329.46575195 Ry
     estimated scf accuracy    <       0.00074785 Ry

     iteration #  5     ecut=    30.00 Ry     beta=0.70
     Davidson diagonalization with overlap
     ethr =  1.36E-06,  avg # of iterations =  4.0

     total cpu time spent up to now is        5.1 secs

     total energy              =    -329.46559787 Ry
     Harris-Foulkes estimate   =    -329.46565161 Ry
     estimated scf accuracy    <       0.00012624 Ry

     iteration #  6     ecut=    30.00 Ry     beta=0.70
     Davidson diagonalization with overlap
     ethr =  2.30E-07,  avg # of iterations =  2.0

     total cpu time spent up to now is        5.3 secs

     total energy              =    -329.46562239 Ry
     Harris-Foulkes estimate   =    -329.46562571 Ry
     estimated scf accuracy    <       0.00000741 Ry

     iteration #  7     ecut=    30.00 Ry     beta=0.70
     Davidson diagonalization with overlap
     ethr =  1.35E-08,  avg # of iterations =  2.0

     total cpu time spent up to now is        5.6 secs

     total energy              =    -329.46562369 Ry
     Harris-Foulkes estimate   =    -329.46562520 Ry
     estimated scf accuracy    <       0.00000317 Ry

     iteration #  8     ecut=    30.00 Ry     beta=0.70
     Davidson diagonalization with overlap
     ethr =  5.77E-09,  avg # of iterations =  2.0

     total cpu time spent up to now is        5.8 secs

     total energy              =    -329.46562429 Ry
     Harris-Foulkes estimate   =    -329.46562453 Ry
     estimated scf accuracy    <       0.00000040 Ry

     iteration #  9     ecut=    30.00 Ry     beta=0.70
     Davidson diagonalization with overlap
     ethr =  7.25E-10,  avg # of iterations =  2.0

     total cpu time spent up to now is        6.0 secs

     total energy              =    -329.46562432 Ry
     Harris-Foulkes estimate   =    -329.46562442 Ry
     estimated scf accuracy    <       0.00000016 Ry

     iteration # 10     ecut=    30.00 Ry     beta=0.70
     Davidson diagonalization with overlap
     ethr =  2.88E-10,  avg # of iterations =  2.0

     total cpu time spent up to now is        6.2 secs

     total energy              =    -329.46562432 Ry
     Harris-Foulkes estimate   =    -329.46562437 Ry
     estimated scf accuracy    <       0.00000002 Ry

     iteration # 11     ecut=    30.00 Ry     beta=0.70
     Davidson diagonalization with overlap
     ethr =  3.94E-11,  avg # of iterations =  2.0

     total cpu time spent up to now is        6.4 secs

     End of self-consistent calculation

          k = 0.0000 0.0000 0.0000 ( 22119 PWs)   bands (ev):

    -8.4650  -7.8343  -7.6077  -7.3053  -6.9137  -6.8202  -6.5784  -6.3900
    -6.2628  -6.0507  -5.8395  -5.7074  -5.6920  -5.5703  -5.5203  -5.4681
    -5.2528  -5.2225  -5.1863  -5.1161  -5.0849  -5.0146  -4.9003  -4.8179
    -4.6614  -4.4979  -4.2670  -3.8068  -2.4744  -2.0320  -0.4377  -0.2305
     0.4062   0.6721

     the Fermi energy is    -3.8265 ev

!    total energy              =    -329.46562434 Ry
     Harris-Foulkes estimate   =    -329.46562433 Ry
     estimated scf accuracy    <          2.3E-09 Ry

     The total energy is the sum of the following terms:

     one-electron contribution =    -608.59363876 Ry
     hartree contribution      =     325.87187230 Ry
     xc contribution           =     -51.46330813 Ry
     ewald contribution        =       4.71242768 Ry
     smearing contrib. (-TS)   =       0.00702257 Ry

     convergence has been achieved in  11 iterations

     Forces acting on atoms (Ry/au):

     atom    1 type  1   force =    -0.04857572    0.00218708    0.00034784
     atom    2 type  1   force =    -0.00111505    0.00793302    0.00059760
     atom    3 type  1   force =     0.01230202   -0.00930429   -0.02908655
     atom    4 type  1   force =     0.00036972   -0.01453366   -0.00894253
     atom    5 type  1   force =     0.03701903    0.01371785    0.03708364

     Total force =     0.082086     Total SCF correction =     0.000194

     number of scf cycles    =   2
     number of bfgs steps    =   1

     energy   old            =    -329.4173527745 Ry
     energy   new            =    -329.4656243375 Ry

     CASE: energy  _new < energy  _old

     new trust radius        =       0.0800796091 bohr
     new conv_thr            =       0.0000000049 Ry


ATOMIC_POSITIONS (bohr)
Au      -2.073618621   1.123410782  -0.351472465
Au       0.357748989   2.639700499   4.051828283
Au       2.796249824   0.906879052  -0.123903960
Au       4.709990424   4.609816208   5.972241813
Au       6.792654385   1.007970460   2.748111329



     Writing output data file pwscf.save
     Check: negative starting charge=   -0.006358
     NEW-OLD atomic charge density approx. for the potential
     Check: negative starting charge=   -0.006334

     negative rho (up, down):  9.511E-04 0.000E+00

     total cpu time spent up to now is        6.7 secs

     per-process dynamical memory:    50.7 Mb

     Self-consistent Calculation

     iteration #  1     ecut=    30.00 Ry     beta=0.70
     Davidson diagonalization with overlap
     ethr =  1.00E-06,  avg # of iterations =  6.0

     negative rho (up, down):  6.141E-05 0.000E+00

     total cpu time spent up to now is        7.1 secs

     total energy              =    -329.47254896 Ry
     Harris-Foulkes estimate   =    -329.47201493 Ry
     estimated scf accuracy    <       0.00079529 Ry

     iteration #  2     ecut=    30.00 Ry     beta=0.70
     Davidson diagonalization with overlap
     ethr =  1.45E-06,  avg # of iterations =  5.0

     negative rho (up, down):  3.575E-05 0.000E+00

     total cpu time spent up to now is        7.4 secs

     total energy              =    -329.47198471 Ry
     Harris-Foulkes estimate   =    -329.47353066 Ry
     estimated scf accuracy    <       0.00579426 Ry

     iteration #  3     ecut=    30.00 Ry     beta=0.70
     Davidson diagonalization with overlap
     ethr =  1.45E-06,  avg # of iterations =  3.0

     negative rho (up, down):  1.918E-06 0.000E+00

     total cpu time spent up to now is        7.6 secs

     total energy              =    -329.47281732 Ry
     Harris-Foulkes estimate   =    -329.47292719 Ry
     estimated scf accuracy    <       0.00051913 Ry

     iteration #  4     ecut=    30.00 Ry     beta=0.70
     Davidson diagonalization with overlap
     ethr =  9.44E-07,  avg # of iterations =  2.0

     total cpu time spent up to now is        7.8 secs

     total energy              =    -329.47288352 Ry
     Harris-Foulkes estimate   =    -329.47290136 Ry
     estimated scf accuracy    <       0.00006064 Ry

     iteration #  5     ecut=    30.00 Ry     beta=0.70
     Davidson diagonalization with overlap
     ethr =  1.10E-07,  avg # of iterations =  2.0

     total cpu time spent up to now is        8.0 secs

     total energy              =    -329.47289795 Ry
     Harris-Foulkes estimate   =    -329.47290113 Ry
     estimated scf accuracy    <       0.00001027 Ry

     iteration #  6     ecut=    30.00 Ry     beta=0.70
     Davidson diagonalization with overlap
     ethr =  1.87E-08,  avg # of iterations =  2.0

     total cpu time spent up to now is        8.2 secs

     total energy              =    -329.47290020 Ry
     Harris-Foulkes estimate   =    -329.47290025 Ry
     estimated scf accuracy    <       0.00000041 Ry

     iteration #  7     ecut=    30.00 Ry     beta=0.70
     Davidson diagonalization with overlap
     ethr =  7.46E-10,  avg # of iterations =  3.0

     total cpu time spent up to now is        8.5 secs

     total energy              =    -329.47290011 Ry
     Harris-Foulkes estimate   =    -329.47290036 Ry
     estimated scf accuracy    <       0.00000017 Ry

     iteration #  8     ecut=    30.00 Ry     beta=0.70
     Davidson diagonalization with overlap
     ethr =  3.11E-10,  avg # of iterations =  3.0

     total cpu time spent up to now is        8.7 secs

     total energy              =    -329.47290009 Ry
     Harris-Foulkes estimate   =    -329.47290016 Ry
     estimated scf accuracy    <       0.00000003 Ry

     iteration #  9     ecut=    30.00 Ry     beta=0.70
     Davidson diagonalization with overlap
     ethr =  5.01E-11,  avg # of iterations =  2.0

     total cpu time spent up to now is        8.9 secs

     End of self-consistent calculation

          k = 0.0000 0.0000 0.0000 ( 22119 PWs)   bands (ev):

    -8.3438  -7.7106  -7.5542  -7.2664  -6.9301  -6.7415  -6.5304  -6.3778
    -6.2512  -6.0577  -5.8454  -5.6914  -5.6725  -5.5788  -5.5183  -5.4712
    -5.2399  -5.2151  -5.1843  -5.1133  -5.0944  -5.0206  -4.9273  -4.8477
    -4.7365  -4.5424  -4.3075  -3.7882  -2.4944  -2.0992  -0.4332  -0.2279
     0.3930   0.6429

     the Fermi energy is    -3.7947 ev

!    total energy              =    -329.47290011 Ry
     Harris-Foulkes estimate   =    -329.47290010 Ry
     estimated scf accuracy    <          2.8E-09 Ry

     The total energy is the sum of the following terms:

     one-electron contribution =    -604.29100884 Ry
     hartree contribution      =     323.72323087 Ry
     xc contribution           =     -51.43542910 Ry
     ewald contribution        =       2.52640361 Ry
     smearing contrib. (-TS)   =       0.00390335 Ry

     convergence has been achieved in   9 iterations

     Forces acting on atoms (Ry/au):

     atom    1 type  1   force =    -0.03147330    0.00241053    0.00495877
     atom    2 type  1   force =    -0.00103621    0.00610550   -0.00376058
     atom    3 type  1   force =     0.01427761   -0.00807709   -0.01598296
     atom    4 type  1   force =     0.00002220   -0.01282461   -0.00708780
     atom    5 type  1   force =     0.01820969    0.01238567    0.02187257

     Total force =     0.052689     Total SCF correction =     0.000208

     number of scf cycles    =   3
     number of bfgs steps    =   2

     energy   old            =    -329.4656243375 Ry
     energy   new            =    -329.4729001139 Ry

     CASE: energy  _new < energy  _old

     new trust radius        =       0.0880875700 bohr
     new conv_thr            =       0.0000000031 Ry


ATOMIC_POSITIONS (bohr)
Au      -2.145218884   1.128438607  -0.342358393
Au       0.355198722   2.653501202   4.045247035
Au       2.812252899   0.889144532  -0.170961945
Au       4.709971438   4.581666103   5.956400983
Au       6.850820825   1.035026556   2.808477320



     Writing output data file pwscf.save
     Check: negative starting charge=   -0.006334
     NEW-OLD atomic charge density approx. for the potential
     Check: negative starting charge=   -0.006281

     negative rho (up, down):  1.249E-03 0.000E+00

     total cpu time spent up to now is        9.1 secs

     per-process dynamical memory:    50.7 Mb

     Self-consistent Calculation

     iteration #  1     ecut=    30.00 Ry     beta=0.70
     Davidson diagonalization with overlap
     ethr =  1.00E-06,  avg # of iterations =  8.0

     negative rho (up, down):  9.383E-05 0.000E+00

     total cpu time spent up to now is        9.6 secs

     total energy              =    -329.47751311 Ry
     Harris-Foulkes estimate   =    -329.47660895 Ry
     estimated scf accuracy    <       0.00090649 Ry

     iteration #  2     ecut=    30.00 Ry     beta=0.70
     Davidson diagonalization with overlap
     ethr =  1.65E-06,  avg # of iterations =  5.0

     negative rho (up, down):  5.174E-05 0.000E+00

     total cpu time spent up to now is        9.8 secs

     total energy              =    -329.47705273 Ry
     Harris-Foulkes estimate   =    -329.47840388 Ry
     estimated scf accuracy    <       0.00442908 Ry

     iteration #  3     ecut=    30.00 Ry     beta=0.70
     Davidson diagonalization with overlap
     ethr =  1.65E-06,  avg # of iterations =  3.0

     negative rho (up, down):  2.547E-06 0.000E+00

     total cpu time spent up to now is       10.1 secs

     total energy              =    -329.47778977 Ry
     Harris-Foulkes estimate   =    -329.47792477 Ry
     estimated scf accuracy    <       0.00060268 Ry

     iteration #  4     ecut=    30.00 Ry     beta=0.70
     Davidson diagonalization with overlap
     ethr =  1.10E-06,  avg # of iterations =  2.0

     total cpu time spent up to now is       10.3 secs

     total energy              =    -329.47786905 Ry
     Harris-Foulkes estimate   =    -329.47788428 Ry
     estimated scf accuracy    <       0.00005153 Ry

     iteration #  5     ecut=    30.00 Ry     beta=0.70
     Davidson diagonalization with overlap
     ethr =  9.37E-08,  avg # of iterations =  3.0

     total cpu time spent up to now is       10.5 secs

     total energy              =    -329.47788217 Ry
     Harris-Foulkes estimate   =    -329.47788731 Ry
     estimated scf accuracy    <       0.00001455 Ry

     iteration #  6     ecut=    30.00 Ry     beta=0.70
     Davidson diagonalization with overlap
     ethr =  2.65E-08,  avg # of iterations =  2.0

     total cpu time spent up to now is       10.7 secs

     total energy              =    -329.47788537 Ry
     Harris-Foulkes estimate   =    -329.47788528 Ry
     estimated scf accuracy    <       0.00000060 Ry

     iteration #  7     ecut=    30.00 Ry     beta=0.70
     Davidson diagonalization with overlap
     ethr =  1.10E-09,  avg # of iterations =  3.0

     total cpu time spent up to now is       11.0 secs

     total energy              =    -329.47788552 Ry
     Harris-Foulkes estimate   =    -329.47788556 Ry
     estimated scf accuracy    <       0.00000011 Ry

     iteration #  8     ecut=    30.00 Ry     beta=0.70
     Davidson diagonalization with overlap
     ethr =  2.03E-10,  avg # of iterations =  3.0

     total cpu time spent up to now is       11.2 secs

     total energy              =    -329.47788549 Ry
     Harris-Foulkes estimate   =    -329.47788556 Ry
     estimated scf accuracy    <       0.00000003 Ry

     iteration #  9     ecut=    30.00 Ry     beta=0.70
     Davidson diagonalization with overlap
     ethr =  5.71E-11,  avg # of iterations =  2.0

     total cpu time spent up to now is       11.4 secs

     total energy              =    -329.47788547 Ry
     Harris-Foulkes estimate   =    -329.47788549 Ry
     estimated scf accuracy    <          5.0E-09 Ry

     iteration # 10     ecut=    30.00 Ry     beta=0.70
     Davidson diagonalization with overlap
     ethr =  9.05E-12,  avg # of iterations =  2.0

     total cpu time spent up to now is       11.6 secs

     End of self-consistent calculation

          k = 0.0000 0.0000 0.0000 ( 22119 PWs)   bands (ev):

    -8.2184  -7.5831  -7.5190  -7.2539  -6.9691  -6.6543  -6.4970  -6.3787
    -6.2518  -6.0728  -5.8642  -5.6758  -5.6542  -5.5899  -5.5164  -5.4798
    -5.2356  -5.2148  -5.1886  -5.1136  -5.1028  -5.0286  -4.9538  -4.8762
    -4.8102  -4.5800  -4.3476  -3.7723  -2.5269  -2.1559  -0.4304  -0.2291
     0.3749   0.6175

     the Fermi energy is    -3.7646 ev

!    total energy              =    -329.47788550 Ry
     Harris-Foulkes estimate   =    -329.47788547 Ry
     estimated scf accuracy    <          5.5E-10 Ry

     The total energy is the sum of the following terms:

     one-electron contribution =    -600.17806598 Ry
     hartree contribution      =     321.65993802 Ry
     xc contribution           =     -51.40843649 Ry
     ewald contribution        =       0.44771810 Ry
     smearing contrib. (-TS)   =       0.00096085 Ry

     convergence has been achieved in  10 iterations

     Forces acting on atoms (Ry/au):

     atom    1 type  1   force =    -0.01415552    0.00264012    0.00861182
     atom    2 type  1   force =    -0.00116603    0.00412519   -0.00827616
     atom    3 type  1   force =     0.00951742   -0.00599575   -0.00537961
     atom    4 type  1   force =    -0.00085875   -0.01042281   -0.00396593
     atom    5 type  1   force =     0.00666288    0.00965324    0.00900988

     Total force =     0.029457     Total SCF correction =     0.000106

     number of scf cycles    =   4
     number of bfgs steps    =   3

     energy   old            =    -329.4729001139 Ry
     energy   new            =    -329.4778854989 Ry

     CASE: energy  _new < energy  _old

     new trust radius        =       0.0867042334 bohr
     new conv_thr            =       0.0000000014 Ry


ATOMIC_POSITIONS (bohr)
Au      -2.214844217   1.136282989  -0.321426885
Au       0.351358232   2.669555609   4.026340587
Au       2.832523681   0.867435504  -0.213993754
Au       4.708266003   4.545453148   5.939563249
Au       6.905721301   1.069049750   2.866321802



     Writing output data file pwscf.save
     Check: negative starting charge=   -0.006281
     NEW-OLD atomic charge density approx. for the potential
     Check: negative starting charge=   -0.006252

     negative rho (up, down):  1.336E-03 0.000E+00

     total cpu time spent up to now is       11.8 secs

     per-process dynamical memory:    50.7 Mb

     Self-consistent Calculation

     iteration #  1     ecut=    30.00 Ry     beta=0.70
     Davidson diagonalization with overlap
     ethr =  1.00E-06,  avg # of iterations =  8.0

     negative rho (up, down):  1.042E-04 0.000E+00

     total cpu time spent up to now is       12.3 secs

     total energy              =    -329.47965977 Ry
     Harris-Foulkes estimate   =    -329.47861492 Ry
     estimated scf accuracy    <       0.00090149 Ry

     iteration #  2     ecut=    30.00 Ry     beta=0.70
     Davidson diagonalization with overlap
     ethr =  1.64E-06,  avg # of iterations =  5.0

     negative rho (up, down):  5.105E-05 0.000E+00

     total cpu time spent up to now is       12.6 secs

     total energy              =    -329.47936409 Ry
     Harris-Foulkes estimate   =    -329.48036451 Ry
     estimated scf accuracy    <       0.00286388 Ry

     iteration #  3     ecut=    30.00 Ry     beta=0.70
     Davidson diagonalization with overlap
     ethr =  1.64E-06,  avg # of iterations =  3.0

     negative rho (up, down):  3.199E-06 0.000E+00

     total cpu time spent up to now is       12.8 secs

     total energy              =    -329.47989874 Ry
     Harris-Foulkes estimate   =    -329.48007289 Ry
     estimated scf accuracy    <       0.00070580 Ry

     iteration #  4     ecut=    30.00 Ry     beta=0.70
     Davidson diagonalization with overlap
     ethr =  1.28E-06,  avg # of iterations =  1.0

     total cpu time spent up to now is       13.0 secs

     total energy              =    -329.48000010 Ry
     Harris-Foulkes estimate   =    -329.48000814 Ry
     estimated scf accuracy    <       0.00004025 Ry

     iteration #  5     ecut=    30.00 Ry     beta=0.70
     Davidson diagonalization with overlap
     ethr =  7.32E-08,  avg # of iterations =  3.0

     total cpu time spent up to now is       13.2 secs

     total energy              =    -329.48001116 Ry
     Harris-Foulkes estimate   =    -329.48001654 Ry
     estimated scf accuracy    <       0.00001533 Ry

     iteration #  6     ecut=    30.00 Ry     beta=0.70
     Davidson diagonalization with overlap
     ethr =  2.79E-08,  avg # of iterations =  2.0

     total cpu time spent up to now is       13.4 secs

     total energy              =    -329.48001405 Ry
     Harris-Foulkes estimate   =    -329.48001438 Ry
     estimated scf accuracy    <       0.00000088 Ry

     iteration #  7     ecut=    30.00 Ry     beta=0.70
     Davidson diagonalization with overlap
     ethr =  1.60E-09,  avg # of iterations =  3.0

     total cpu time spent up to now is       13.7 secs

     total energy              =    -329.48001422 Ry
     Harris-Foulkes estimate   =    -329.48001426 Ry
     estimated scf accuracy    <       0.00000008 Ry

     iteration #  8     ecut=    30.00 Ry     beta=0.70
     Davidson diagonalization with overlap
     ethr =  1.38E-10,  avg # of iterations =  3.0

     total cpu time spent up to now is       13.9 secs

     total energy              =    -329.48001407 Ry
     Harris-Foulkes estimate   =    -329.48001425 Ry
     estimated scf accuracy    <       0.00000003 Ry

     iteration #  9     ecut=    30.00 Ry     beta=0.70
     Davidson diagonalization with overlap
     ethr =  4.91E-11,  avg # of iterations =  2.0

     total cpu time spent up to now is       14.2 secs

     total energy              =    -329.48001409 Ry
     Harris-Foulkes estimate   =    -329.48001408 Ry
     estimated scf accuracy    <          5.9E-09 Ry

     iteration # 10     ecut=    30.00 Ry     beta=0.70
     Davidson diagonalization with overlap
     ethr =  1.08E-11,  avg # of iterations =  2.0

     total cpu time spent up to now is       14.4 secs

     End of self-consistent calculation

          k = 0.0000 0.0000 0.0000 ( 22119 PWs)   bands (ev):

    -8.1225  -7.5018  -7.4757  -7.2726  -7.0062  -6.5866  -6.4812  -6.3786
    -6.2650  -6.0829  -5.8902  -5.6622  -5.6400  -5.5992  -5.5159  -5.4888
    -5.2360  -5.2154  -5.1934  -5.1123  -5.1083  -5.0346  -4.9717  -4.8980
    -4.8706  -4.6087  -4.3781  -3.7562  -2.5654  -2.1885  -0.4301  -0.2316
     0.3574   0.6027

     the Fermi energy is    -3.7374 ev

!    total energy              =    -329.48001406 Ry
     Harris-Foulkes estimate   =    -329.48001409 Ry
     estimated scf accuracy    <          5.4E-10 Ry

     The total energy is the sum of the following terms:

     one-electron contribution =    -597.12742894 Ry
     hartree contribution      =     320.12490038 Ry
     xc contribution           =     -51.38877098 Ry
     ewald contribution        =      -1.08738609 Ry
     smearing contrib. (-TS)   =      -0.00132843 Ry

     convergence has been achieved in  10 iterations

     Forces acting on atoms (Ry/au):

     atom    1 type  1   force =     0.00092317    0.00322726    0.00928967
     atom    2 type  1   force =    -0.00162232    0.00251880   -0.01170008
     atom    3 type  1   force =     0.00459600   -0.00361145    0.00343761
     atom    4 type  1   force =    -0.00240558   -0.00707697   -0.00005049
     atom    5 type  1   force =    -0.00149127    0.00494236   -0.00097672

     Total force =     0.019310     Total SCF correction =     0.000101

     number of scf cycles    =   5
     number of bfgs steps    =   4

     energy   old            =    -329.4778854989 Ry
     energy   new            =    -329.4800140644 Ry

     CASE: energy  _new < energy  _old

     new trust radius        =       0.0249550603 bohr
     new conv_thr            =       0.0000000012 Ry


ATOMIC_POSITIONS (bohr)
Au      -2.232227525   1.142071267  -0.305679931
Au       0.348433810   2.676690120   4.008106882
Au       2.842115780   0.857679795  -0.222063467
Au       4.704958099   4.527985594   5.935233749
Au       6.919744836   1.083350224   2.881207766



     Writing output data file pwscf.save
     Check: negative starting charge=   -0.006252
     NEW-OLD atomic charge density approx. for the potential
     Check: negative starting charge=   -0.006254

     negative rho (up, down):  1.835E-04 0.000E+00

     total cpu time spent up to now is       14.6 secs

     per-process dynamical memory:    50.7 Mb

     Self-consistent Calculation

     iteration #  1     ecut=    30.00 Ry     beta=0.70
     Davidson diagonalization with overlap
     ethr =  1.00E-06,  avg # of iterations =  4.0

     negative rho (up, down):  3.061E-06 0.000E+00

     total cpu time spent up to now is       14.9 secs

     total energy              =    -329.48047526 Ry
     Harris-Foulkes estimate   =    -329.48045806 Ry
     estimated scf accuracy    <       0.00012385 Ry

     iteration #  2     ecut=    30.00 Ry     beta=0.70
     Davidson diagonalization with overlap
     ethr =  2.25E-07,  avg # of iterations =  3.0

     negative rho (up, down):  5.509E-07 0.000E+00

     total cpu time spent up to now is       15.2 secs

     total energy              =    -329.48045898 Ry
     Harris-Foulkes estimate   =    -329.48055537 Ry
     estimated scf accuracy    <       0.00023766 Ry

     iteration #  3     ecut=    30.00 Ry     beta=0.70
     Davidson diagonalization with overlap
     ethr =  2.25E-07,  avg # of iterations =  3.0

     negative rho (up, down):  1.413E-08 0.000E+00

     total cpu time spent up to now is       15.4 secs

     total energy              =    -329.48050244 Ry
     Harris-Foulkes estimate   =    -329.48053571 Ry
     estimated scf accuracy    <       0.00012333 Ry

     iteration #  4     ecut=    30.00 Ry     beta=0.70
     Davidson diagonalization with overlap
     ethr =  2.24E-07,  avg # of iterations =  1.0

     total cpu time spent up to now is       15.6 secs

     total energy              =    -329.48052082 Ry
     Harris-Foulkes estimate   =    -329.48052203 Ry
     estimated scf accuracy    <       0.00000540 Ry

     iteration #  5     ecut=    30.00 Ry     beta=0.70
     Davidson diagonalization with overlap
     ethr =  9.82E-09,  avg # of iterations =  3.0

     total cpu time spent up to now is       15.8 secs

     total energy              =    -329.48052221 Ry
     Harris-Foulkes estimate   =    -329.48052295 Ry
     estimated scf accuracy    <       0.00000215 Ry

     iteration #  6     ecut=    30.00 Ry     beta=0.70
     Davidson diagonalization with overlap
     ethr =  3.90E-09,  avg # of iterations =  2.0

     total cpu time spent up to now is       16.0 secs

     total energy              =    -329.48052271 Ry
     Harris-Foulkes estimate   =    -329.48052263 Ry
     estimated scf accuracy    <       0.00000014 Ry

     iteration #  7     ecut=    30.00 Ry     beta=0.70
     Davidson diagonalization with overlap
     ethr =  2.46E-10,  avg # of iterations =  3.0

     total cpu time spent up to now is       16.3 secs

     total energy              =    -329.48052285 Ry
     Harris-Foulkes estimate   =    -329.48052275 Ry
     estimated scf accuracy    <       0.00000001 Ry

     iteration #  8     ecut=    30.00 Ry     beta=0.70
     Davidson diagonalization with overlap
     ethr =  1.90E-11,  avg # of iterations =  2.0

     total cpu time spent up to now is       16.5 secs

     total energy              =    -329.48052285 Ry
     Harris-Foulkes estimate   =    -329.48052285 Ry
     estimated scf accuracy    <          2.9E-09 Ry

     iteration #  9     ecut=    30.00 Ry     beta=0.70
     Davidson diagonalization with overlap
     ethr =  5.34E-12,  avg # of iterations =  2.0

     total cpu time spent up to now is       16.7 secs

     End of self-consistent calculation

          k = 0.0000 0.0000 0.0000 ( 22119 PWs)   bands (ev):

    -8.1143  -7.5055  -7.4603  -7.2881  -7.0228  -6.5807  -6.4786  -6.3826
    -6.2726  -6.0879  -5.9042  -5.6603  -5.6399  -5.6041  -5.5183  -5.4929
    -5.2354  -5.2167  -5.1942  -5.1089  -5.1078  -5.0338  -4.9740  -4.9011
    -4.8850  -4.6160  -4.3801  -3.7489  -2.5732  -2.1881  -0.4325  -0.2326
     0.3550   0.6043

     the Fermi energy is    -3.7280 ev

!    total energy              =    -329.48052289 Ry
     Harris-Foulkes estimate   =    -329.48052285 Ry
     estimated scf accuracy    <          9.2E-10 Ry

     The total energy is the sum of the following terms:

     one-electron contribution =    -597.07766865 Ry
     hartree contribution      =     320.09423401 Ry
     xc contribution           =     -51.38705156 Ry
     ewald contribution        =      -1.10822535 Ry
     smearing contrib. (-TS)   =      -0.00181135 Ry

     convergence has been achieved in   9 iterations

     Forces acting on atoms (Ry/au):

     atom    1 type  1   force =     0.00346207    0.00304448    0.00895834
     atom    2 type  1   force =    -0.00152475    0.00258573   -0.01158263
     atom    3 type  1   force =     0.00335567   -0.00321388    0.00451961
     atom    4 type  1   force =    -0.00297148   -0.00536280    0.00153648
     atom    5 type  1   force =    -0.00232151    0.00294646   -0.00343180

     Total force =     0.018775     Total SCF correction =     0.000131

     number of scf cycles    =   6
     number of bfgs steps    =   5

     energy   old            =    -329.4800140644 Ry
     energy   new            =    -329.4805228889 Ry

     CASE: energy  _new < energy  _old

     new trust radius        =       0.0274505663 bohr
     new conv_thr            =       0.0000000005 Ry


ATOMIC_POSITIONS (bohr)
Au      -2.244707286   1.149702196  -0.284345763
Au       0.344595042   2.685357102   3.982344878
Au       2.853212348   0.846318387  -0.225566567
Au       4.699336972   4.508422565   5.933129164
Au       6.930587923   1.097976751   2.891243288



     Writing output data file pwscf.save
     Check: negative starting charge=   -0.006254
     NEW-OLD atomic charge density approx. for the potential
     Check: negative starting charge=   -0.006255

     negative rho (up, down):  2.218E-04 0.000E+00

     total cpu time spent up to now is       16.9 secs

     per-process dynamical memory:    50.7 Mb

     Self-consistent Calculation

     iteration #  1     ecut=    30.00 Ry     beta=0.70
     Davidson diagonalization with overlap
     ethr =  1.00E-06,  avg # of iterations =  4.0

     negative rho (up, down):  4.354E-06 0.000E+00

     total cpu time spent up to now is       17.3 secs

     total energy              =    -329.48103869 Ry
     Harris-Foulkes estimate   =    -329.48101452 Ry
     estimated scf accuracy    <       0.00015209 Ry

     iteration #  2     ecut=    30.00 Ry     beta=0.70
     Davidson diagonalization with overlap
     ethr =  2.77E-07,  avg # of iterations =  3.0

     negative rho (up, down):  5.480E-07 0.000E+00

     total cpu time spent up to now is       17.5 secs

     total energy              =    -329.48104210 Ry
     Harris-Foulkes estimate   =    -329.48112265 Ry
     estimated scf accuracy    <       0.00017779 Ry

     iteration #  3     ecut=    30.00 Ry     beta=0.70
     Davidson diagonalization with overlap
     ethr =  2.77E-07,  avg # of iterations =  2.0

     negative rho (up, down):  2.971E-08 0.000E+00

     total cpu time spent up to now is       17.7 secs

     total energy              =    -329.48107049 Ry
     Harris-Foulkes estimate   =    -329.48110855 Ry
     estimated scf accuracy    <       0.00012932 Ry

     iteration #  4     ecut=    30.00 Ry     beta=0.70
     Davidson diagonalization with overlap
     ethr =  2.35E-07,  avg # of iterations =  1.0

     total cpu time spent up to now is       17.9 secs

     total energy              =    -329.48109118 Ry
     Harris-Foulkes estimate   =    -329.48109391 Ry
     estimated scf accuracy    <       0.00000982 Ry

     iteration #  5     ecut=    30.00 Ry     beta=0.70
     Davidson diagonalization with overlap
     ethr =  1.79E-08,  avg # of iterations =  3.0

     total cpu time spent up to now is       18.1 secs

     total energy              =    -329.48109257 Ry
     Harris-Foulkes estimate   =    -329.48109396 Ry
     estimated scf accuracy    <       0.00000262 Ry

     iteration #  6     ecut=    30.00 Ry     beta=0.70
     Davidson diagonalization with overlap
     ethr =  4.76E-09,  avg # of iterations =  2.0

     total cpu time spent up to now is       18.3 secs

     total energy              =    -329.48109320 Ry
     Harris-Foulkes estimate   =    -329.48109308 Ry
     estimated scf accuracy    <       0.00000012 Ry

     iteration #  7     ecut=    30.00 Ry     beta=0.70
     Davidson diagonalization with overlap
     ethr =  2.23E-10,  avg # of iterations =  3.0

     total cpu time spent up to now is       18.5 secs

     total energy              =    -329.48109321 Ry
     Harris-Foulkes estimate   =    -329.48109324 Ry
     estimated scf accuracy    <       0.00000001 Ry

     iteration #  8     ecut=    30.00 Ry     beta=0.70
     Davidson diagonalization with overlap
     ethr =  2.46E-11,  avg # of iterations =  2.0

     total cpu time spent up to now is       18.8 secs

     total energy              =    -329.48109323 Ry
     Harris-Foulkes estimate   =    -329.48109322 Ry
     estimated scf accuracy    <          4.3E-09 Ry

     iteration #  9     ecut=    30.00 Ry     beta=0.70
     Davidson diagonalization with overlap
     ethr =  7.79E-12,  avg # of iterations =  2.0

     total cpu time spent up to now is       19.0 secs

     total energy              =    -329.48109329 Ry
     Harris-Foulkes estimate   =    -329.48109324 Ry
     estimated scf accuracy    <          9.7E-10 Ry

     iteration # 10     ecut=    30.00 Ry     beta=0.70
     Davidson diagonalization with overlap
     ethr =  1.76E-12,  avg # of iterations =  2.0

     total cpu time spent up to now is       19.2 secs

     End of self-consistent calculation

          k = 0.0000 0.0000 0.0000 ( 22119 PWs)   bands (ev):

    -8.1218  -7.5148  -7.4586  -7.3042  -7.0410  -6.5860  -6.4750  -6.3896
    -6.2793  -6.0942  -5.9209  -5.6628  -5.6430  -5.6081  -5.5235  -5.4957
    -5.2340  -5.2201  -5.1935  -5.1057  -5.1038  -5.0311  -4.9739  -4.9007
    -4.8952  -4.6217  -4.3766  -3.7417  -2.5762  -2.1814  -0.4365  -0.2339
     0.3558   0.6102

     the Fermi energy is    -3.7196 ev

!    total energy              =    -329.48109331 Ry
     Harris-Foulkes estimate   =    -329.48109329 Ry
     estimated scf accuracy    <          1.3E-10 Ry

     The total energy is the sum of the following terms:

     one-electron contribution =    -597.61673920 Ry
     hartree contribution      =     320.35723470 Ry
     xc contribution           =     -51.38840544 Ry
     ewald contribution        =      -0.83110794 Ry
     smearing contrib. (-TS)   =      -0.00207544 Ry

     convergence has been achieved in  10 iterations

     Forces acting on atoms (Ry/au):

     atom    1 type  1   force =     0.00467891    0.00252332    0.00783938
     atom    2 type  1   force =    -0.00115285    0.00311877   -0.01026844
     atom    3 type  1   force =     0.00221339   -0.00308563    0.00443654
     atom    4 type  1   force =    -0.00346051   -0.00340917    0.00320396
     atom    5 type  1   force =    -0.00227894    0.00085271   -0.00521144

     Total force =     0.017529     Total SCF correction =     0.000041

     number of scf cycles    =   7
     number of bfgs steps    =   6

     energy   old            =    -329.4805228889 Ry
     energy   new            =    -329.4810933121 Ry

     CASE: energy  _new < energy  _old

     new trust radius        =       0.0411758494 bohr
     new conv_thr            =       0.0000000006 Ry


ATOMIC_POSITIONS (bohr)
Au      -2.254637278   1.160623061  -0.252925841
Au       0.339286747   2.698541110   3.943699639
Au       2.868117118   0.830298673  -0.225474306
Au       4.689511842   4.483256187   5.934193757
Au       6.940746572   1.115057969   2.897311751



     Writing output data file pwscf.save
     Check: negative starting charge=   -0.006255
     NEW-OLD atomic charge density approx. for the potential
     Check: negative starting charge=   -0.006247

     negative rho (up, down):  4.196E-04 0.000E+00

     total cpu time spent up to now is       19.4 secs

     per-process dynamical memory:    50.7 Mb

     Self-consistent Calculation

     iteration #  1     ecut=    30.00 Ry     beta=0.70
     Davidson diagonalization with overlap
     ethr =  1.00E-06,  avg # of iterations =  4.0

     negative rho (up, down):  1.454E-05 0.000E+00

     total cpu time spent up to now is       19.8 secs

     total energy              =    -329.48165292 Ry
     Harris-Foulkes estimate   =    -329.48153338 Ry
     estimated scf accuracy    <       0.00028707 Ry

     iteration #  2     ecut=    30.00 Ry     beta=0.70
     Davidson diagonalization with overlap
     ethr =  5.22E-07,  avg # of iterations =  4.0

     negative rho (up, down):  1.848E-06 0.000E+00

     total cpu time spent up to now is       20.1 secs

     total energy              =    -329.48169189 Ry
     Harris-Foulkes estimate   =    -329.48180034 Ry
     estimated scf accuracy    <       0.00023120 Ry

     iteration #  3     ecut=    30.00 Ry     beta=0.70
     Davidson diagonalization with overlap
     ethr =  4.20E-07,  avg # of iterations =  2.0

     negative rho (up, down):  1.548E-07 0.000E+00

     total cpu time spent up to now is       20.3 secs

     total energy              =    -329.48172697 Ry
     Harris-Foulkes estimate   =    -329.48177036 Ry
     estimated scf accuracy    <       0.00012690 Ry

     iteration #  4     ecut=    30.00 Ry     beta=0.70
     Davidson diagonalization with overlap
     ethr =  2.31E-07,  avg # of iterations =  2.0

     total cpu time spent up to now is       20.5 secs

     total energy              =    -329.48175101 Ry
     Harris-Foulkes estimate   =    -329.48176069 Ry
     estimated scf accuracy    <       0.00003743 Ry

     iteration #  5     ecut=    30.00 Ry     beta=0.70
     Davidson diagonalization with overlap
     ethr =  6.80E-08,  avg # of iterations =  1.0

     total cpu time spent up to now is       20.7 secs

     total energy              =    -329.48175587 Ry
     Harris-Foulkes estimate   =    -329.48175775 Ry
     estimated scf accuracy    <       0.00000394 Ry

     iteration #  6     ecut=    30.00 Ry     beta=0.70
     Davidson diagonalization with overlap
     ethr =  7.17E-09,  avg # of iterations =  2.0

     total cpu time spent up to now is       20.9 secs

     total energy              =    -329.48175659 Ry
     Harris-Foulkes estimate   =    -329.48175678 Ry
     estimated scf accuracy    <       0.00000010 Ry

     iteration #  7     ecut=    30.00 Ry     beta=0.70
     Davidson diagonalization with overlap
     ethr =  1.82E-10,  avg # of iterations =  3.0

     total cpu time spent up to now is       21.1 secs

     total energy              =    -329.48175654 Ry
     Harris-Foulkes estimate   =    -329.48175665 Ry
     estimated scf accuracy    <       0.00000004 Ry

     iteration #  8     ecut=    30.00 Ry     beta=0.70
     Davidson diagonalization with overlap
     ethr =  7.69E-11,  avg # of iterations =  2.0

     total cpu time spent up to now is       21.3 secs

     total energy              =    -329.48175651 Ry
     Harris-Foulkes estimate   =    -329.48175655 Ry
     estimated scf accuracy    <          9.6E-09 Ry

     iteration #  9     ecut=    30.00 Ry     beta=0.70
     Davidson diagonalization with overlap
     ethr =  1.75E-11,  avg # of iterations =  2.0

     total cpu time spent up to now is       21.5 secs

     total energy              =    -329.48175653 Ry
     Harris-Foulkes estimate   =    -329.48175651 Ry
     estimated scf accuracy    <          1.1E-09 Ry

     iteration # 10     ecut=    30.00 Ry     beta=0.70
     Davidson diagonalization with overlap
     ethr =  2.07E-12,  avg # of iterations =  3.0

     total cpu time spent up to now is       21.8 secs

     End of self-consistent calculation

          k = 0.0000 0.0000 0.0000 ( 22119 PWs)   bands (ev):

    -8.1469  -7.5301  -7.4708  -7.3208  -7.0628  -6.6034  -6.4689  -6.3992
    -6.2850  -6.1028  -5.9433  -5.6745  -5.6488  -5.6092  -5.5332  -5.4957
    -5.2316  -5.2261  -5.1913  -5.1017  -5.0964  -5.0259  -4.9707  -4.9031
    -4.8958  -4.6263  -4.3672  -3.7344  -2.5745  -2.1670  -0.4427  -0.2362
     0.3604   0.6218

     the Fermi energy is    -3.7121 ev

!    total energy              =    -329.48175648 Ry
     Harris-Foulkes estimate   =    -329.48175653 Ry
     estimated scf accuracy    <          2.0E-10 Ry

     The total energy is the sum of the following terms:

     one-electron contribution =    -598.78162119 Ry
     hartree contribution      =     320.93176431 Ry
     xc contribution           =     -51.39304171 Ry
     ewald contribution        =      -0.23672351 Ry
     smearing contrib. (-TS)   =      -0.00213439 Ry

     convergence has been achieved in  10 iterations

     Forces acting on atoms (Ry/au):

     atom    1 type  1   force =     0.00486340    0.00111097    0.00494510
     atom    2 type  1   force =    -0.00008514    0.00414081   -0.00656718
     atom    3 type  1   force =     0.00081975   -0.00291333    0.00325869
     atom    4 type  1   force =    -0.00391802   -0.00093581    0.00501475
     atom    5 type  1   force =    -0.00167999   -0.00140264   -0.00665136

     Total force =     0.014826     Total SCF correction =     0.000051

     number of scf cycles    =   8
     number of bfgs steps    =   7

     energy   old            =    -329.4810933121 Ry
     energy   new            =    -329.4817564820 Ry

     CASE: energy  _new < energy  _old

     new trust radius        =       0.0617637742 bohr
     new conv_thr            =       0.0000000007 Ry


ATOMIC_POSITIONS (bohr)
Au      -2.256646020   1.175319600  -0.207175479
Au       0.333068434   2.721117568   3.886547212
Au       2.888263854   0.806499270  -0.217872675
Au       4.671208278   4.451371550   5.943851625
Au       6.947130454   1.133469011   2.891454317



     Writing output data file pwscf.save
     Check: negative starting charge=   -0.006247
     NEW-OLD atomic charge density approx. for the potential
     Check: negative starting charge=   -0.006220

     negative rho (up, down):  8.237E-04 0.000E+00

     total cpu time spent up to now is       22.0 secs

     per-process dynamical memory:    50.7 Mb

     Self-consistent Calculation

     iteration #  1     ecut=    30.00 Ry     beta=0.70
     Davidson diagonalization with overlap
     ethr =  1.00E-06,  avg # of iterations =  6.0

     negative rho (up, down):  4.688E-05 0.000E+00

     total cpu time spent up to now is       22.4 secs

     total energy              =    -329.48200640 Ry
     Harris-Foulkes estimate   =    -329.48159000 Ry
     estimated scf accuracy    <       0.00061912 Ry

     iteration #  2     ecut=    30.00 Ry     beta=0.70
     Davidson diagonalization with overlap
     ethr =  1.13E-06,  avg # of iterations =  5.0

     negative rho (up, down):  7.579E-06 0.000E+00

     total cpu time spent up to now is       22.6 secs

     total energy              =    -329.48213112 Ry
     Harris-Foulkes estimate   =    -329.48231551 Ry
     estimated scf accuracy    <       0.00039795 Ry

     iteration #  3     ecut=    30.00 Ry     beta=0.70
     Davidson diagonalization with overlap
     ethr =  7.24E-07,  avg # of iterations =  2.0

     negative rho (up, down):  2.095E-08 0.000E+00

     total cpu time spent up to now is       22.8 secs

     total energy              =    -329.48221831 Ry
     Harris-Foulkes estimate   =    -329.48222984 Ry
     estimated scf accuracy    <       0.00003521 Ry

     iteration #  4     ecut=    30.00 Ry     beta=0.70
     Davidson diagonalization with overlap
     ethr =  6.40E-08,  avg # of iterations =  2.0

     total cpu time spent up to now is       23.1 secs

     total energy              =    -329.48221902 Ry
     Harris-Foulkes estimate   =    -329.48224416 Ry
     estimated scf accuracy    <       0.00008042 Ry

     iteration #  5     ecut=    30.00 Ry     beta=0.70
     Davidson diagonalization with overlap
     ethr =  6.40E-08,  avg # of iterations =  2.0

     total cpu time spent up to now is       23.3 secs

     total energy              =    -329.48223004 Ry
     Harris-Foulkes estimate   =    -329.48223449 Ry
     estimated scf accuracy    <       0.00001402 Ry

     iteration #  6     ecut=    30.00 Ry     beta=0.70
     Davidson diagonalization with overlap
     ethr =  2.55E-08,  avg # of iterations =  1.0

     total cpu time spent up to now is       23.5 secs

     total energy              =    -329.48223194 Ry
     Harris-Foulkes estimate   =    -329.48223215 Ry
     estimated scf accuracy    <       0.00000020 Ry

     iteration #  7     ecut=    30.00 Ry     beta=0.70
     Davidson diagonalization with overlap
     ethr =  3.63E-10,  avg # of iterations =  3.0

     total cpu time spent up to now is       23.7 secs

     total energy              =    -329.48223190 Ry
     Harris-Foulkes estimate   =    -329.48223209 Ry
     estimated scf accuracy    <       0.00000010 Ry

     iteration #  8     ecut=    30.00 Ry     beta=0.70
     Davidson diagonalization with overlap
     ethr =  1.79E-10,  avg # of iterations =  2.0

     total cpu time spent up to now is       24.0 secs

     total energy              =    -329.48223186 Ry
     Harris-Foulkes estimate   =    -329.48223192 Ry
     estimated scf accuracy    <       0.00000001 Ry

     iteration #  9     ecut=    30.00 Ry     beta=0.70
     Davidson diagonalization with overlap
     ethr =  2.68E-11,  avg # of iterations =  2.0

     total cpu time spent up to now is       24.2 secs

     total energy              =    -329.48223185 Ry
     Harris-Foulkes estimate   =    -329.48223186 Ry
     estimated scf accuracy    <          2.2E-09 Ry

     iteration # 10     ecut=    30.00 Ry     beta=0.70
     Davidson diagonalization with overlap
     ethr =  3.98E-12,  avg # of iterations =  2.0

     total cpu time spent up to now is       24.4 secs

     End of self-consistent calculation

          k = 0.0000 0.0000 0.0000 ( 22119 PWs)   bands (ev):

    -8.2018  -7.5536  -7.5062  -7.3378  -7.0859  -6.6400  -6.4598  -6.4095
    -6.2868  -6.1143  -5.9728  -5.7012  -5.6578  -5.6063  -5.5467  -5.4906
    -5.2369  -5.2251  -5.1895  -5.0943  -5.0861  -5.0160  -4.9603  -4.9027
    -4.8821  -4.6267  -4.3475  -3.7305  -2.5614  -2.1405  -0.4524  -0.2410
     0.3734   0.6439

     the Fermi energy is    -3.7106 ev

!    total energy              =    -329.48223182 Ry
     Harris-Foulkes estimate   =    -329.48223185 Ry
     estimated scf accuracy    <          4.5E-10 Ry

     The total energy is the sum of the following terms:

     one-electron contribution =    -600.96276362 Ry
     hartree contribution      =     322.01464953 Ry
     xc contribution           =     -51.40363137 Ry
     ewald contribution        =       0.87119857 Ry
     smearing contrib. (-TS)   =      -0.00168494 Ry

     convergence has been achieved in  10 iterations

     Forces acting on atoms (Ry/au):

     atom    1 type  1   force =     0.00244719   -0.00224134   -0.00216980
     atom    2 type  1   force =     0.00302741    0.00570264    0.00183696
     atom    3 type  1   force =    -0.00109721   -0.00249891    0.00039704
     atom    4 type  1   force =    -0.00395004    0.00170192    0.00636210
     atom    5 type  1   force =    -0.00042734   -0.00266432   -0.00642631

     Total force =     0.013264     Total SCF correction =     0.000079

     number of scf cycles    =   9
     number of bfgs steps    =   8

     energy   old            =    -329.4817564820 Ry
     energy   new            =    -329.4822318229 Ry

     CASE: energy  _new < energy  _old

     new trust radius        =       0.0151478675 bohr
     new conv_thr            =       0.0000000005 Ry


ATOMIC_POSITIONS (bohr)
Au      -2.247052602   1.172992206  -0.209327593
Au       0.336106521   2.725488156   3.887788641
Au       2.886727116   0.805501433  -0.212008045
Au       4.667165801   4.454964672   5.951475741
Au       6.940078165   1.128830533   2.878876256



     Writing output data file pwscf.save
     Check: negative starting charge=   -0.006220
     NEW-OLD atomic charge density approx. for the potential
     Check: negative starting charge=   -0.006219

     negative rho (up, down):  2.105E-05 0.000E+00

     total cpu time spent up to now is       24.6 secs

     per-process dynamical memory:    50.7 Mb

     Self-consistent Calculation

     iteration #  1     ecut=    30.00 Ry     beta=0.70
     Davidson diagonalization with overlap
     ethr =  1.00E-06,  avg # of iterations =  4.0

     Threshold (ethr) on eigenvalues was too large:
     Diagonalizing with lowered threshold

     Davidson diagonalization with overlap
     ethr =  4.41E-08,  avg # of iterations =  1.0

     negative rho (up, down):  5.057E-08 0.000E+00

     total cpu time spent up to now is       25.1 secs

     total energy              =    -329.48242937 Ry
     Harris-Foulkes estimate   =    -329.48242774 Ry
     estimated scf accuracy    <       0.00002448 Ry

     iteration #  2     ecut=    30.00 Ry     beta=0.70
     Davidson diagonalization with overlap
     ethr =  4.45E-08,  avg # of iterations =  3.0

     total cpu time spent up to now is       25.3 secs

     total energy              =    -329.48242140 Ry
     Harris-Foulkes estimate   =    -329.48244642 Ry
     estimated scf accuracy    <       0.00006711 Ry

     iteration #  3     ecut=    30.00 Ry     beta=0.70
     Davidson diagonalization with overlap
     ethr =  4.45E-08,  avg # of iterations =  3.0

     total cpu time spent up to now is       25.5 secs

     total energy              =    -329.48243329 Ry
     Harris-Foulkes estimate   =    -329.48243965 Ry
     estimated scf accuracy    <       0.00002362 Ry

     iteration #  4     ecut=    30.00 Ry     beta=0.70
     Davidson diagonalization with overlap
     ethr =  4.29E-08,  avg # of iterations =  1.0

     total cpu time spent up to now is       25.7 secs

     total energy              =    -329.48243578 Ry
     Harris-Foulkes estimate   =    -329.48243699 Ry
     estimated scf accuracy    <       0.00000133 Ry

     iteration #  5     ecut=    30.00 Ry     beta=0.70
     Davidson diagonalization with overlap
     ethr =  2.42E-09,  avg # of iterations =  3.0

     total cpu time spent up to now is       25.9 secs

     total energy              =    -329.48243602 Ry
     Harris-Foulkes estimate   =    -329.48243628 Ry
     estimated scf accuracy    <       0.00000043 Ry

     iteration #  6     ecut=    30.00 Ry     beta=0.70
     Davidson diagonalization with overlap
     ethr =  7.91E-10,  avg # of iterations =  2.0

     total cpu time spent up to now is       26.1 secs

     total energy              =    -329.48243594 Ry
     Harris-Foulkes estimate   =    -329.48243612 Ry
     estimated scf accuracy    <       0.00000003 Ry

     iteration #  7     ecut=    30.00 Ry     beta=0.70
     Davidson diagonalization with overlap
     ethr =  5.12E-11,  avg # of iterations =  3.0

     total cpu time spent up to now is       26.4 secs

     total energy              =    -329.48243582 Ry
     Harris-Foulkes estimate   =    -329.48243595 Ry
     estimated scf accuracy    <          4.7E-09 Ry

     iteration #  8     ecut=    30.00 Ry     beta=0.70
     Davidson diagonalization with overlap
     ethr =  8.59E-12,  avg # of iterations =  3.0

     total cpu time spent up to now is       26.6 secs

     total energy              =    -329.48243584 Ry
     Harris-Foulkes estimate   =    -329.48243582 Ry
     estimated scf accuracy    <          9.3E-10 Ry

     iteration #  9     ecut=    30.00 Ry     beta=0.70
     Davidson diagonalization with overlap
     ethr =  1.69E-12,  avg # of iterations =  3.0

     total cpu time spent up to now is       26.8 secs

     End of self-consistent calculation

          k = 0.0000 0.0000 0.0000 ( 22119 PWs)   bands (ev):

    -8.2096  -7.5543  -7.5144  -7.3380  -7.0783  -6.6430  -6.4612  -6.4070
    -6.2823  -6.1144  -5.9683  -5.7004  -5.6575  -5.6075  -5.5441  -5.4895
    -5.2375  -5.2220  -5.1922  -5.0929  -5.0863  -5.0121  -4.9566  -4.8948
    -4.8788  -4.6213  -4.3430  -3.7371  -2.5506  -2.1382  -0.4530  -0.2428
     0.3784   0.6482

     the Fermi energy is    -3.7194 ev

!    total energy              =    -329.48243580 Ry
     Harris-Foulkes estimate   =    -329.48243584 Ry
     estimated scf accuracy    <          2.0E-10 Ry

     The total energy is the sum of the following terms:

     one-electron contribution =    -601.29557153 Ry
     hartree contribution      =     322.18467319 Ry
     xc contribution           =     -51.40618878 Ry
     ewald contribution        =       1.03587380 Ry
     smearing contrib. (-TS)   =      -0.00122249 Ry

     convergence has been achieved in   9 iterations

     Forces acting on atoms (Ry/au):

     atom    1 type  1   force =     0.00109698   -0.00207398   -0.00211913
     atom    2 type  1   force =     0.00262988    0.00553778    0.00174785
     atom    3 type  1   force =    -0.00138372   -0.00275082   -0.00083738
     atom    4 type  1   force =    -0.00262190    0.00050552    0.00545109
     atom    5 type  1   force =     0.00027876   -0.00121849   -0.00424243

     Total force =     0.010827     Total SCF correction =     0.000055

     number of scf cycles    =  10
     number of bfgs steps    =   9

     energy   old            =    -329.4822318229 Ry
     energy   new            =    -329.4824357976 Ry

     CASE: energy  _new < energy  _old

     new trust radius        =       0.0166626543 bohr
     new conv_thr            =       0.0000000002 Ry


ATOMIC_POSITIONS (bohr)
Au      -2.237586024   1.170015482  -0.210006464
Au       0.340750242   2.736192380   3.886357076
Au       2.885354599   0.800206939  -0.207071396
Au       4.660483398   4.455735468   5.963838738
Au       6.934022786   1.125626731   2.863687046



     Writing output data file pwscf.save
     Check: negative starting charge=   -0.006219
     NEW-OLD atomic charge density approx. for the potential
     Check: negative starting charge=   -0.006223

     negative rho (up, down):  4.642E-05 0.000E+00

     total cpu time spent up to now is       27.0 secs

     per-process dynamical memory:    50.7 Mb

     Self-consistent Calculation

     iteration #  1     ecut=    30.00 Ry     beta=0.70
     Davidson diagonalization with overlap
     ethr =  1.00E-06,  avg # of iterations =  4.0

     Threshold (ethr) on eigenvalues was too large:
     Diagonalizing with lowered threshold

     Davidson diagonalization with overlap
     ethr =  9.33E-08,  avg # of iterations =  1.0

     negative rho (up, down):  2.284E-07 0.000E+00

     total cpu time spent up to now is       27.5 secs

     total energy              =    -329.48262223 Ry
     Harris-Foulkes estimate   =    -329.48262968 Ry
     estimated scf accuracy    <       0.00005124 Ry

     iteration #  2     ecut=    30.00 Ry     beta=0.70
     Davidson diagonalization with overlap
     ethr =  9.32E-08,  avg # of iterations =  3.0

     negative rho (up, down):  2.157E-08 0.000E+00

     total cpu time spent up to now is       27.8 secs

     total energy              =    -329.48261766 Ry
     Harris-Foulkes estimate   =    -329.48265295 Ry
     estimated scf accuracy    <       0.00008205 Ry

     iteration #  3     ecut=    30.00 Ry     beta=0.70
     Davidson diagonalization with overlap
     ethr =  9.32E-08,  avg # of iterations =  2.0

     total cpu time spent up to now is       28.0 secs

     total energy              =    -329.48262965 Ry
     Harris-Foulkes estimate   =    -329.48264711 Ry
     estimated scf accuracy    <       0.00006187 Ry

     iteration #  4     ecut=    30.00 Ry     beta=0.70
     Davidson diagonalization with overlap
     ethr =  9.32E-08,  avg # of iterations =  1.0

     total cpu time spent up to now is       28.1 secs

     total energy              =    -329.48263723 Ry
     Harris-Foulkes estimate   =    -329.48263894 Ry
     estimated scf accuracy    <       0.00000234 Ry

     iteration #  5     ecut=    30.00 Ry     beta=0.70
     Davidson diagonalization with overlap
     ethr =  4.26E-09,  avg # of iterations =  3.0

     total cpu time spent up to now is       28.4 secs

     total energy              =    -329.48263738 Ry
     Harris-Foulkes estimate   =    -329.48263812 Ry
     estimated scf accuracy    <       0.00000095 Ry

     iteration #  6     ecut=    30.00 Ry     beta=0.70
     Davidson diagonalization with overlap
     ethr =  1.72E-09,  avg # of iterations =  2.0

     total cpu time spent up to now is       28.6 secs

     total energy              =    -329.48263745 Ry
     Harris-Foulkes estimate   =    -329.48263757 Ry
     estimated scf accuracy    <       0.00000007 Ry

     iteration #  7     ecut=    30.00 Ry     beta=0.70
     Davidson diagonalization with overlap
     ethr =  1.24E-10,  avg # of iterations =  2.0

     total cpu time spent up to now is       28.8 secs

     total energy              =    -329.48263749 Ry
     Harris-Foulkes estimate   =    -329.48263747 Ry
     estimated scf accuracy    <          9.5E-09 Ry

     iteration #  8     ecut=    30.00 Ry     beta=0.70
     Davidson diagonalization with overlap
     ethr =  1.72E-11,  avg # of iterations =  3.0

     total cpu time spent up to now is       29.1 secs

     total energy              =    -329.48263752 Ry
     Harris-Foulkes estimate   =    -329.48263749 Ry
     estimated scf accuracy    <          1.7E-09 Ry

     iteration #  9     ecut=    30.00 Ry     beta=0.70
     Davidson diagonalization with overlap
     ethr =  3.10E-12,  avg # of iterations =  3.0

     total cpu time spent up to now is       29.3 secs

     total energy              =    -329.48263752 Ry
     Harris-Foulkes estimate   =    -329.48263752 Ry
     estimated scf accuracy    <          5.0E-10 Ry

     iteration # 10     ecut=    30.00 Ry     beta=0.70
     Davidson diagonalization with overlap
     ethr =  9.10E-13,  avg # of iterations =  2.0

     total cpu time spent up to now is       29.5 secs

     End of self-consistent calculation

          k = 0.0000 0.0000 0.0000 ( 22119 PWs)   bands (ev):

    -8.2172  -7.5551  -7.5242  -7.3351  -7.0668  -6.6457  -6.4612  -6.4029
    -6.2753  -6.1136  -5.9639  -5.7003  -5.6558  -5.6077  -5.5407  -5.4867
    -5.2399  -5.2170  -5.1962  -5.0912  -5.0863  -5.0069  -4.9510  -4.8856
    -4.8743  -4.6148  -4.3383  -3.7464  -2.5386  -2.1343  -0.4543  -0.2462
     0.3848   0.6551

     the Fermi energy is    -3.7317 ev

!    total energy              =    -329.48263753 Ry
     Harris-Foulkes estimate   =    -329.48263752 Ry
     estimated scf accuracy    <          5.6E-11 Ry

     The total energy is the sum of the following terms:

     one-electron contribution =    -601.57122205 Ry
     hartree contribution      =     322.32786455 Ry
     xc contribution           =     -51.40908101 Ry
     ewald contribution        =       1.17040827 Ry
     smearing contrib. (-TS)   =      -0.00060728 Ry

     convergence has been achieved in  10 iterations

     Forces acting on atoms (Ry/au):

     atom    1 type  1   force =    -0.00025007   -0.00193962   -0.00221734
     atom    2 type  1   force =     0.00218162    0.00503317    0.00126299
     atom    3 type  1   force =    -0.00191630   -0.00283717   -0.00208743
     atom    4 type  1   force =    -0.00084118   -0.00065065    0.00459429
     atom    5 type  1   force =     0.00082592    0.00039428   -0.00155251

     Total force =     0.009055     Total SCF correction =     0.000037

     number of scf cycles    =  11
     number of bfgs steps    =  10

     energy   old            =    -329.4824357976 Ry
     energy   new            =    -329.4826375292 Ry

     CASE: energy  _new < energy  _old

     new trust radius        =       0.0249939814 bohr
     new conv_thr            =       0.0000000002 Ry


ATOMIC_POSITIONS (bohr)
Au      -2.228060386   1.165182354  -0.209258507
Au       0.348833564   2.758731662   3.880259146
Au       2.883272053   0.787048462  -0.204110758
Au       4.649633487   4.451820880   5.986012022
Au       6.929346282   1.124993642   2.843903097



     Writing output data file pwscf.save
     Check: negative starting charge=   -0.006223
     NEW-OLD atomic charge density approx. for the potential
     Check: negative starting charge=   -0.006235

     negative rho (up, down):  1.708E-04 0.000E+00

     total cpu time spent up to now is       29.7 secs

     per-process dynamical memory:    50.7 Mb

     Self-consistent Calculation

     iteration #  1     ecut=    30.00 Ry     beta=0.70
     Davidson diagonalization with overlap
     ethr =  1.00E-06,  avg # of iterations =  4.0

     negative rho (up, down):  2.646E-06 0.000E+00

     total cpu time spent up to now is       30.1 secs

     total energy              =    -329.48280697 Ry
     Harris-Foulkes estimate   =    -329.48283735 Ry
     estimated scf accuracy    <       0.00017122 Ry

     iteration #  2     ecut=    30.00 Ry     beta=0.70
     Davidson diagonalization with overlap
     ethr =  3.11E-07,  avg # of iterations =  2.0

     negative rho (up, down):  2.841E-07 0.000E+00

     total cpu time spent up to now is       30.3 secs

     total energy              =    -329.48282267 Ry
     Harris-Foulkes estimate   =    -329.48290569 Ry
     estimated scf accuracy    <       0.00017716 Ry

     iteration #  3     ecut=    30.00 Ry     beta=0.70
     Davidson diagonalization with overlap
     ethr =  3.11E-07,  avg # of iterations =  2.0

     negative rho (up, down):  3.009E-08 0.000E+00

     total cpu time spent up to now is       30.5 secs

     total energy              =    -329.48284525 Ry
     Harris-Foulkes estimate   =    -329.48288564 Ry
     estimated scf accuracy    <       0.00013881 Ry

     iteration #  4     ecut=    30.00 Ry     beta=0.70
     Davidson diagonalization with overlap
     ethr =  2.52E-07,  avg # of iterations =  1.0

     total cpu time spent up to now is       30.7 secs

     total energy              =    -329.48286469 Ry
     Harris-Foulkes estimate   =    -329.48286935 Ry
     estimated scf accuracy    <       0.00001118 Ry

     iteration #  5     ecut=    30.00 Ry     beta=0.70
     Davidson diagonalization with overlap
     ethr =  2.03E-08,  avg # of iterations =  2.0

     total cpu time spent up to now is       30.9 secs

     total energy              =    -329.48286589 Ry
     Harris-Foulkes estimate   =    -329.48286737 Ry
     estimated scf accuracy    <       0.00000258 Ry

     iteration #  6     ecut=    30.00 Ry     beta=0.70
     Davidson diagonalization with overlap
     ethr =  4.69E-09,  avg # of iterations =  2.0

     total cpu time spent up to now is       31.1 secs

     total energy              =    -329.48286611 Ry
     Harris-Foulkes estimate   =    -329.48286640 Ry
     estimated scf accuracy    <       0.00000016 Ry

     iteration #  7     ecut=    30.00 Ry     beta=0.70
     Davidson diagonalization with overlap
     ethr =  2.86E-10,  avg # of iterations =  3.0

     total cpu time spent up to now is       31.3 secs

     total energy              =    -329.48286613 Ry
     Harris-Foulkes estimate   =    -329.48286615 Ry
     estimated scf accuracy    <       0.00000003 Ry

     iteration #  8     ecut=    30.00 Ry     beta=0.70
     Davidson diagonalization with overlap
     ethr =  4.82E-11,  avg # of iterations =  3.0

     total cpu time spent up to now is       31.6 secs

     total energy              =    -329.48286610 Ry
     Harris-Foulkes estimate   =    -329.48286614 Ry
     estimated scf accuracy    <          5.2E-09 Ry

     iteration #  9     ecut=    30.00 Ry     beta=0.70
     Davidson diagonalization with overlap
     ethr =  9.47E-12,  avg # of iterations =  3.0

     total cpu time spent up to now is       31.8 secs

     total energy              =    -329.48286604 Ry
     Harris-Foulkes estimate   =    -329.48286610 Ry
     estimated scf accuracy    <          1.0E-09 Ry

     iteration # 10     ecut=    30.00 Ry     beta=0.70
     Davidson diagonalization with overlap
     ethr =  1.90E-12,  avg # of iterations =  2.0

     total cpu time spent up to now is       32.0 secs

     End of self-consistent calculation

          k = 0.0000 0.0000 0.0000 ( 22119 PWs)   bands (ev):

    -8.2235  -7.5580  -7.5319  -7.3275  -7.0479  -6.6475  -6.4585  -6.3962
    -6.2638  -6.1113  -5.9591  -5.7009  -5.6514  -5.6064  -5.5358  -5.4809
    -5.2447  -5.2094  -5.2022  -5.0890  -5.0859  -4.9996  -4.9426  -4.8739
    -4.8684  -4.6065  -4.3337  -3.7607  -2.5245  -2.1284  -0.4564  -0.2522
     0.3932   0.6662

     the Fermi energy is    -3.7503 ev

!    total energy              =    -329.48286604 Ry
     Harris-Foulkes estimate   =    -329.48286604 Ry
     estimated scf accuracy    <          1.1E-10 Ry

     The total energy is the sum of the following terms:

     one-electron contribution =    -601.68485562 Ry
     hartree contribution      =     322.39313771 Ry
     xc contribution           =     -51.41228523 Ry
     ewald contribution        =       1.22086864 Ry
     smearing contrib. (-TS)   =       0.00026846 Ry

     convergence has been achieved in  10 iterations

     Forces acting on atoms (Ry/au):

     atom    1 type  1   force =    -0.00153461   -0.00180352   -0.00237329
     atom    2 type  1   force =     0.00146005    0.00396770   -0.00003081
     atom    3 type  1   force =    -0.00266721   -0.00268330   -0.00321662
     atom    4 type  1   force =     0.00173780   -0.00181911    0.00386462
     atom    5 type  1   force =     0.00100397    0.00233823    0.00175610

     Total force =     0.009198     Total SCF correction =     0.000051

     number of scf cycles    =  12
     number of bfgs steps    =  11

     energy   old            =    -329.4826375292 Ry
     energy   new            =    -329.4828660391 Ry

     CASE: energy  _new < energy  _old

     new trust radius        =       0.0374909721 bohr
     new conv_thr            =       0.0000000002 Ry


ATOMIC_POSITIONS (bohr)
Au      -2.222376779   1.159105984  -0.206205954
Au       0.359215281   2.792162268   3.866835751
Au       2.880569395   0.765646355  -0.205693518
Au       4.637084227   4.441059709   6.016704115
Au       6.928532876   1.129802685   2.825164606



     Writing output data file pwscf.save
     Check: negative starting charge=   -0.006235
     NEW-OLD atomic charge density approx. for the potential
     Check: negative starting charge=   -0.006247

     negative rho (up, down):  3.398E-04 0.000E+00

     total cpu time spent up to now is       32.3 secs

     per-process dynamical memory:    50.7 Mb

     Self-consistent Calculation

     iteration #  1     ecut=    30.00 Ry     beta=0.70
     Davidson diagonalization with overlap
     ethr =  1.00E-06,  avg # of iterations =  4.0

     negative rho (up, down):  9.643E-06 0.000E+00

     total cpu time spent up to now is       32.6 secs

     total energy              =    -329.48297366 Ry
     Harris-Foulkes estimate   =    -329.48300893 Ry
     estimated scf accuracy    <       0.00036401 Ry

     iteration #  2     ecut=    30.00 Ry     beta=0.70
     Davidson diagonalization with overlap
     ethr =  6.62E-07,  avg # of iterations =  3.0

     negative rho (up, down):  1.091E-06 0.000E+00

[...]
     ethr =  5.32E-08,  avg # of iterations =  2.0

     total cpu time spent up to now is      126.3 secs

     total energy              =    -329.49279231 Ry
     Harris-Foulkes estimate   =    -329.49279628 Ry
     estimated scf accuracy    <       0.00001010 Ry

     iteration #  4     ecut=    30.00 Ry     beta=0.70
     Davidson diagonalization with overlap
     ethr =  1.84E-08,  avg # of iterations =  2.0

     total cpu time spent up to now is      126.4 secs

     total energy              =    -329.49279421 Ry
     Harris-Foulkes estimate   =    -329.49279472 Ry
     estimated scf accuracy    <       0.00000129 Ry

     iteration #  5     ecut=    30.00 Ry     beta=0.70
     Davidson diagonalization with overlap
     ethr =  2.35E-09,  avg # of iterations =  3.0

     total cpu time spent up to now is      126.7 secs

     total energy              =    -329.49279442 Ry
     Harris-Foulkes estimate   =    -329.49279462 Ry
     estimated scf accuracy    <       0.00000038 Ry

     iteration #  6     ecut=    30.00 Ry     beta=0.70
     Davidson diagonalization with overlap
     ethr =  6.98E-10,  avg # of iterations =  2.0

     total cpu time spent up to now is      126.9 secs

     total energy              =    -329.49279438 Ry
     Harris-Foulkes estimate   =    -329.49279451 Ry
     estimated scf accuracy    <       0.00000002 Ry

     iteration #  7     ecut=    30.00 Ry     beta=0.70
     Davidson diagonalization with overlap
     ethr =  4.25E-11,  avg # of iterations =  3.0

     total cpu time spent up to now is      127.1 secs

     total energy              =    -329.49279442 Ry
     Harris-Foulkes estimate   =    -329.49279439 Ry
     estimated scf accuracy    <          5.7E-09 Ry

     iteration #  8     ecut=    30.00 Ry     beta=0.70
     Davidson diagonalization with overlap
     ethr =  1.03E-11,  avg # of iterations =  2.0

     total cpu time spent up to now is      127.4 secs

     total energy              =    -329.49279441 Ry
     Harris-Foulkes estimate   =    -329.49279442 Ry
     estimated scf accuracy    <          1.6E-09 Ry

     iteration #  9     ecut=    30.00 Ry     beta=0.70
     Davidson diagonalization with overlap
     ethr =  2.87E-12,  avg # of iterations =  2.0

     total cpu time spent up to now is      127.6 secs

     total energy              =    -329.49279442 Ry
     Harris-Foulkes estimate   =    -329.49279441 Ry
     estimated scf accuracy    <          2.0E-10 Ry

     iteration # 10     ecut=    30.00 Ry     beta=0.70
     Davidson diagonalization with overlap
     ethr =  3.69E-13,  avg # of iterations =  2.0

     total cpu time spent up to now is      127.8 secs

     End of self-consistent calculation

          k = 0.0000 0.0000 0.0000 ( 22119 PWs)   bands (ev):

    -8.4789  -7.7696  -7.6324  -7.2346  -6.8390  -6.7952  -6.6190  -6.4679
    -6.3076  -6.0614  -5.9557  -5.7570  -5.7179  -5.6720  -5.4620  -5.3494
    -5.3058  -5.2440  -5.1908  -5.1816  -5.1667  -5.1196  -5.0018  -4.9237
    -4.8415  -4.7311  -4.4840  -3.7449  -2.4060  -2.2418  -0.5217  -0.1892
     0.3911   0.7467

     the Fermi energy is    -3.7079 ev

!    total energy              =    -329.49279442 Ry
     Harris-Foulkes estimate   =    -329.49279442 Ry
     estimated scf accuracy    <          1.9E-11 Ry

     The total energy is the sum of the following terms:

     one-electron contribution =    -603.62325292 Ry
     hartree contribution      =     323.25486401 Ry
     xc contribution           =     -51.39428095 Ry
     ewald contribution        =       2.27528237 Ry
     smearing contrib. (-TS)   =      -0.00540692 Ry

     convergence has been achieved in  10 iterations

     Forces acting on atoms (Ry/au):

     atom    1 type  1   force =     0.00059611   -0.00045330    0.00060679
     atom    2 type  1   force =    -0.00104243    0.00107844   -0.00050302
     atom    3 type  1   force =     0.00214226   -0.00009732    0.00057474
     atom    4 type  1   force =    -0.00021741    0.00069752    0.00053928
     atom    5 type  1   force =    -0.00147852   -0.00122534   -0.00121779

     Total force =     0.003789     Total SCF correction =     0.000021

     number of scf cycles    =  48
     number of bfgs steps    =  47

     energy   old            =    -329.4927619790 Ry
     energy   new            =    -329.4927944197 Ry

     CASE: energy  _new < energy  _old

     new trust radius        =       0.0171188616 bohr
     new conv_thr            =            1.0E-10 Ry


ATOMIC_POSITIONS (bohr)
Au      -2.071238925   1.422786824  -0.177736126
Au       1.061187479   2.991959905   3.493394530
Au       2.815655371  -0.044162052  -0.742965580
Au       4.568226720   4.373982214   6.863768905
Au       6.209194355   1.543210109   2.860343271



     Writing output data file pwscf.save
     Check: negative starting charge=   -0.006191
     NEW-OLD atomic charge density approx. for the potential
     Check: negative starting charge=   -0.006179

     negative rho (up, down):  5.389E-05 0.000E+00

     total cpu time spent up to now is      128.0 secs

     per-process dynamical memory:    50.7 Mb

     Self-consistent Calculation

     iteration #  1     ecut=    30.00 Ry     beta=0.70
     Davidson diagonalization with overlap
     ethr =  1.00E-06,  avg # of iterations =  4.0

     Threshold (ethr) on eigenvalues was too large:
     Diagonalizing with lowered threshold

     Davidson diagonalization with overlap
     ethr =  9.69E-08,  avg # of iterations =  1.0

     negative rho (up, down):  2.480E-07 0.000E+00

     total cpu time spent up to now is      128.5 secs

     total energy              =    -329.49281301 Ry
     Harris-Foulkes estimate   =    -329.49281661 Ry
     estimated scf accuracy    <       0.00005347 Ry

     iteration #  2     ecut=    30.00 Ry     beta=0.70
     Davidson diagonalization with overlap
     ethr =  9.72E-08,  avg # of iterations =  2.0

     negative rho (up, down):  1.329E-08 0.000E+00

     total cpu time spent up to now is      128.7 secs

     total energy              =    -329.49281250 Ry
     Harris-Foulkes estimate   =    -329.49284521 Ry
     estimated scf accuracy    <       0.00006945 Ry

     iteration #  3     ecut=    30.00 Ry     beta=0.70
     Davidson diagonalization with overlap
     ethr =  9.72E-08,  avg # of iterations =  2.0

     total cpu time spent up to now is      128.9 secs

     total energy              =    -329.49282796 Ry
     Harris-Foulkes estimate   =    -329.49283477 Ry
     estimated scf accuracy    <       0.00002074 Ry

     iteration #  4     ecut=    30.00 Ry     beta=0.70
     Davidson diagonalization with overlap
     ethr =  3.77E-08,  avg # of iterations =  2.0

     total cpu time spent up to now is      129.1 secs

     total energy              =    -329.49283150 Ry
     Harris-Foulkes estimate   =    -329.49283276 Ry
     estimated scf accuracy    <       0.00000245 Ry

     iteration #  5     ecut=    30.00 Ry     beta=0.70
     Davidson diagonalization with overlap
     ethr =  4.45E-09,  avg # of iterations =  3.0

     total cpu time spent up to now is      129.3 secs

     total energy              =    -329.49283179 Ry
     Harris-Foulkes estimate   =    -329.49283223 Ry
     estimated scf accuracy    <       0.00000062 Ry

     iteration #  6     ecut=    30.00 Ry     beta=0.70
     Davidson diagonalization with overlap
     ethr =  1.12E-09,  avg # of iterations =  2.0

     total cpu time spent up to now is      129.5 secs

     total energy              =    -329.49283183 Ry
     Harris-Foulkes estimate   =    -329.49283193 Ry
     estimated scf accuracy    <       0.00000004 Ry

     iteration #  7     ecut=    30.00 Ry     beta=0.70
     Davidson diagonalization with overlap
     ethr =  6.70E-11,  avg # of iterations =  3.0

     total cpu time spent up to now is      129.8 secs

     total energy              =    -329.49283187 Ry
     Harris-Foulkes estimate   =    -329.49283185 Ry
     estimated scf accuracy    <          5.3E-09 Ry

     iteration #  8     ecut=    30.00 Ry     beta=0.70
     Davidson diagonalization with overlap
     ethr =  9.66E-12,  avg # of iterations =  2.0

     total cpu time spent up to now is      130.0 secs

     total energy              =    -329.49283185 Ry
     Harris-Foulkes estimate   =    -329.49283188 Ry
     estimated scf accuracy    <          1.4E-09 Ry

     iteration #  9     ecut=    30.00 Ry     beta=0.70
     Davidson diagonalization with overlap
     ethr =  2.61E-12,  avg # of iterations =  2.0

     total cpu time spent up to now is      130.2 secs

     total energy              =    -329.49283183 Ry
     Harris-Foulkes estimate   =    -329.49283185 Ry
     estimated scf accuracy    <          5.0E-10 Ry

     iteration # 10     ecut=    30.00 Ry     beta=0.70
     Davidson diagonalization with overlap
     ethr =  9.08E-13,  avg # of iterations =  2.0

     total cpu time spent up to now is      130.4 secs

     End of self-consistent calculation

          k = 0.0000 0.0000 0.0000 ( 22119 PWs)   bands (ev):

    -8.4767  -7.7668  -7.6251  -7.2302  -6.8445  -6.7950  -6.6181  -6.4645
    -6.3040  -6.0599  -5.9589  -5.7569  -5.7186  -5.6714  -5.4570  -5.3501
    -5.3064  -5.2419  -5.1910  -5.1838  -5.1655  -5.1213  -5.0003  -4.9243
    -4.8500  -4.7253  -4.4847  -3.7455  -2.4051  -2.2432  -0.5204  -0.1910
     0.3911   0.7445

     the Fermi energy is    -3.7085 ev

!    total energy              =    -329.49283184 Ry
     Harris-Foulkes estimate   =    -329.49283183 Ry
     estimated scf accuracy    <          3.7E-11 Ry

     The total energy is the sum of the following terms:

     one-electron contribution =    -603.40723826 Ry
     hartree contribution      =     323.14780797 Ry
     xc contribution           =     -51.39378989 Ry
     ewald contribution        =       2.16578433 Ry
     smearing contrib. (-TS)   =      -0.00539599 Ry

     convergence has been achieved in  10 iterations

     Forces acting on atoms (Ry/au):

     atom    1 type  1   force =     0.00069762   -0.00024837    0.00071348
     atom    2 type  1   force =    -0.00123935    0.00043108   -0.00126833
     atom    3 type  1   force =     0.00247205    0.00034537    0.00112755
     atom    4 type  1   force =     0.00014474    0.00075794    0.00078794
     atom    5 type  1   force =    -0.00207505   -0.00128602   -0.00136064

     Total force =     0.004573     Total SCF correction =     0.000028

     number of scf cycles    =  49
     number of bfgs steps    =  48

     energy   old            =    -329.4927944197 Ry
     energy   new            =    -329.4928318394 Ry

     CASE: energy  _new < energy  _old

     new trust radius        =       0.0256782924 bohr
     new conv_thr            =            1.0E-10 Ry


ATOMIC_POSITIONS (bohr)
Au      -2.053857683   1.418130416  -0.174279117
Au       1.064206737   3.009593191   3.497656850
Au       2.820587972  -0.062350056  -0.760408075
Au       4.563433666   4.384135733   6.871614176
Au       6.188654308   1.538267716   2.862221166



     Writing output data file pwscf.save
     Check: negative starting charge=   -0.006179
     NEW-OLD atomic charge density approx. for the potential
     Check: negative starting charge=   -0.006167

     negative rho (up, down):  1.651E-04 0.000E+00

     total cpu time spent up to now is      130.6 secs

     per-process dynamical memory:    50.7 Mb

     Self-consistent Calculation

     iteration #  1     ecut=    30.00 Ry     beta=0.70
     Davidson diagonalization with overlap
     ethr =  1.00E-06,  avg # of iterations =  4.0

     negative rho (up, down):  2.411E-06 0.000E+00

     total cpu time spent up to now is      131.0 secs

     total energy              =    -329.49283501 Ry
     Harris-Foulkes estimate   =    -329.49283025 Ry
     estimated scf accuracy    <       0.00012036 Ry

     iteration #  2     ecut=    30.00 Ry     beta=0.70
     Davidson diagonalization with overlap
     ethr =  2.19E-07,  avg # of iterations =  2.0

     negative rho (up, down):  2.750E-07 0.000E+00

     total cpu time spent up to now is      131.2 secs

     total energy              =    -329.49283662 Ry
     Harris-Foulkes estimate   =    -329.49290733 Ry
     estimated scf accuracy    <       0.00015188 Ry

     iteration #  3     ecut=    30.00 Ry     beta=0.70
     Davidson diagonalization with overlap
     ethr =  2.19E-07,  avg # of iterations =  2.0

     total cpu time spent up to now is      131.4 secs

     total energy              =    -329.49286934 Ry
     Harris-Foulkes estimate   =    -329.49288641 Ry
     estimated scf accuracy    <       0.00004923 Ry

     iteration #  4     ecut=    30.00 Ry     beta=0.70
     Davidson diagonalization with overlap
     ethr =  8.95E-08,  avg # of iterations =  2.0

     total cpu time spent up to now is      131.6 secs

     total energy              =    -329.49287802 Ry
     Harris-Foulkes estimate   =    -329.49288045 Ry
     estimated scf accuracy    <       0.00000508 Ry

     iteration #  5     ecut=    30.00 Ry     beta=0.70
     Davidson diagonalization with overlap
     ethr =  9.24E-09,  avg # of iterations =  2.0

     total cpu time spent up to now is      131.8 secs

     total energy              =    -329.49287913 Ry
     Harris-Foulkes estimate   =    -329.49287950 Ry
     estimated scf accuracy    <       0.00000108 Ry

     iteration #  6     ecut=    30.00 Ry     beta=0.70
     Davidson diagonalization with overlap
     ethr =  1.97E-09,  avg # of iterations =  2.0

     total cpu time spent up to now is      132.0 secs

     total energy              =    -329.49287930 Ry
     Harris-Foulkes estimate   =    -329.49287939 Ry
     estimated scf accuracy    <       0.00000010 Ry

     iteration #  7     ecut=    30.00 Ry     beta=0.70
     Davidson diagonalization with overlap
     ethr =  1.73E-10,  avg # of iterations =  3.0

     total cpu time spent up to now is      132.3 secs

     total energy              =    -329.49287947 Ry
     Harris-Foulkes estimate   =    -329.49287933 Ry
     estimated scf accuracy    <       0.00000001 Ry

     iteration #  8     ecut=    30.00 Ry     beta=0.70
     Davidson diagonalization with overlap
     ethr =  2.51E-11,  avg # of iterations =  2.0

     total cpu time spent up to now is      132.5 secs

     total energy              =    -329.49287950 Ry
     Harris-Foulkes estimate   =    -329.49287948 Ry
     estimated scf accuracy    <          2.7E-09 Ry

     iteration #  9     ecut=    30.00 Ry     beta=0.70
     Davidson diagonalization with overlap
     ethr =  4.90E-12,  avg # of iterations =  2.0

     total cpu time spent up to now is      132.7 secs

     total energy              =    -329.49287952 Ry
     Harris-Foulkes estimate   =    -329.49287950 Ry
     estimated scf accuracy    <          1.3E-09 Ry

     iteration # 10     ecut=    30.00 Ry     beta=0.70
     Davidson diagonalization with overlap
     ethr =  2.36E-12,  avg # of iterations =  2.0

     total cpu time spent up to now is      133.0 secs

     total energy              =    -329.49287951 Ry
     Harris-Foulkes estimate   =    -329.49287952 Ry
     estimated scf accuracy    <          1.1E-10 Ry

     iteration # 11     ecut=    30.00 Ry     beta=0.70
     Davidson diagonalization with overlap
     ethr =  2.01E-13,  avg # of iterations =  2.0

     total cpu time spent up to now is      133.2 secs

     End of self-consistent calculation

          k = 0.0000 0.0000 0.0000 ( 22119 PWs)   bands (ev):

    -8.4747  -7.7628  -7.6195  -7.2253  -6.8566  -6.7951  -6.6119  -6.4615
    -6.3014  -6.0582  -5.9614  -5.7567  -5.7193  -5.6711  -5.4490  -5.3519
    -5.3081  -5.2387  -5.1920  -5.1868  -5.1640  -5.1236  -4.9978  -4.9250
    -4.8626  -4.7153  -4.4864  -3.7473  -2.4044  -2.2433  -0.5190  -0.1938
     0.3910   0.7421

     the Fermi energy is    -3.7104 ev

!    total energy              =    -329.49287951 Ry
     Harris-Foulkes estimate   =    -329.49287951 Ry
     estimated scf accuracy    <          1.1E-11 Ry

     The total energy is the sum of the following terms:

     one-electron contribution =    -603.16008090 Ry
     hartree contribution      =     323.02489053 Ry
     xc contribution           =     -51.39329728 Ry
     ewald contribution        =       2.04096838 Ry
     smearing contrib. (-TS)   =      -0.00536023 Ry

     convergence has been achieved in  11 iterations

     Forces acting on atoms (Ry/au):

     atom    1 type  1   force =     0.00088154   -0.00001799    0.00074853
     atom    2 type  1   force =    -0.00146913   -0.00039002   -0.00206382
     atom    3 type  1   force =     0.00252951    0.00085311    0.00169672
     atom    4 type  1   force =     0.00060015    0.00070985    0.00087295
     atom    5 type  1   force =    -0.00254207   -0.00115496   -0.00125438

     Total force =     0.005377     Total SCF correction =     0.000017

     number of scf cycles    =  50
     number of bfgs steps    =  49

     energy   old            =    -329.4928318394 Ry
     energy   new            =    -329.4928795052 Ry

     CASE: energy  _new < energy  _old

     new trust radius        =       0.0317978637 bohr
     new conv_thr            =            1.0E-10 Ry


ATOMIC_POSITIONS (bohr)
Au      -2.030460684   1.411237408  -0.168831337
Au       1.065487292   3.033366030   3.501625576
Au       2.831674573  -0.084494186  -0.780353725
Au       4.557187029   4.398064463   6.882218835
Au       6.159136791   1.529603285   2.862145651



     Writing output data file pwscf.save
     Check: negative starting charge=   -0.006167
     NEW-OLD atomic charge density approx. for the potential
     Check: negative starting charge=   -0.006161

     negative rho (up, down):  3.147E-04 0.000E+00

     Writing output data file pwscf.save
 
     init_run     :      0.16s CPU      0.18s WALL (       1 calls)
     electrons    :    116.50s CPU    124.33s WALL (      50 calls)
     update_pot   :      3.30s CPU      3.95s WALL (      50 calls)
     forces       :      2.05s CPU      2.08s WALL (      50 calls)

     Called by init_run:
     wfcinit      :      0.07s CPU      0.08s WALL (       1 calls)
     potinit      :      0.03s CPU      0.03s WALL (       1 calls)

     Called by electrons:
     c_bands      :     89.51s CPU     90.54s WALL (     520 calls)
     sum_band     :     12.17s CPU     12.51s WALL (     520 calls)
     v_of_rho     :      9.96s CPU     10.11s WALL (     561 calls)
     mix_rho      :      4.13s CPU      8.79s WALL (     520 calls)

     Called by c_bands:
     init_us_2    :      1.57s CPU      1.65s WALL (    1041 calls)
     cegterg      :     80.09s CPU     80.67s WALL (     520 calls)

     Called by sum_band:

     Called by *egterg:
     h_psi        :     61.83s CPU     62.28s WALL (    1926 calls)
     g_psi        :      0.62s CPU      0.62s WALL (    1405 calls)
     cdiaghg      :      4.53s CPU      4.54s WALL (    1866 calls)

     Called by h_psi:
     h_psi:pot    :     60.87s CPU     61.31s WALL (    1926 calls)
     h_psi:calbec :      3.40s CPU      3.40s WALL (    1926 calls)
     vloc_psi     :     53.58s CPU     54.00s WALL (    1926 calls)
     add_vuspsi   :      3.89s CPU      3.90s WALL (    1926 calls)

     General routines
     calbec       :      3.98s CPU      4.02s WALL (    2126 calls)
     fft          :      5.48s CPU      5.61s WALL (    6291 calls)
     fftw         :     56.01s CPU     56.93s WALL (  118722 calls)
     davcio       :      0.66s CPU      4.35s WALL (    5552 calls)
 
     Parallel routines
     fft_scatter  :     14.41s CPU     13.91s WALL (  125013 calls)
 
     PWSCF        :  2m 3.34s CPU     2m13.45s WALL

 
   This run was terminated on:   2:24:11   4Aug2017            

=------------------------------------------------------------------------------=
   JOB DONE.
=------------------------------------------------------------------------------=
