
     Program PWSCF v.6.0 (svn rev. 13079) starts on  3Aug2017 at 22:39:15 

     This program is part of the open-source Quantum ESPRESSO suite
     for quantum simulation of materials; please cite
         "P. Giannozzi et al., J. Phys.:Condens. Matter 21 395502 (2009);
          URL http://www.quantum-espresso.org", 
     in publications or presentations arising from this work. More details at
     http://www.quantum-espresso.org/quote

     Parallel version (MPI), running on    10 processors
     R & G space division:  proc/nbgrp/npool/nimage =      10
     Reading input from input/multi/minchecks-Gold5-526.in

     Current dimensions of program PWSCF are:
     Max number of different atomic species (ntypx) = 10
     Max number of k-points (npk) =  40000
     Max angular momentum in pseudopotentials (lmaxx) =  3
     Message from routine iosys:
     pot_extrapolation='second-order' not available, using 'atomic'
     Message from routine iosys:
     wfc_extrapolation='second-order' not available, using 'atomic'

     Subspace diagonalization in iterative solution of the eigenvalue problem:
     a serial algorithm will be used

 
     Parallelization info
     --------------------
     sticks:   dense  smooth     PW     G-vecs:    dense   smooth      PW
     Min         380     380     94                17748    17748    2208
     Max         381     381     95                17753    17753    2213
     Sum        3809    3809    949               177509   177509   22119
 


     bravais-lattice index     =            1
     lattice parameter (alat)  =      20.0000  a.u.
     unit-cell volume          =    8000.0000 (a.u.)^3
     number of atoms/cell      =            5
     number of atomic types    =            1
     number of electrons       =        55.00
     number of Kohn-Sham states=           34
     kinetic-energy cutoff     =      30.0000  Ry
     charge density cutoff     =     120.0000  Ry
     convergence threshold     =      1.0E-08
     mixing beta               =       0.7000
     number of iterations used =            8  plain     mixing
     Exchange-correlation      = BLYP ( 1  3  1  3 0 0)
     nstep                     =           50


     celldm(1)=  20.000000  celldm(2)=   0.000000  celldm(3)=   0.000000
     celldm(4)=   0.000000  celldm(5)=   0.000000  celldm(6)=   0.000000

     crystal axes: (cart. coord. in units of alat)
               a(1) = (   1.000000   0.000000   0.000000 )  
               a(2) = (   0.000000   1.000000   0.000000 )  
               a(3) = (   0.000000   0.000000   1.000000 )  

     reciprocal axes: (cart. coord. in units 2 pi/alat)
               b(1) = (  1.000000  0.000000  0.000000 )  
               b(2) = (  0.000000  1.000000  0.000000 )  
               b(3) = (  0.000000  0.000000  1.000000 )  


     PseudoPot. # 1 for Au read from file:
     ./Au.blyp-d-hgh.UPF
     MD5 check sum: c10d8bae01f806c36a1643a1c69a8479
     Pseudo is Norm-conserving, Zval = 11.0
     Generated in analytical, separable form
     Using radial grid of 1279 points,  6 beta functions with: 
                l(1) =   0
                l(2) =   0
                l(3) =   1
                l(4) =   1
                l(5) =   2
                l(6) =   2

     atomic species   valence    mass     pseudopotential
        Au            11.00    28.08600     Au( 1.00)

     No symmetry found



   Cartesian axes

     site n.     atom                  positions (alat units)
         1           Au  tau(   1) = (  -0.1108404   0.1025309  -0.0183092  )
         2           Au  tau(   2) = (   0.0052328   0.1897757   0.2148616  )
         3           Au  tau(   3) = (   0.1405660   0.0592227  -0.0130745  )
         4           Au  tau(   4) = (   0.2336120   0.2081412   0.2889521  )
         5           Au  tau(   5) = (   0.3716350   0.0561667   0.1159021  )

     number of k points=     1  Marzari-Vanderbilt smearing, width (Ry)=  0.0250
                       cart. coord. in units 2pi/alat
        k(    1) = (   0.0000000   0.0000000   0.0000000), wk =   2.0000000

     Dense  grid:   177509 G-vectors     FFT dimensions: (  72,  72,  72)

     Estimated max dynamical RAM per process >      15.04Mb

     Estimated total allocated dynamical RAM >     150.39Mb

     Initial potential from superposition of free atoms
     Check: negative starting charge=   -0.006227

     starting charge   54.99940, renormalised to   55.00000

     negative rho (up, down):  6.227E-03 0.000E+00
     Starting wfc are   45 randomized atomic wfcs

     total cpu time spent up to now is        0.3 secs

     per-process dynamical memory:    41.0 Mb

     Self-consistent Calculation

     iteration #  1     ecut=    30.00 Ry     beta=0.70
     Davidson diagonalization with overlap
     ethr =  1.00E-02,  avg # of iterations =  3.0

     Threshold (ethr) on eigenvalues was too large:
     Diagonalizing with lowered threshold

     Davidson diagonalization with overlap
     ethr =  5.59E-04,  avg # of iterations =  3.0

     negative rho (up, down):  8.206E-04 0.000E+00

     total cpu time spent up to now is        0.7 secs

     total energy              =    -329.27926842 Ry
     Harris-Foulkes estimate   =    -329.50995566 Ry
     estimated scf accuracy    <       0.36496297 Ry

     iteration #  2     ecut=    30.00 Ry     beta=0.70
     Davidson diagonalization with overlap
     ethr =  6.64E-04,  avg # of iterations =  6.0

     negative rho (up, down):  5.108E-04 0.000E+00

     total cpu time spent up to now is        0.9 secs

     total energy              =    -329.20224467 Ry
     Harris-Foulkes estimate   =    -329.68497318 Ry
     estimated scf accuracy    <       1.34108224 Ry

     iteration #  3     ecut=    30.00 Ry     beta=0.70
     Davidson diagonalization with overlap
     ethr =  6.64E-04,  avg # of iterations =  5.0

     negative rho (up, down):  1.956E-04 0.000E+00

     total cpu time spent up to now is        1.2 secs

     total energy              =    -329.43405286 Ry
     Harris-Foulkes estimate   =    -329.48992354 Ry
     estimated scf accuracy    <       0.13749818 Ry

     iteration #  4     ecut=    30.00 Ry     beta=0.70
     Davidson diagonalization with overlap
     ethr =  2.50E-04,  avg # of iterations =  2.0

     negative rho (up, down):  5.579E-05 0.000E+00

     total cpu time spent up to now is        1.4 secs

     total energy              =    -329.45099197 Ry
     Harris-Foulkes estimate   =    -329.45412554 Ry
     estimated scf accuracy    <       0.00783475 Ry

     iteration #  5     ecut=    30.00 Ry     beta=0.70
     Davidson diagonalization with overlap
     ethr =  1.42E-05,  avg # of iterations =  6.0

     negative rho (up, down):  2.225E-06 0.000E+00

     total cpu time spent up to now is        1.7 secs

     total energy              =    -329.45167895 Ry
     Harris-Foulkes estimate   =    -329.45352324 Ry
     estimated scf accuracy    <       0.00455125 Ry

     iteration #  6     ecut=    30.00 Ry     beta=0.70
     Davidson diagonalization with overlap
     ethr =  8.27E-06,  avg # of iterations =  2.0

     negative rho (up, down):  1.652E-06 0.000E+00

     total cpu time spent up to now is        1.9 secs

     total energy              =    -329.45148333 Ry
     Harris-Foulkes estimate   =    -329.45185822 Ry
     estimated scf accuracy    <       0.00485123 Ry

     iteration #  7     ecut=    30.00 Ry     beta=0.70
     Davidson diagonalization with overlap
     ethr =  8.27E-06,  avg # of iterations =  1.0

     negative rho (up, down):  1.636E-06 0.000E+00

     total cpu time spent up to now is        2.1 secs

     total energy              =    -329.45131563 Ry
     Harris-Foulkes estimate   =    -329.45148769 Ry
     estimated scf accuracy    <       0.00472085 Ry

     iteration #  8     ecut=    30.00 Ry     beta=0.70
     Davidson diagonalization with overlap
     ethr =  8.27E-06,  avg # of iterations =  1.0

     negative rho (up, down):  7.036E-07 0.000E+00

     total cpu time spent up to now is        2.3 secs

     total energy              =    -329.45071261 Ry
     Harris-Foulkes estimate   =    -329.45132424 Ry
     estimated scf accuracy    <       0.00444797 Ry

     iteration #  9     ecut=    30.00 Ry     beta=0.70
     Davidson diagonalization with overlap
     ethr =  8.09E-06,  avg # of iterations =  1.0

     total cpu time spent up to now is        2.5 secs

     total energy              =    -329.45039646 Ry
     Harris-Foulkes estimate   =    -329.45087487 Ry
     estimated scf accuracy    <       0.00211536 Ry

     iteration # 10     ecut=    30.00 Ry     beta=0.70
     Davidson diagonalization with overlap
     ethr =  3.85E-06,  avg # of iterations =  2.0

     total cpu time spent up to now is        2.7 secs

     total energy              =    -329.45053637 Ry
     Harris-Foulkes estimate   =    -329.45085711 Ry
     estimated scf accuracy    <       0.00105021 Ry

     iteration # 11     ecut=    30.00 Ry     beta=0.70
     Davidson diagonalization with overlap
     ethr =  1.91E-06,  avg # of iterations =  2.0

     total cpu time spent up to now is        2.9 secs

     total energy              =    -329.45047561 Ry
     Harris-Foulkes estimate   =    -329.45076853 Ry
     estimated scf accuracy    <       0.00062066 Ry

     iteration # 12     ecut=    30.00 Ry     beta=0.70
     Davidson diagonalization with overlap
     ethr =  1.13E-06,  avg # of iterations =  3.0

     total cpu time spent up to now is        3.1 secs

     total energy              =    -329.45027041 Ry
     Harris-Foulkes estimate   =    -329.45110102 Ry
     estimated scf accuracy    <       0.00661371 Ry

     iteration # 13     ecut=    30.00 Ry     beta=0.70
     Davidson diagonalization with overlap
     ethr =  1.13E-06,  avg # of iterations =  2.0

     total cpu time spent up to now is        3.3 secs

     total energy              =    -329.45071637 Ry
     Harris-Foulkes estimate   =    -329.45072001 Ry
     estimated scf accuracy    <       0.00002598 Ry

     iteration # 14     ecut=    30.00 Ry     beta=0.70
     Davidson diagonalization with overlap
     ethr =  4.72E-08,  avg # of iterations =  3.0

     total cpu time spent up to now is        3.6 secs

     total energy              =    -329.45070099 Ry
     Harris-Foulkes estimate   =    -329.45074785 Ry
     estimated scf accuracy    <       0.00034990 Ry

     iteration # 15     ecut=    30.00 Ry     beta=0.70
     Davidson diagonalization with overlap
     ethr =  4.72E-08,  avg # of iterations =  2.0

     total cpu time spent up to now is        3.8 secs

     total energy              =    -329.45071386 Ry
     Harris-Foulkes estimate   =    -329.45071789 Ry
     estimated scf accuracy    <       0.00002116 Ry

     iteration # 16     ecut=    30.00 Ry     beta=0.70
     Davidson diagonalization with overlap
     ethr =  3.85E-08,  avg # of iterations =  1.0

     total cpu time spent up to now is        4.0 secs

     total energy              =    -329.45071562 Ry
     Harris-Foulkes estimate   =    -329.45071564 Ry
     estimated scf accuracy    <       0.00000023 Ry

     iteration # 17     ecut=    30.00 Ry     beta=0.70
     Davidson diagonalization with overlap
     ethr =  4.11E-10,  avg # of iterations =  3.0

     total cpu time spent up to now is        4.3 secs

     total energy              =    -329.45071571 Ry
     Harris-Foulkes estimate   =    -329.45071576 Ry
     estimated scf accuracy    <       0.00000006 Ry

     iteration # 18     ecut=    30.00 Ry     beta=0.70
     Davidson diagonalization with overlap
     ethr =  1.03E-10,  avg # of iterations =  2.0

     total cpu time spent up to now is        4.5 secs

     End of self-consistent calculation

          k = 0.0000 0.0000 0.0000 ( 22119 PWs)   bands (ev):

    -7.8647  -7.4671  -7.1448  -7.0617  -6.7365  -6.5856  -6.2813  -6.2072
    -6.1536  -5.8232  -5.7799  -5.5959  -5.4779  -5.4310  -5.3991  -5.3497
    -5.2701  -5.1405  -5.1139  -5.0901  -5.0000  -4.8093  -4.6506  -4.5885
    -4.5774  -4.4637  -4.3260  -4.1069  -2.5103  -2.2352  -0.4146  -0.3705
     0.5008   0.8575

     the Fermi energy is    -4.1291 ev

!    total energy              =    -329.45071572 Ry
     Harris-Foulkes estimate   =    -329.45071573 Ry
     estimated scf accuracy    <          9.1E-09 Ry

     The total energy is the sum of the following terms:

     one-electron contribution =    -579.52740160 Ry
     hartree contribution      =     311.62387129 Ry
     xc contribution           =     -51.41013389 Ry
     ewald contribution        =     -10.16358470 Ry
     smearing contrib. (-TS)   =       0.02653317 Ry

     convergence has been achieved in  18 iterations

     Forces acting on atoms (Ry/au):

     atom    1 type  1   force =     0.01870504    0.00602930    0.02049212
     atom    2 type  1   force =    -0.04555177   -0.01915727   -0.05301879
     atom    3 type  1   force =    -0.00388527    0.01251858    0.02980274
     atom    4 type  1   force =     0.05571258   -0.01230634   -0.00422263
     atom    5 type  1   force =    -0.02498058    0.01291573    0.00694656

     Total force =     0.105978     Total SCF correction =     0.000302

     BFGS Geometry Optimization

     number of scf cycles    =   1
     number of bfgs steps    =   0

     energy   new            =    -329.4507157199 Ry

     new trust radius        =       0.0724772893 bohr
     new conv_thr            =       0.0000000100 Ry


ATOMIC_POSITIONS (bohr)
Au      -2.198102959   2.056647299  -0.345691881
Au       0.059104226   3.776355735   4.244213206
Au       2.807434730   1.196971578  -0.231688257
Au       4.727951579   4.150516660   5.774819371
Au       7.407719424   1.136249728   2.324988560



     Writing output data file pwscf.save
     Check: negative starting charge=   -0.006227
     NEW-OLD atomic charge density approx. for the potential
     Check: negative starting charge=   -0.006289

     negative rho (up, down):  8.502E-04 0.000E+00

     total cpu time spent up to now is        4.7 secs

     per-process dynamical memory:    42.9 Mb

     Self-consistent Calculation

     iteration #  1     ecut=    30.00 Ry     beta=0.70
     Davidson diagonalization with overlap
     ethr =  1.00E-06,  avg # of iterations =  8.0

     negative rho (up, down):  5.170E-05 0.000E+00

     total cpu time spent up to now is        5.1 secs

     total energy              =    -329.45962455 Ry
     Harris-Foulkes estimate   =    -329.45985275 Ry
     estimated scf accuracy    <       0.00189870 Ry

     iteration #  2     ecut=    30.00 Ry     beta=0.70
     Davidson diagonalization with overlap
     ethr =  3.45E-06,  avg # of iterations =  4.0

     negative rho (up, down):  3.666E-05 0.000E+00

     total cpu time spent up to now is        5.4 secs

     total energy              =    -329.45657131 Ry
     Harris-Foulkes estimate   =    -329.46262284 Ry
     estimated scf accuracy    <       0.03407047 Ry

     iteration #  3     ecut=    30.00 Ry     beta=0.70
     Davidson diagonalization with overlap
     ethr =  3.45E-06,  avg # of iterations =  3.0

     negative rho (up, down):  1.014E-05 0.000E+00

     total cpu time spent up to now is        5.7 secs

     total energy              =    -329.46015245 Ry
     Harris-Foulkes estimate   =    -329.46098894 Ry
     estimated scf accuracy    <       0.00385781 Ry

     iteration #  4     ecut=    30.00 Ry     beta=0.70
     Davidson diagonalization with overlap
     ethr =  3.45E-06,  avg # of iterations =  2.0

     negative rho (up, down):  4.138E-07 0.000E+00

     total cpu time spent up to now is        5.8 secs

     total energy              =    -329.46038325 Ry
     Harris-Foulkes estimate   =    -329.46048714 Ry
     estimated scf accuracy    <       0.00058160 Ry

     iteration #  5     ecut=    30.00 Ry     beta=0.70
     Davidson diagonalization with overlap
     ethr =  1.06E-06,  avg # of iterations =  1.0

     negative rho (up, down):  2.673E-08 0.000E+00

     total cpu time spent up to now is        6.0 secs

     total energy              =    -329.46040941 Ry
     Harris-Foulkes estimate   =    -329.46046127 Ry
     estimated scf accuracy    <       0.00028907 Ry

     iteration #  6     ecut=    30.00 Ry     beta=0.70
     Davidson diagonalization with overlap
     ethr =  5.26E-07,  avg # of iterations =  1.0

     total cpu time spent up to now is        6.2 secs

     total energy              =    -329.46042863 Ry
     Harris-Foulkes estimate   =    -329.46044452 Ry
     estimated scf accuracy    <       0.00007757 Ry

     iteration #  7     ecut=    30.00 Ry     beta=0.70
     Davidson diagonalization with overlap
     ethr =  1.41E-07,  avg # of iterations =  2.0

     total cpu time spent up to now is        6.4 secs

     total energy              =    -329.46043728 Ry
     Harris-Foulkes estimate   =    -329.46043951 Ry
     estimated scf accuracy    <       0.00000708 Ry

     iteration #  8     ecut=    30.00 Ry     beta=0.70
     Davidson diagonalization with overlap
     ethr =  1.29E-08,  avg # of iterations =  3.0

     total cpu time spent up to now is        6.6 secs

     total energy              =    -329.46043884 Ry
     Harris-Foulkes estimate   =    -329.46043961 Ry
     estimated scf accuracy    <       0.00000271 Ry

     iteration #  9     ecut=    30.00 Ry     beta=0.70
     Davidson diagonalization with overlap
     ethr =  4.93E-09,  avg # of iterations =  2.0

     total cpu time spent up to now is        6.8 secs

     total energy              =    -329.46043924 Ry
     Harris-Foulkes estimate   =    -329.46043928 Ry
     estimated scf accuracy    <       0.00000052 Ry

     iteration # 10     ecut=    30.00 Ry     beta=0.70
     Davidson diagonalization with overlap
     ethr =  9.42E-10,  avg # of iterations =  2.0

     total cpu time spent up to now is        7.0 secs

     total energy              =    -329.46043935 Ry
     Harris-Foulkes estimate   =    -329.46043934 Ry
     estimated scf accuracy    <       0.00000010 Ry

     iteration # 11     ecut=    30.00 Ry     beta=0.70
     Davidson diagonalization with overlap
     ethr =  1.85E-10,  avg # of iterations =  2.0

     total cpu time spent up to now is        7.2 secs

     End of self-consistent calculation

          k = 0.0000 0.0000 0.0000 ( 22119 PWs)   bands (ev):

    -7.7740  -7.4533  -7.1716  -7.0899  -6.7679  -6.4812  -6.3028  -6.2365
    -6.1761  -5.8558  -5.7965  -5.5943  -5.4991  -5.4178  -5.3873  -5.3504
    -5.2867  -5.1662  -5.1051  -5.0892  -5.0084  -4.8279  -4.6349  -4.5713
    -4.5484  -4.4455  -4.3263  -4.0669  -2.4883  -2.2356  -0.4166  -0.3589
     0.5096   0.8563

     the Fermi energy is    -4.1061 ev

!    total energy              =    -329.46043940 Ry
     Harris-Foulkes estimate   =    -329.46043937 Ry
     estimated scf accuracy    <          5.3E-09 Ry

     The total energy is the sum of the following terms:

     one-electron contribution =    -581.78077628 Ry
     hartree contribution      =     312.75633454 Ry
     xc contribution           =     -51.41333331 Ry
     ewald contribution        =      -9.04911558 Ry
     smearing contrib. (-TS)   =       0.02645123 Ry

     convergence has been achieved in  11 iterations

     Forces acting on atoms (Ry/au):

     atom    1 type  1   force =     0.01334087    0.00585722    0.01782904
     atom    2 type  1   force =    -0.02379377   -0.01665671   -0.04451522
     atom    3 type  1   force =    -0.00292288    0.01181069    0.02923643
     atom    4 type  1   force =     0.03486658   -0.01279182   -0.01001363
     atom    5 type  1   force =    -0.02149080    0.01178062    0.00746338

     Total force =     0.080586     Total SCF correction =     0.000310

     number of scf cycles    =   2
     number of bfgs steps    =   1

     energy   old            =    -329.4507157199 Ry
     energy   new            =    -329.4604393965 Ry

     CASE: energy  _new < energy  _old

     new trust radius        =       0.0797250182 bohr
     new conv_thr            =       0.0000000045 Ry


ATOMIC_POSITIONS (bohr)
Au      -2.177965564   2.065173552  -0.319429836
Au       0.021429912   3.751818706   4.178375080
Au       2.803053490   1.214216257  -0.189171530
Au       4.781565878   4.132020097   5.761120613
Au       7.376023284   1.153512388   2.335746673



     Writing output data file pwscf.save
     Check: negative starting charge=   -0.006289
     NEW-OLD atomic charge density approx. for the potential
     Check: negative starting charge=   -0.006331

     negative rho (up, down):  1.056E-03 0.000E+00

     total cpu time spent up to now is        7.4 secs

     per-process dynamical memory:    50.7 Mb

     Self-consistent Calculation

     iteration #  1     ecut=    30.00 Ry     beta=0.70
     Davidson diagonalization with overlap
     ethr =  1.00E-06,  avg # of iterations =  9.0

     negative rho (up, down):  7.317E-05 0.000E+00

     total cpu time spent up to now is        7.9 secs

     total energy              =    -329.46776585 Ry
     Harris-Foulkes estimate   =    -329.46789162 Ry
     estimated scf accuracy    <       0.00223261 Ry

     iteration #  2     ecut=    30.00 Ry     beta=0.70
     Davidson diagonalization with overlap
     ethr =  4.06E-06,  avg # of iterations =  4.0

     negative rho (up, down):  5.725E-05 0.000E+00

     total cpu time spent up to now is        8.2 secs

     total energy              =    -329.46244490 Ry
     Harris-Foulkes estimate   =    -329.47240089 Ry
     estimated scf accuracy    <       0.07115552 Ry

     iteration #  3     ecut=    30.00 Ry     beta=0.70
     Davidson diagonalization with overlap
     ethr =  4.06E-06,  avg # of iterations =  3.0

     negative rho (up, down):  1.624E-05 0.000E+00

     total cpu time spent up to now is        8.4 secs

     total energy              =    -329.46847744 Ry
     Harris-Foulkes estimate   =    -329.46924306 Ry
     estimated scf accuracy    <       0.00326058 Ry

     iteration #  4     ecut=    30.00 Ry     beta=0.70
     Davidson diagonalization with overlap
     ethr =  4.06E-06,  avg # of iterations =  2.0

     negative rho (up, down):  1.907E-06 0.000E+00

     total cpu time spent up to now is        8.6 secs

     total energy              =    -329.46865567 Ry
     Harris-Foulkes estimate   =    -329.46885057 Ry
     estimated scf accuracy    <       0.00107437 Ry

     iteration #  5     ecut=    30.00 Ry     beta=0.70
     Davidson diagonalization with overlap
     ethr =  1.95E-06,  avg # of iterations =  1.0

     negative rho (up, down):  3.408E-08 0.000E+00

     total cpu time spent up to now is        8.8 secs

     total energy              =    -329.46871347 Ry
     Harris-Foulkes estimate   =    -329.46884281 Ry
     estimated scf accuracy    <       0.00075338 Ry

     iteration #  6     ecut=    30.00 Ry     beta=0.70
     Davidson diagonalization with overlap
     ethr =  1.37E-06,  avg # of iterations =  1.0

     total cpu time spent up to now is        8.9 secs

     total energy              =    -329.46875948 Ry
     Harris-Foulkes estimate   =    -329.46877519 Ry
     estimated scf accuracy    <       0.00011759 Ry

     iteration #  7     ecut=    30.00 Ry     beta=0.70
     Davidson diagonalization with overlap
     ethr =  2.14E-07,  avg # of iterations =  1.0

     total cpu time spent up to now is        9.1 secs

     total energy              =    -329.46876482 Ry
     Harris-Foulkes estimate   =    -329.46876812 Ry
     estimated scf accuracy    <       0.00001923 Ry

     iteration #  8     ecut=    30.00 Ry     beta=0.70
     Davidson diagonalization with overlap
     ethr =  3.50E-08,  avg # of iterations =  3.0

     total cpu time spent up to now is        9.3 secs

     total energy              =    -329.46876708 Ry
     Harris-Foulkes estimate   =    -329.46876817 Ry
     estimated scf accuracy    <       0.00000213 Ry

     iteration #  9     ecut=    30.00 Ry     beta=0.70
     Davidson diagonalization with overlap
     ethr =  3.87E-09,  avg # of iterations =  2.0

     total cpu time spent up to now is        9.5 secs

     total energy              =    -329.46876730 Ry
     Harris-Foulkes estimate   =    -329.46876764 Ry
     estimated scf accuracy    <       0.00000106 Ry

     iteration # 10     ecut=    30.00 Ry     beta=0.70
     Davidson diagonalization with overlap
     ethr =  1.92E-09,  avg # of iterations =  2.0

     total cpu time spent up to now is        9.7 secs

     total energy              =    -329.46876735 Ry
     Harris-Foulkes estimate   =    -329.46876744 Ry
     estimated scf accuracy    <       0.00000025 Ry

     iteration # 11     ecut=    30.00 Ry     beta=0.70
     Davidson diagonalization with overlap
     ethr =  4.59E-10,  avg # of iterations =  2.0

     total cpu time spent up to now is        9.9 secs

     total energy              =    -329.46876737 Ry
     Harris-Foulkes estimate   =    -329.46876739 Ry
     estimated scf accuracy    <       0.00000002 Ry

     iteration # 12     ecut=    30.00 Ry     beta=0.70
     Davidson diagonalization with overlap
     ethr =  3.07E-11,  avg # of iterations =  3.0

     total cpu time spent up to now is       10.2 secs

     total energy              =    -329.46876735 Ry
     Harris-Foulkes estimate   =    -329.46876738 Ry
     estimated scf accuracy    <       0.00000001 Ry

     iteration # 13     ecut=    30.00 Ry     beta=0.70
     Davidson diagonalization with overlap
     ethr =  2.44E-11,  avg # of iterations =  2.0

     total cpu time spent up to now is       10.3 secs

     End of self-consistent calculation

          k = 0.0000 0.0000 0.0000 ( 22119 PWs)   bands (ev):

    -7.7873  -7.4169  -7.2551  -7.1342  -6.8175  -6.4370  -6.3345  -6.2795
    -6.1866  -5.9059  -5.8177  -5.6056  -5.5191  -5.4091  -5.3722  -5.3490
    -5.3063  -5.1978  -5.0942  -5.0828  -5.0169  -4.8492  -4.6064  -4.5490
    -4.5096  -4.4168  -4.3212  -4.0193  -2.4631  -2.2184  -0.4233  -0.3450
     0.5227   0.8570

     the Fermi energy is    -4.0753 ev

!    total energy              =    -329.46876737 Ry
     Harris-Foulkes estimate   =    -329.46876735 Ry
     estimated scf accuracy    <          6.2E-10 Ry

     The total energy is the sum of the following terms:

     one-electron contribution =    -585.79666835 Ry
     hartree contribution      =     314.75804321 Ry
     xc contribution           =     -51.42445542 Ry
     ewald contribution        =      -7.03213870 Ry
     smearing contrib. (-TS)   =       0.02645188 Ry

     convergence has been achieved in  13 iterations

     Forces acting on atoms (Ry/au):

     atom    1 type  1   force =     0.00665689    0.00500729    0.01196968
     atom    2 type  1   force =    -0.00801035   -0.01454454   -0.03494553
     atom    3 type  1   force =    -0.00152420    0.01096760    0.02706804
     atom    4 type  1   force =     0.01963636   -0.01080238   -0.01059717
     atom    5 type  1   force =    -0.01675871    0.00937203    0.00650498

     Total force =     0.059920     Total SCF correction =     0.000109

     number of scf cycles    =   3
     number of bfgs steps    =   2

     energy   old            =    -329.4604393965 Ry
     energy   new            =    -329.4687673737 Ry

     CASE: energy  _new < energy  _old

     new trust radius        =       0.1195875273 bohr
     new conv_thr            =       0.0000000035 Ry


ATOMIC_POSITIONS (bohr)
Au      -2.153089487   2.079346862  -0.281846977
Au      -0.019796858   3.710212117   4.074113765
Au       2.797551815   1.244604623  -0.114524602
Au       4.853318581   4.101628613   5.735112322
Au       7.326122948   1.180948784   2.353786492



     Writing output data file pwscf.save
     Check: negative starting charge=   -0.006331
     NEW-OLD atomic charge density approx. for the potential
     Check: negative starting charge=   -0.006253

     negative rho (up, down):  2.170E-03 0.000E+00

     total cpu time spent up to now is       10.6 secs

     per-process dynamical memory:    50.7 Mb

     Self-consistent Calculation

     iteration #  1     ecut=    30.00 Ry     beta=0.70
     Davidson diagonalization with overlap
     ethr =  1.00E-06,  avg # of iterations = 10.0

     negative rho (up, down):  2.152E-04 0.000E+00

     total cpu time spent up to now is       11.1 secs

     total energy              =    -329.47478637 Ry
     Harris-Foulkes estimate   =    -329.47544501 Ry
     estimated scf accuracy    <       0.00439193 Ry

     iteration #  2     ecut=    30.00 Ry     beta=0.70
     Davidson diagonalization with overlap
     ethr =  7.99E-06,  avg # of iterations =  5.0

     negative rho (up, down):  1.833E-04 0.000E+00

     total cpu time spent up to now is       11.4 secs

     total energy              =    -329.45991907 Ry
     Harris-Foulkes estimate   =    -329.48609836 Ry
     estimated scf accuracy    <       0.22972601 Ry

     iteration #  3     ecut=    30.00 Ry     beta=0.70
     Davidson diagonalization with overlap
     ethr =  7.99E-06,  avg # of iterations =  3.0

     negative rho (up, down):  5.797E-05 0.000E+00

     total cpu time spent up to now is       11.6 secs

     total energy              =    -329.47648160 Ry
     Harris-Foulkes estimate   =    -329.47748701 Ry
     estimated scf accuracy    <       0.00399756 Ry

     iteration #  4     ecut=    30.00 Ry     beta=0.70
     Davidson diagonalization with overlap
     ethr =  7.27E-06,  avg # of iterations =  2.0

     negative rho (up, down):  9.900E-06 0.000E+00

     total cpu time spent up to now is       11.8 secs

     total energy              =    -329.47665719 Ry
     Harris-Foulkes estimate   =    -329.47704462 Ry
     estimated scf accuracy    <       0.00251074 Ry

     iteration #  5     ecut=    30.00 Ry     beta=0.70
     Davidson diagonalization with overlap
     ethr =  4.56E-06,  avg # of iterations =  1.0

     negative rho (up, down):  1.889E-07 0.000E+00

     total cpu time spent up to now is       12.0 secs

     total energy              =    -329.47674622 Ry
     Harris-Foulkes estimate   =    -329.47705263 Ry
     estimated scf accuracy    <       0.00198947 Ry

     iteration #  6     ecut=    30.00 Ry     beta=0.70
     Davidson diagonalization with overlap
     ethr =  3.62E-06,  avg # of iterations =  1.0

     total cpu time spent up to now is       12.1 secs

     total energy              =    -329.47683384 Ry
     Harris-Foulkes estimate   =    -329.47687884 Ry
     estimated scf accuracy    <       0.00049827 Ry

     iteration #  7     ecut=    30.00 Ry     beta=0.70
     Davidson diagonalization with overlap
     ethr =  9.06E-07,  avg # of iterations =  1.0

     total cpu time spent up to now is       12.3 secs

     total energy              =    -329.47683059 Ry
     Harris-Foulkes estimate   =    -329.47684896 Ry
     estimated scf accuracy    <       0.00016511 Ry

     iteration #  8     ecut=    30.00 Ry     beta=0.70
     Davidson diagonalization with overlap
     ethr =  3.00E-07,  avg # of iterations =  1.0

     total cpu time spent up to now is       12.5 secs

     total energy              =    -329.47683457 Ry
     Harris-Foulkes estimate   =    -329.47683905 Ry
     estimated scf accuracy    <       0.00002205 Ry

     iteration #  9     ecut=    30.00 Ry     beta=0.70
     Davidson diagonalization with overlap
     ethr =  4.01E-08,  avg # of iterations =  3.0

     total cpu time spent up to now is       12.7 secs

     total energy              =    -329.47683829 Ry
     Harris-Foulkes estimate   =    -329.47683881 Ry
     estimated scf accuracy    <       0.00000232 Ry

     iteration # 10     ecut=    30.00 Ry     beta=0.70
     Davidson diagonalization with overlap
     ethr =  4.22E-09,  avg # of iterations =  2.0

     total cpu time spent up to now is       12.9 secs

     total energy              =    -329.47683843 Ry
     Harris-Foulkes estimate   =    -329.47683876 Ry
     estimated scf accuracy    <       0.00000255 Ry

     iteration # 11     ecut=    30.00 Ry     beta=0.70
     Davidson diagonalization with overlap
     ethr =  4.22E-09,  avg # of iterations =  1.0

     total cpu time spent up to now is       13.1 secs

     total energy              =    -329.47683842 Ry
     Harris-Foulkes estimate   =    -329.47683856 Ry
     estimated scf accuracy    <       0.00000063 Ry

     iteration # 12     ecut=    30.00 Ry     beta=0.70
     Davidson diagonalization with overlap
     ethr =  1.15E-09,  avg # of iterations =  1.0

     total cpu time spent up to now is       13.3 secs

     total energy              =    -329.47683850 Ry
     Harris-Foulkes estimate   =    -329.47683850 Ry
     estimated scf accuracy    <       0.00000002 Ry

     iteration # 13     ecut=    30.00 Ry     beta=0.70
     Davidson diagonalization with overlap
     ethr =  2.88E-11,  avg # of iterations =  3.0

     total cpu time spent up to now is       13.5 secs

     total energy              =    -329.47683853 Ry
     Harris-Foulkes estimate   =    -329.47683851 Ry
     estimated scf accuracy    <          5.4E-09 Ry

     iteration # 14     ecut=    30.00 Ry     beta=0.70
     Davidson diagonalization with overlap
     ethr =  9.79E-12,  avg # of iterations =  2.0

     total cpu time spent up to now is       13.7 secs

     End of self-consistent calculation

          k = 0.0000 0.0000 0.0000 ( 22119 PWs)   bands (ev):

    -7.9034  -7.4660  -7.3596  -7.1903  -6.9133  -6.4764  -6.4000  -6.3644
    -6.1436  -5.9996  -5.8458  -5.6277  -5.5390  -5.4023  -5.3564  -5.3404
    -5.3327  -5.2398  -5.0803  -5.0673  -5.0287  -4.8854  -4.5519  -4.5061
    -4.4569  -4.3584  -4.3030  -3.9435  -2.4271  -2.1733  -0.4373  -0.3210
     0.5437   0.8590

     the Fermi energy is    -4.0207 ev

!    total energy              =    -329.47683848 Ry
     Harris-Foulkes estimate   =    -329.47683853 Ry
     estimated scf accuracy    <          1.4E-09 Ry

     The total energy is the sum of the following terms:

     one-electron contribution =    -593.23708818 Ry
     hartree contribution      =     318.45831989 Ry
     xc contribution           =     -51.45107041 Ry
     ewald contribution        =      -3.27376761 Ry
     smearing contrib. (-TS)   =       0.02676783 Ry

     convergence has been achieved in  14 iterations

     Forces acting on atoms (Ry/au):

     atom    1 type  1   force =    -0.00510533    0.00212918   -0.00150085
     atom    2 type  1   force =     0.00762383   -0.01016290   -0.01791913
     atom    3 type  1   force =    -0.00067025    0.00994859    0.02432164
     atom    4 type  1   force =     0.00588905   -0.00564995   -0.00800485
     atom    5 type  1   force =    -0.00773730    0.00373508    0.00310320

     Total force =     0.037689     Total SCF correction =     0.000123

     number of scf cycles    =   4
     number of bfgs steps    =   3

     energy   old            =    -329.4687673737 Ry
     energy   new            =    -329.4768384811 Ry

     CASE: energy  _new < energy  _old

     new trust radius        =       0.1254789207 bohr
     new conv_thr            =       0.0000000024 Ry


ATOMIC_POSITIONS (bohr)
Au      -2.142010714   2.093585903  -0.256066217
Au      -0.045044479   3.660387395   3.961752676
Au       2.791679779   1.285357826  -0.014921215
Au       4.925401622   4.069144380   5.703442799
Au       7.274080793   1.208265498   2.372432957



     Writing output data file pwscf.save
     Check: negative starting charge=   -0.006253
     NEW-OLD atomic charge density approx. for the potential
     Check: negative starting charge=   -0.006277

     negative rho (up, down):  2.616E-03 0.000E+00

     total cpu time spent up to now is       14.0 secs

     per-process dynamical memory:    50.7 Mb

     Self-consistent Calculation

     iteration #  1     ecut=    30.00 Ry     beta=0.70
     Davidson diagonalization with overlap
     ethr =  1.00E-06,  avg # of iterations = 11.0

     negative rho (up, down):  2.800E-04 0.000E+00

     total cpu time spent up to now is       14.5 secs

     total energy              =    -329.47822759 Ry
     Harris-Foulkes estimate   =    -329.47778201 Ry
     estimated scf accuracy    <       0.00423056 Ry

     iteration #  2     ecut=    30.00 Ry     beta=0.70
     Davidson diagonalization with overlap
     ethr =  7.69E-06,  avg # of iterations =  6.0

     negative rho (up, down):  2.396E-04 0.000E+00

     total cpu time spent up to now is       14.8 secs

     total energy              =    -329.46311553 Ry
     Harris-Foulkes estimate   =    -329.48879094 Ry
     estimated scf accuracy    <       0.22080777 Ry

     iteration #  3     ecut=    30.00 Ry     beta=0.70
     Davidson diagonalization with overlap
     ethr =  7.69E-06,  avg # of iterations =  3.0

     negative rho (up, down):  7.488E-05 0.000E+00

     total cpu time spent up to now is       15.0 secs

     total energy              =    -329.47984900 Ry
     Harris-Foulkes estimate   =    -329.48068385 Ry
     estimated scf accuracy    <       0.00362188 Ry

     iteration #  4     ecut=    30.00 Ry     beta=0.70
     Davidson diagonalization with overlap
     ethr =  6.59E-06,  avg # of iterations =  1.0

     negative rho (up, down):  2.305E-05 0.000E+00

     total cpu time spent up to now is       15.2 secs

     total energy              =    -329.47989148 Ry
     Harris-Foulkes estimate   =    -329.48058338 Ry
     estimated scf accuracy    <       0.00380883 Ry

     iteration #  5     ecut=    30.00 Ry     beta=0.70
     Davidson diagonalization with overlap
     ethr =  6.59E-06,  avg # of iterations =  1.0

     negative rho (up, down):  1.263E-07 0.000E+00

     total cpu time spent up to now is       15.4 secs

     total energy              =    -329.48013364 Ry
     Harris-Foulkes estimate   =    -329.48037118 Ry
     estimated scf accuracy    <       0.00205198 Ry

     iteration #  6     ecut=    30.00 Ry     beta=0.70
     Davidson diagonalization with overlap
     ethr =  3.73E-06,  avg # of iterations =  1.0

     total cpu time spent up to now is       15.6 secs

     total energy              =    -329.48016710 Ry
     Harris-Foulkes estimate   =    -329.48022795 Ry
     estimated scf accuracy    <       0.00076643 Ry

     iteration #  7     ecut=    30.00 Ry     beta=0.70
     Davidson diagonalization with overlap
     ethr =  1.39E-06,  avg # of iterations =  1.0

     total cpu time spent up to now is       15.7 secs

     total energy              =    -329.48014767 Ry
     Harris-Foulkes estimate   =    -329.48018304 Ry
     estimated scf accuracy    <       0.00034778 Ry

     iteration #  8     ecut=    30.00 Ry     beta=0.70
     Davidson diagonalization with overlap
     ethr =  6.32E-07,  avg # of iterations =  1.0

     total cpu time spent up to now is       15.9 secs

     total energy              =    -329.48014801 Ry
     Harris-Foulkes estimate   =    -329.48016063 Ry
     estimated scf accuracy    <       0.00007072 Ry

     iteration #  9     ecut=    30.00 Ry     beta=0.70
     Davidson diagonalization with overlap
     ethr =  1.29E-07,  avg # of iterations =  3.0

     total cpu time spent up to now is       16.1 secs

     total energy              =    -329.48015640 Ry
     Harris-Foulkes estimate   =    -329.48015744 Ry
     estimated scf accuracy    <       0.00000290 Ry

     iteration # 10     ecut=    30.00 Ry     beta=0.70
     Davidson diagonalization with overlap
     ethr =  5.28E-09,  avg # of iterations =  3.0

     total cpu time spent up to now is       16.4 secs

     total energy              =    -329.48015678 Ry
     Harris-Foulkes estimate   =    -329.48015785 Ry
     estimated scf accuracy    <       0.00000996 Ry

     iteration # 11     ecut=    30.00 Ry     beta=0.70
     Davidson diagonalization with overlap
     ethr =  5.28E-09,  avg # of iterations =  1.0

     total cpu time spent up to now is       16.5 secs

     total energy              =    -329.48015681 Ry
     Harris-Foulkes estimate   =    -329.48015714 Ry
     estimated scf accuracy    <       0.00000158 Ry

     iteration # 12     ecut=    30.00 Ry     beta=0.70
     Davidson diagonalization with overlap
     ethr =  2.87E-09,  avg # of iterations =  1.0

     total cpu time spent up to now is       16.7 secs

     total energy              =    -329.48015696 Ry
     Harris-Foulkes estimate   =    -329.48015699 Ry
     estimated scf accuracy    <       0.00000004 Ry

     iteration # 13     ecut=    30.00 Ry     beta=0.70
     Davidson diagonalization with overlap
     ethr =  7.31E-11,  avg # of iterations =  3.0

     total cpu time spent up to now is       17.0 secs

     total energy              =    -329.48015693 Ry
     Harris-Foulkes estimate   =    -329.48015698 Ry
     estimated scf accuracy    <       0.00000002 Ry

     iteration # 14     ecut=    30.00 Ry     beta=0.70
     Davidson diagonalization with overlap
     ethr =  4.27E-11,  avg # of iterations =  2.0

     total cpu time spent up to now is       17.2 secs

     total energy              =    -329.48015690 Ry
     Harris-Foulkes estimate   =    -329.48015694 Ry
     estimated scf accuracy    <          7.0E-09 Ry

     iteration # 15     ecut=    30.00 Ry     beta=0.70
     Davidson diagonalization with overlap
     ethr =  1.28E-11,  avg # of iterations =  2.0

     total cpu time spent up to now is       17.4 secs

     End of self-consistent calculation

          k = 0.0000 0.0000 0.0000 ( 22119 PWs)   bands (ev):

    -8.0805  -7.6488  -7.4943  -7.2039  -7.0394  -6.5816  -6.4974  -6.4787
    -6.1197  -6.0926  -5.8546  -5.6569  -5.5488  -5.3953  -5.3816  -5.3640
    -5.3119  -5.2534  -5.0704  -5.0559  -5.0389  -4.9320  -4.4988  -4.4455
    -4.4194  -4.2920  -4.2531  -3.8569  -2.3977  -2.1087  -0.4564  -0.2899
     0.5578   0.8607

     the Fermi energy is    -3.9492 ev

!    total energy              =    -329.48015688 Ry
     Harris-Foulkes estimate   =    -329.48015690 Ry
     estimated scf accuracy    <          6.0E-10 Ry

     The total energy is the sum of the following terms:

     one-electron contribution =    -602.17576038 Ry
     hartree contribution      =     322.89270170 Ry
     xc contribution           =     -51.48848503 Ry
     ewald contribution        =       1.26419469 Ry
     smearing contrib. (-TS)   =       0.02719213 Ry

     convergence has been achieved in  15 iterations

     Forces acting on atoms (Ry/au):

     atom    1 type  1   force =    -0.01809402   -0.00353931   -0.01956532
     atom    2 type  1   force =     0.01876237   -0.00137700    0.00357239
     atom    3 type  1   force =    -0.00296404    0.00761656    0.01691296
     atom    4 type  1   force =    -0.00480553    0.00271955    0.00117019
     atom    5 type  1   force =     0.00710122   -0.00541981   -0.00209021

     Total force =     0.039475     Total SCF correction =     0.000053

     number of scf cycles    =   5
     number of bfgs steps    =   4

     energy   old            =    -329.4768384811 Ry
     energy   new            =    -329.4801568843 Ry

     CASE: energy  _new < energy  _old

     new trust radius        =       0.0231751011 bohr
     new conv_thr            =       0.0000000020 Ry


ATOMIC_POSITIONS (bohr)
Au      -2.157760041   2.090877719  -0.272850428
Au      -0.030640827   3.657038368   3.960055317
Au       2.788622922   1.293974670   0.004498074
Au       4.925551276   4.070436368   5.703763995
Au       7.278333670   1.204413875   2.371174042



     Writing output data file pwscf.save
     Check: negative starting charge=   -0.006277
     NEW-OLD atomic charge density approx. for the potential
     Check: negative starting charge=   -0.006270

     negative rho (up, down):  9.099E-05 0.000E+00

     total cpu time spent up to now is       17.6 secs

     per-process dynamical memory:    50.7 Mb

     Self-consistent Calculation

     iteration #  1     ecut=    30.00 Ry     beta=0.70
     Davidson diagonalization with overlap
     ethr =  1.00E-06,  avg # of iterations =  4.0

     negative rho (up, down):  7.127E-07 0.000E+00

     total cpu time spent up to now is       17.9 secs

     total energy              =    -329.48118021 Ry
     Harris-Foulkes estimate   =    -329.48142378 Ry
     estimated scf accuracy    <       0.00040561 Ry

     iteration #  2     ecut=    30.00 Ry     beta=0.70
     Davidson diagonalization with overlap
     ethr =  7.37E-07,  avg # of iterations =  3.0

     negative rho (up, down):  3.717E-07 0.000E+00

     total cpu time spent up to now is       18.2 secs

     total energy              =    -329.48049745 Ry
     Harris-Foulkes estimate   =    -329.48229113 Ry
     estimated scf accuracy    <       0.01000979 Ry

     iteration #  3     ecut=    30.00 Ry     beta=0.70
     Davidson diagonalization with overlap
     ethr =  7.37E-07,  avg # of iterations =  3.0

     negative rho (up, down):  9.902E-08 0.000E+00

     total cpu time spent up to now is       18.4 secs

     total energy              =    -329.48135753 Ry
     Harris-Foulkes estimate   =    -329.48145947 Ry
     estimated scf accuracy    <       0.00040363 Ry

     iteration #  4     ecut=    30.00 Ry     beta=0.70
     Davidson diagonalization with overlap
     ethr =  7.34E-07,  avg # of iterations =  1.0

     total cpu time spent up to now is       18.6 secs

     total energy              =    -329.48139860 Ry
     Harris-Foulkes estimate   =    -329.48143755 Ry
     estimated scf accuracy    <       0.00020076 Ry

     iteration #  5     ecut=    30.00 Ry     beta=0.70
     Davidson diagonalization with overlap
     ethr =  3.65E-07,  avg # of iterations =  1.0

     total cpu time spent up to now is       18.8 secs

     total energy              =    -329.48142008 Ry
     Harris-Foulkes estimate   =    -329.48142326 Ry
     estimated scf accuracy    <       0.00001241 Ry

     iteration #  6     ecut=    30.00 Ry     beta=0.70
     Davidson diagonalization with overlap
     ethr =  2.26E-08,  avg # of iterations =  2.0

     total cpu time spent up to now is       18.9 secs

     total energy              =    -329.48142225 Ry
     Harris-Foulkes estimate   =    -329.48142252 Ry
     estimated scf accuracy    <       0.00000087 Ry

     iteration #  7     ecut=    30.00 Ry     beta=0.70
     Davidson diagonalization with overlap
     ethr =  1.58E-09,  avg # of iterations =  3.0

     total cpu time spent up to now is       19.2 secs

     total energy              =    -329.48142277 Ry
     Harris-Foulkes estimate   =    -329.48142259 Ry
     estimated scf accuracy    <       0.00000036 Ry

     iteration #  8     ecut=    30.00 Ry     beta=0.70
     Davidson diagonalization with overlap
     ethr =  6.50E-10,  avg # of iterations =  2.0

     total cpu time spent up to now is       19.4 secs

     total energy              =    -329.48142281 Ry
     Harris-Foulkes estimate   =    -329.48142284 Ry
     estimated scf accuracy    <       0.00000013 Ry

     iteration #  9     ecut=    30.00 Ry     beta=0.70
     Davidson diagonalization with overlap
     ethr =  2.32E-10,  avg # of iterations =  2.0

     total cpu time spent up to now is       19.6 secs

     total energy              =    -329.48142281 Ry
     Harris-Foulkes estimate   =    -329.48142282 Ry
     estimated scf accuracy    <       0.00000001 Ry

     iteration # 10     ecut=    30.00 Ry     beta=0.70
     Davidson diagonalization with overlap
     ethr =  2.49E-11,  avg # of iterations =  3.0

     total cpu time spent up to now is       19.8 secs

     End of self-consistent calculation

          k = 0.0000 0.0000 0.0000 ( 22119 PWs)   bands (ev):

    -8.0863  -7.6438  -7.4932  -7.2079  -7.0478  -6.5797  -6.5031  -6.4756
    -6.1281  -6.0921  -5.8461  -5.6590  -5.5510  -5.3984  -5.3760  -5.3619
    -5.3117  -5.2516  -5.0762  -5.0619  -5.0427  -4.9364  -4.5004  -4.4508
    -4.4254  -4.2882  -4.2520  -3.8558  -2.4053  -2.1027  -0.4588  -0.2892
     0.5476   0.8630

     the Fermi energy is    -3.9470 ev

!    total energy              =    -329.48142288 Ry
     Harris-Foulkes estimate   =    -329.48142281 Ry
     estimated scf accuracy    <          1.1E-09 Ry

     The total energy is the sum of the following terms:

     one-electron contribution =    -602.16834132 Ry
     hartree contribution      =     322.88451310 Ry
     xc contribution           =     -51.48564024 Ry
     ewald contribution        =       1.26103004 Ry
     smearing contrib. (-TS)   =       0.02701555 Ry

     convergence has been achieved in  10 iterations

     Forces acting on atoms (Ry/au):

     atom    1 type  1   force =    -0.01466635   -0.00277494   -0.01583440
     atom    2 type  1   force =     0.01630045   -0.00210082    0.00076526
     atom    3 type  1   force =    -0.00473002    0.00744009    0.01557729
     atom    4 type  1   force =    -0.00396006    0.00252891    0.00113772
     atom    5 type  1   force =     0.00705597   -0.00509325   -0.00164586

     Total force =     0.034153     Total SCF correction =     0.000114

     number of scf cycles    =   6
     number of bfgs steps    =   5

     energy   old            =    -329.4801568843 Ry
     energy   new            =    -329.4814228775 Ry

     CASE: energy  _new < energy  _old


     WARNING: bfgs curvature condition failed, Theta= 0.916
     new trust radius        =       0.0254926112 bohr
     new conv_thr            =       0.0000000013 Ry


ATOMIC_POSITIONS (bohr)
Au      -2.171194546   2.089112877  -0.286639895
Au      -0.018451678   3.651247036   3.952113737
Au       2.783835937   1.304295562   0.027311166
Au       4.929004203   4.070488682   5.702996273
Au       7.280913085   1.201596842   2.370859719



     Writing output data file pwscf.save
     Check: negative starting charge=   -0.006270
     NEW-OLD atomic charge density approx. for the potential
     Check: negative starting charge=   -0.006276

     negative rho (up, down):  9.367E-05 0.000E+00

     total cpu time spent up to now is       20.0 secs

     per-process dynamical memory:    50.7 Mb

     Self-consistent Calculation

     iteration #  1     ecut=    30.00 Ry     beta=0.70
     Davidson diagonalization with overlap
     ethr =  1.00E-06,  avg # of iterations =  4.0

     negative rho (up, down):  7.249E-07 0.000E+00

     total cpu time spent up to now is       20.4 secs

     total energy              =    -329.48218737 Ry
     Harris-Foulkes estimate   =    -329.48246672 Ry
     estimated scf accuracy    <       0.00045240 Ry

     iteration #  2     ecut=    30.00 Ry     beta=0.70
     Davidson diagonalization with overlap
     ethr =  8.23E-07,  avg # of iterations =  3.0

     negative rho (up, down):  3.814E-07 0.000E+00

     total cpu time spent up to now is       20.6 secs

     total energy              =    -329.48133301 Ry
     Harris-Foulkes estimate   =    -329.48351731 Ry
     estimated scf accuracy    <       0.01274192 Ry

     iteration #  3     ecut=    30.00 Ry     beta=0.70
     Davidson diagonalization with overlap
     ethr =  8.23E-07,  avg # of iterations =  3.0

     negative rho (up, down):  1.263E-07 0.000E+00

     total cpu time spent up to now is       20.8 secs

     total energy              =    -329.48239173 Ry
     Harris-Foulkes estimate   =    -329.48251368 Ry
     estimated scf accuracy    <       0.00054923 Ry

     iteration #  4     ecut=    30.00 Ry     beta=0.70
     Davidson diagonalization with overlap
     ethr =  8.23E-07,  avg # of iterations =  1.0

     total cpu time spent up to now is       21.0 secs

     total energy              =    -329.48244675 Ry
     Harris-Foulkes estimate   =    -329.48247178 Ry
     estimated scf accuracy    <       0.00011838 Ry

     iteration #  5     ecut=    30.00 Ry     beta=0.70
     Davidson diagonalization with overlap
     ethr =  2.15E-07,  avg # of iterations =  1.0

     total cpu time spent up to now is       21.2 secs

     total energy              =    -329.48245998 Ry
     Harris-Foulkes estimate   =    -329.48246335 Ry
     estimated scf accuracy    <       0.00001159 Ry

     iteration #  6     ecut=    30.00 Ry     beta=0.70
     Davidson diagonalization with overlap
     ethr =  2.11E-08,  avg # of iterations =  2.0

     total cpu time spent up to now is       21.4 secs

     total energy              =    -329.48246210 Ry
     Harris-Foulkes estimate   =    -329.48246245 Ry
     estimated scf accuracy    <       0.00000119 Ry

     iteration #  7     ecut=    30.00 Ry     beta=0.70
     Davidson diagonalization with overlap
     ethr =  2.16E-09,  avg # of iterations =  3.0

     total cpu time spent up to now is       21.6 secs

     total energy              =    -329.48246226 Ry
     Harris-Foulkes estimate   =    -329.48246245 Ry
     estimated scf accuracy    <       0.00000054 Ry

     iteration #  8     ecut=    30.00 Ry     beta=0.70
     Davidson diagonalization with overlap
     ethr =  9.88E-10,  avg # of iterations =  2.0

     total cpu time spent up to now is       21.8 secs

     total energy              =    -329.48246229 Ry
     Harris-Foulkes estimate   =    -329.48246232 Ry
     estimated scf accuracy    <       0.00000012 Ry

     iteration #  9     ecut=    30.00 Ry     beta=0.70
     Davidson diagonalization with overlap
     ethr =  2.26E-10,  avg # of iterations =  2.0

     total cpu time spent up to now is       22.0 secs

     total energy              =    -329.48246239 Ry
     Harris-Foulkes estimate   =    -329.48246230 Ry
     estimated scf accuracy    <          9.0E-09 Ry

     iteration # 10     ecut=    30.00 Ry     beta=0.70
     Davidson diagonalization with overlap
     ethr =  1.64E-11,  avg # of iterations =  3.0

     total cpu time spent up to now is       22.2 secs

     End of self-consistent calculation

          k = 0.0000 0.0000 0.0000 ( 22119 PWs)   bands (ev):

    -8.1027  -7.6473  -7.5003  -7.2141  -7.0637  -6.5831  -6.5125  -6.4795
    -6.1449  -6.0905  -5.8376  -5.6619  -5.5546  -5.4071  -5.3730  -5.3569
    -5.3099  -5.2490  -5.0816  -5.0682  -5.0472  -4.9411  -4.4988  -4.4551
    -4.4286  -4.2816  -4.2467  -3.8500  -2.4109  -2.0947  -0.4619  -0.2865
     0.5390   0.8648

     the Fermi energy is    -3.9404 ev

!    total energy              =    -329.48246241 Ry
     Harris-Foulkes estimate   =    -329.48246239 Ry
     estimated scf accuracy    <          1.1E-09 Ry

     The total energy is the sum of the following terms:

     one-electron contribution =    -602.61985284 Ry
     hartree contribution      =     323.10354795 Ry
     xc contribution           =     -51.48508806 Ry
     ewald contribution        =       1.49211736 Ry
     smearing contrib. (-TS)   =       0.02681317 Ry

     convergence has been achieved in  10 iterations

     Forces acting on atoms (Ry/au):

     atom    1 type  1   force =    -0.01249486   -0.00250303   -0.01376464
     atom    2 type  1   force =     0.01456990   -0.00182686    0.00023281
     atom    3 type  1   force =    -0.00570914    0.00690737    0.01379373
     atom    4 type  1   force =    -0.00381102    0.00267576    0.00142205
     atom    5 type  1   force =     0.00744511   -0.00525325   -0.00168394

     Total force =     0.030784     Total SCF correction =     0.000118

     number of scf cycles    =   7
     number of bfgs steps    =   6

     energy   old            =    -329.4814228775 Ry
     energy   new            =    -329.4824624131 Ry

     CASE: energy  _new < energy  _old

     new trust radius        =       0.0382389167 bohr
     new conv_thr            =       0.0000000010 Ry


ATOMIC_POSITIONS (bohr)
Au      -2.190891016   2.086222541  -0.307391203
Au       0.000584391   3.643055350   3.940591522
Au       2.774229324   1.320009390   0.060822408
Au       4.932899407   4.071603225   5.702795027
Au       7.287284894   1.195850495   2.369823245



     Writing output data file pwscf.save
     Check: negative starting charge=   -0.006276
     NEW-OLD atomic charge density approx. for the potential
     Check: negative starting charge=   -0.006287

     negative rho (up, down):  2.490E-04 0.000E+00

     total cpu time spent up to now is       22.5 secs

     per-process dynamical memory:    50.7 Mb

     Self-consistent Calculation

     iteration #  1     ecut=    30.00 Ry     beta=0.70
     Davidson diagonalization with overlap
     ethr =  1.00E-06,  avg # of iterations =  5.0

     negative rho (up, down):  5.428E-06 0.000E+00

     total cpu time spent up to now is       22.9 secs

     total energy              =    -329.48318516 Ry
     Harris-Foulkes estimate   =    -329.48383295 Ry
     estimated scf accuracy    <       0.00108576 Ry

     iteration #  2     ecut=    30.00 Ry     beta=0.70
     Davidson diagonalization with overlap
     ethr =  1.97E-06,  avg # of iterations =  3.0

     negative rho (up, down):  3.174E-06 0.000E+00

     total cpu time spent up to now is       23.1 secs

     total energy              =    -329.48127746 Ry
     Harris-Foulkes estimate   =    -329.48633957 Ry
     estimated scf accuracy    <       0.02861020 Ry

     iteration #  3     ecut=    30.00 Ry     beta=0.70
     Davidson diagonalization with overlap
     ethr =  1.97E-06,  avg # of iterations =  3.0

     negative rho (up, down):  1.392E-06 0.000E+00

     total cpu time spent up to now is       23.4 secs

     total energy              =    -329.48369836 Ry
     Harris-Foulkes estimate   =    -329.48397927 Ry
     estimated scf accuracy    <       0.00127710 Ry

     iteration #  4     ecut=    30.00 Ry     beta=0.70
     Davidson diagonalization with overlap
     ethr =  1.97E-06,  avg # of iterations =  1.0

     negative rho (up, down):  1.658E-08 0.000E+00

     total cpu time spent up to now is       23.5 secs

     total energy              =    -329.48381910 Ry
     Harris-Foulkes estimate   =    -329.48386205 Ry
     estimated scf accuracy    <       0.00019352 Ry

     iteration #  5     ecut=    30.00 Ry     beta=0.70
     Davidson diagonalization with overlap
     ethr =  3.52E-07,  avg # of iterations =  1.0

     total cpu time spent up to now is       23.7 secs

     total energy              =    -329.48384296 Ry
     Harris-Foulkes estimate   =    -329.48385059 Ry
     estimated scf accuracy    <       0.00003090 Ry

     iteration #  6     ecut=    30.00 Ry     beta=0.70
     Davidson diagonalization with overlap
     ethr =  5.62E-08,  avg # of iterations =  2.0

     total cpu time spent up to now is       23.9 secs

     total energy              =    -329.48384836 Ry
     Harris-Foulkes estimate   =    -329.48384907 Ry
     estimated scf accuracy    <       0.00000363 Ry

     iteration #  7     ecut=    30.00 Ry     beta=0.70
     Davidson diagonalization with overlap
     ethr =  6.60E-09,  avg # of iterations =  3.0

     total cpu time spent up to now is       24.1 secs

     total energy              =    -329.48384908 Ry
     Harris-Foulkes estimate   =    -329.48384919 Ry
     estimated scf accuracy    <       0.00000214 Ry

     iteration #  8     ecut=    30.00 Ry     beta=0.70
     Davidson diagonalization with overlap
     ethr =  3.89E-09,  avg # of iterations =  2.0

     total cpu time spent up to now is       24.3 secs

     total energy              =    -329.48384925 Ry
     Harris-Foulkes estimate   =    -329.48384928 Ry
     estimated scf accuracy    <       0.00000025 Ry

     iteration #  9     ecut=    30.00 Ry     beta=0.70
     Davidson diagonalization with overlap
     ethr =  4.55E-10,  avg # of iterations =  2.0

     total cpu time spent up to now is       24.5 secs

     total energy              =    -329.48384931 Ry
     Harris-Foulkes estimate   =    -329.48384930 Ry
     estimated scf accuracy    <       0.00000001 Ry

     iteration # 10     ecut=    30.00 Ry     beta=0.70
     Davidson diagonalization with overlap
     ethr =  2.42E-11,  avg # of iterations =  2.0

     total cpu time spent up to now is       24.7 secs

     total energy              =    -329.48384927 Ry
     Harris-Foulkes estimate   =    -329.48384931 Ry
     estimated scf accuracy    <          4.3E-09 Ry

     iteration # 11     ecut=    30.00 Ry     beta=0.70
     Davidson diagonalization with overlap
     ethr =  7.82E-12,  avg # of iterations =  2.0

     total cpu time spent up to now is       24.9 secs

     End of self-consistent calculation

          k = 0.0000 0.0000 0.0000 ( 22119 PWs)   bands (ev):

    -8.1273  -7.6482  -7.5085  -7.2255  -7.0904  -6.5861  -6.5226  -6.4841
    -6.1729  -6.0899  -5.8237  -5.6651  -5.5619  -5.4228  -5.3697  -5.3468
    -5.3068  -5.2450  -5.0906  -5.0799  -5.0550  -4.9437  -4.4965  -4.4666
    -4.4324  -4.2723  -4.2393  -3.8419  -2.4196  -2.0847  -0.4661  -0.2823
     0.5258   0.8671

     the Fermi energy is    -3.9304 ev

!    total energy              =    -329.48384930 Ry
     Harris-Foulkes estimate   =    -329.48384927 Ry
     estimated scf accuracy    <          8.9E-10 Ry

     The total energy is the sum of the following terms:

     one-electron contribution =    -603.19078304 Ry
     hartree contribution      =     323.37862829 Ry
     xc contribution           =     -51.48378358 Ry
     ewald contribution        =       1.78569205 Ry
     smearing contrib. (-TS)   =       0.02639698 Ry

     convergence has been achieved in  11 iterations

     Forces acting on atoms (Ry/au):

     atom    1 type  1   force =    -0.00939937   -0.00211212   -0.01061988
     atom    2 type  1   force =     0.01185567   -0.00139379   -0.00036374
     atom    3 type  1   force =    -0.00608439    0.00623034    0.01115093
     atom    4 type  1   force =    -0.00348417    0.00248840    0.00145287
     atom    5 type  1   force =     0.00711225   -0.00521283   -0.00162018

     Total force =     0.025480     Total SCF correction =     0.000109

     number of scf cycles    =   8
     number of bfgs steps    =   7

     energy   old            =    -329.4824624131 Ry
     energy   new            =    -329.4838492988 Ry

     CASE: energy  _new < energy  _old

     new trust radius        =       0.0573583751 bohr
     new conv_thr            =       0.0000000012 Ry


ATOMIC_POSITIONS (bohr)
Au      -2.219144052   2.081664287  -0.337629881
Au       0.029279093   3.631352696   3.923316246
Au       2.757565985   1.344247639   0.110064906
Au       4.937485217   4.074005043   5.703178915
Au       7.298920757   1.185471335   2.367710814



     Writing output data file pwscf.save
     Check: negative starting charge=   -0.006287
     NEW-OLD atomic charge density approx. for the potential
     Check: negative starting charge=   -0.006297

     negative rho (up, down):  5.618E-04 0.000E+00

     total cpu time spent up to now is       25.1 secs

     per-process dynamical memory:    50.7 Mb

     Self-consistent Calculation

     iteration #  1     ecut=    30.00 Ry     beta=0.70
     Davidson diagonalization with overlap
     ethr =  1.00E-06,  avg # of iterations =  5.0

     negative rho (up, down):  2.477E-05 0.000E+00

     total cpu time spent up to now is       25.5 secs

     total energy              =    -329.48389978 Ry
     Harris-Foulkes estimate   =    -329.48522128 Ry
     estimated scf accuracy    <       0.00245772 Ry

     iteration #  2     ecut=    30.00 Ry     beta=0.70
     Davidson diagonalization with overlap
     ethr =  4.47E-06,  avg # of iterations =  3.0

     negative rho (up, down):  1.596E-05 0.000E+00

     total cpu time spent up to now is       25.8 secs

     total energy              =    -329.48027949 Ry
     Harris-Foulkes estimate   =    -329.49079381 Ry
     estimated scf accuracy    <       0.05535340 Ry

     iteration #  3     ecut=    30.00 Ry     beta=0.70
     Davidson diagonalization with overlap
     ethr =  4.47E-06,  avg # of iterations =  3.0

     negative rho (up, down):  7.929E-06 0.000E+00

     total cpu time spent up to now is       26.1 secs

     total energy              =    -329.48517201 Ry
     Harris-Foulkes estimate   =    -329.48565227 Ry
     estimated scf accuracy    <       0.00202895 Ry

     iteration #  4     ecut=    30.00 Ry     beta=0.70
     Davidson diagonalization with overlap
     ethr =  3.69E-06,  avg # of iterations =  1.0

     negative rho (up, down):  2.263E-07 0.000E+00

     total cpu time spent up to now is       26.3 secs

     total energy              =    -329.48534844 Ry
     Harris-Foulkes estimate   =    -329.48541441 Ry
     estimated scf accuracy    <       0.00028783 Ry

     iteration #  5     ecut=    30.00 Ry     beta=0.70
     Davidson diagonalization with overlap
     ethr =  5.23E-07,  avg # of iterations =  1.0

     total cpu time spent up to now is       26.4 secs

     total energy              =    -329.48538347 Ry
     Harris-Foulkes estimate   =    -329.48540414 Ry
     estimated scf accuracy    <       0.00008003 Ry

     iteration #  6     ecut=    30.00 Ry     beta=0.70
     Davidson diagonalization with overlap
     ethr =  1.46E-07,  avg # of iterations =  2.0

     total cpu time spent up to now is       26.6 secs

     total energy              =    -329.48539818 Ry
     Harris-Foulkes estimate   =    -329.48540157 Ry
     estimated scf accuracy    <       0.00002484 Ry

     iteration #  7     ecut=    30.00 Ry     beta=0.70
     Davidson diagonalization with overlap
     ethr =  4.52E-08,  avg # of iterations =  1.0

     total cpu time spent up to now is       26.8 secs

     total energy              =    -329.48539957 Ry
     Harris-Foulkes estimate   =    -329.48540035 Ry
     estimated scf accuracy    <       0.00000508 Ry

     iteration #  8     ecut=    30.00 Ry     beta=0.70
     Davidson diagonalization with overlap
     ethr =  9.23E-09,  avg # of iterations =  2.0

     total cpu time spent up to now is       27.0 secs

     total energy              =    -329.48540028 Ry
     Harris-Foulkes estimate   =    -329.48540031 Ry
     estimated scf accuracy    <       0.00000021 Ry

     iteration #  9     ecut=    30.00 Ry     beta=0.70
     Davidson diagonalization with overlap
     ethr =  3.79E-10,  avg # of iterations =  3.0

     total cpu time spent up to now is       27.3 secs

     total energy              =    -329.48540034 Ry
     Harris-Foulkes estimate   =    -329.48540037 Ry
     estimated scf accuracy    <       0.00000008 Ry

     iteration # 10     ecut=    30.00 Ry     beta=0.70
     Davidson diagonalization with overlap
     ethr =  1.54E-10,  avg # of iterations =  2.0

     total cpu time spent up to now is       27.5 secs

     total energy              =    -329.48540028 Ry
     Harris-Foulkes estimate   =    -329.48540036 Ry
     estimated scf accuracy    <       0.00000001 Ry

     iteration # 11     ecut=    30.00 Ry     beta=0.70
     Davidson diagonalization with overlap
     ethr =  2.10E-11,  avg # of iterations =  2.0

     total cpu time spent up to now is       27.7 secs

     End of self-consistent calculation

          k = 0.0000 0.0000 0.0000 ( 22119 PWs)   bands (ev):

    -8.1667  -7.6513  -7.5164  -7.2473  -7.1395  -6.5930  -6.5313  -6.4896
    -6.2177  -6.0925  -5.7999  -5.6692  -5.5765  -5.4448  -5.3666  -5.3325
    -5.3024  -5.2396  -5.1075  -5.0982  -5.0668  -4.9370  -4.5011  -4.4819
    -4.4356  -4.2586  -4.2290  -3.8298  -2.4325  -2.0723  -0.4720  -0.2756
     0.5059   0.8702

     the Fermi energy is    -3.9145 ev

!    total energy              =    -329.48540035 Ry
     Harris-Foulkes estimate   =    -329.48540028 Ry
     estimated scf accuracy    <          9.9E-10 Ry

     The total energy is the sum of the following terms:

     one-electron contribution =    -604.00480693 Ry
     hartree contribution      =     323.76913715 Ry
     xc contribution           =     -51.48198298 Ry
     ewald contribution        =       2.20674221 Ry
     smearing contrib. (-TS)   =       0.02551020 Ry

     convergence has been achieved in  11 iterations

     Forces acting on atoms (Ry/au):

     atom    1 type  1   force =    -0.00509168   -0.00138237   -0.00627034
     atom    2 type  1   force =     0.00726785   -0.00035234   -0.00043805
     atom    3 type  1   force =    -0.00473467    0.00445214    0.00680743
     atom    4 type  1   force =    -0.00314529    0.00201396    0.00123619
     atom    5 type  1   force =     0.00570379   -0.00473139   -0.00133523

     Total force =     0.016765     Total SCF correction =     0.000134

     number of scf cycles    =   9
     number of bfgs steps    =   8

     energy   old            =    -329.4838492988 Ry
     energy   new            =    -329.4854003472 Ry

     CASE: energy  _new < energy  _old

     new trust radius        =       0.0860375627 bohr
     new conv_thr            =       0.0000000007 Ry


ATOMIC_POSITIONS (bohr)
Au      -2.262029708   2.073779676  -0.385224073
Au       0.075335047   3.616498860   3.900904347
Au       2.729539766   1.381710901   0.182269457
Au       4.938707362   4.080339648   5.705888808
Au       7.322554534   1.164411915   2.362802461



     Writing output data file pwscf.save
     Check: negative starting charge=   -0.006297
     NEW-OLD atomic charge density approx. for the potential
     Check: negative starting charge=   -0.006292

     negative rho (up, down):  1.230E-03 0.000E+00

     total cpu time spent up to now is       27.9 secs

     per-process dynamical memory:    50.7 Mb

     Self-consistent Calculation

     iteration #  1     ecut=    30.00 Ry     beta=0.70
     Davidson diagonalization with overlap
     ethr =  1.00E-06,  avg # of iterations =  9.0

     negative rho (up, down):  9.257E-05 0.000E+00

     total cpu time spent up to now is       28.4 secs

     total energy              =    -329.48287326 Ry
     Harris-Foulkes estimate   =    -329.48561517 Ry
     estimated scf accuracy    <       0.00566891 Ry

     iteration #  2     ecut=    30.00 Ry     beta=0.70
     Davidson diagonalization with overlap
     ethr =  1.03E-05,  avg # of iterations =  4.0

     negative rho (up, down):  6.221E-05 0.000E+00

     total cpu time spent up to now is       28.6 secs

     total energy              =    -329.47745282 Ry
     Harris-Foulkes estimate   =    -329.49760200 Ry
     estimated scf accuracy    <       0.09135401 Ry

     iteration #  3     ecut=    30.00 Ry     beta=0.70
     Davidson diagonalization with overlap
     ethr =  1.03E-05,  avg # of iterations =  3.0

     negative rho (up, down):  2.678E-05 0.000E+00

     total cpu time spent up to now is       28.9 secs

     total energy              =    -329.48604387 Ry
     Harris-Foulkes estimate   =    -329.48655201 Ry
     estimated scf accuracy    <       0.00163258 Ry

     iteration #  4     ecut=    30.00 Ry     beta=0.70
     Davidson diagonalization with overlap
     ethr =  2.97E-06,  avg # of iterations =  2.0

     negative rho (up, down):  4.042E-06 0.000E+00

     total cpu time spent up to now is       29.1 secs

     total energy              =    -329.48613228 Ry
     Harris-Foulkes estimate   =    -329.48636453 Ry
     estimated scf accuracy    <       0.00104528 Ry

     iteration #  5     ecut=    30.00 Ry     beta=0.70
     Davidson diagonalization with overlap
     ethr =  1.90E-06,  avg # of iterations =  1.0

     total cpu time spent up to now is       29.3 secs

     total energy              =    -329.48625991 Ry
     Harris-Foulkes estimate   =    -329.48633765 Ry
     estimated scf accuracy    <       0.00031962 Ry

     iteration #  6     ecut=    30.00 Ry     beta=0.70
     Davidson diagonalization with overlap
     ethr =  5.81E-07,  avg # of iterations =  1.0

     total cpu time spent up to now is       29.4 secs

     total energy              =    -329.48630911 Ry
     Harris-Foulkes estimate   =    -329.48631330 Ry
     estimated scf accuracy    <       0.00004909 Ry

     iteration #  7     ecut=    30.00 Ry     beta=0.70
     Davidson diagonalization with overlap
     ethr =  8.92E-08,  avg # of iterations =  1.0

     total cpu time spent up to now is       29.6 secs

     total energy              =    -329.48631021 Ry
     Harris-Foulkes estimate   =    -329.48631336 Ry
     estimated scf accuracy    <       0.00002408 Ry

     iteration #  8     ecut=    30.00 Ry     beta=0.70
     Davidson diagonalization with overlap
     ethr =  4.38E-08,  avg # of iterations =  1.0

     total cpu time spent up to now is       29.8 secs

     total energy              =    -329.48631165 Ry
     Harris-Foulkes estimate   =    -329.48631202 Ry
     estimated scf accuracy    <       0.00000122 Ry

     iteration #  9     ecut=    30.00 Ry     beta=0.70
     Davidson diagonalization with overlap
     ethr =  2.22E-09,  avg # of iterations =  3.0

     total cpu time spent up to now is       30.0 secs

     total energy              =    -329.48631211 Ry
     Harris-Foulkes estimate   =    -329.48631204 Ry
     estimated scf accuracy    <       0.00000015 Ry

     iteration # 10     ecut=    30.00 Ry     beta=0.70
     Davidson diagonalization with overlap
     ethr =  2.78E-10,  avg # of iterations =  3.0

     total cpu time spent up to now is       30.3 secs

     total energy              =    -329.48631213 Ry
     Harris-Foulkes estimate   =    -329.48631216 Ry
     estimated scf accuracy    <       0.00000006 Ry

     iteration # 11     ecut=    30.00 Ry     beta=0.70
     Davidson diagonalization with overlap
     ethr =  1.17E-10,  avg # of iterations =  2.0

     total cpu time spent up to now is       30.5 secs

     total energy              =    -329.48631211 Ry
     Harris-Foulkes estimate   =    -329.48631214 Ry
     estimated scf accuracy    <       0.00000001 Ry

     iteration # 12     ecut=    30.00 Ry     beta=0.70
     Davidson diagonalization with overlap
     ethr =  2.54E-11,  avg # of iterations =  2.0

     total cpu time spent up to now is       30.7 secs

     total energy              =    -329.48631211 Ry
     Harris-Foulkes estimate   =    -329.48631211 Ry
     estimated scf accuracy    <          2.0E-09 Ry

     iteration # 13     ecut=    30.00 Ry     beta=0.70
     Davidson diagonalization with overlap
     ethr =  3.59E-12,  avg # of iterations =  2.0

     total cpu time spent up to now is       30.9 secs

     total energy              =    -329.48631212 Ry
     Harris-Foulkes estimate   =    -329.48631211 Ry
     estimated scf accuracy    <          8.9E-10 Ry

     iteration # 14     ecut=    30.00 Ry     beta=0.70
     Davidson diagonalization with overlap
     ethr =  1.61E-12,  avg # of iterations =  2.0

     total cpu time spent up to now is       31.2 secs

     total energy              =    -329.48631214 Ry
     Harris-Foulkes estimate   =    -329.48631212 Ry
     estimated scf accuracy    <          2.1E-09 Ry

     iteration # 15     ecut=    30.00 Ry     beta=0.70
     Davidson diagonalization with overlap
     ethr =  1.61E-12,  avg # of iterations =  2.0

     total cpu time spent up to now is       31.3 secs

     End of self-consistent calculation

          k = 0.0000 0.0000 0.0000 ( 22119 PWs)   bands (ev):

    -8.2268  -7.6624  -7.5191  -7.2830  -7.2252  -6.6142  -6.5328  -6.4871
    -6.2746  -6.0988  -5.7604  -5.6744  -5.6030  -5.4714  -5.3644  -5.3141
    -5.2987  -5.2350  -5.1414  -5.1158  -5.0867  -4.9048  -4.5458  -4.4779
    -4.4371  -4.2413  -4.2184  -3.8147  -2.4530  -2.0587  -0.4804  -0.2657
     0.4752   0.8746

     the Fermi energy is    -3.8925 ev

!    total energy              =    -329.48631212 Ry
     Harris-Foulkes estimate   =    -329.48631214 Ry
     estimated scf accuracy    <          6.3E-11 Ry

     The total energy is the sum of the following terms:

     one-electron contribution =    -604.84809800 Ry
     hartree contribution      =     324.16642843 Ry
     xc contribution           =     -51.47886542 Ry
     ewald contribution        =       2.65044685 Ry
     smearing contrib. (-TS)   =       0.02377602 Ry

     convergence has been achieved in  15 iterations

     Forces acting on atoms (Ry/au):

     atom    1 type  1   force =     0.00158928    0.00020822   -0.00074336
     atom    2 type  1   force =    -0.00310678    0.00290893    0.00158533
     atom    3 type  1   force =     0.00058808   -0.00118567   -0.00033605
     atom    4 type  1   force =    -0.00133880    0.00068976   -0.00005559
     atom    5 type  1   force =     0.00226821   -0.00262123   -0.00045033

     Total force =     0.006333     Total SCF correction =     0.000030

     number of scf cycles    =  10
     number of bfgs steps    =   9

     energy   old            =    -329.4854003472 Ry
     energy   new            =    -329.4863121224 Ry

     CASE: energy  _new < energy  _old

     new trust radius        =       0.0138838604 bohr
     new conv_thr            =       0.0000000003 Ry


ATOMIC_POSITIONS (bohr)
Au      -2.257635155   2.073839571  -0.383319908
Au       0.071002867   3.623182767   3.910669368
Au       2.732240416   1.375356994   0.170223880
Au       4.932338707   4.082463753   5.707377144
Au       7.326160166   1.161897914   2.361690516



     Writing output data file pwscf.save
     Check: negative starting charge=   -0.006292
     NEW-OLD atomic charge density approx. for the potential
     Check: negative starting charge=   -0.006291

     negative rho (up, down):  1.950E-05 0.000E+00

     total cpu time spent up to now is       31.5 secs

     per-process dynamical memory:    50.7 Mb

     Self-consistent Calculation

     iteration #  1     ecut=    30.00 Ry     beta=0.70
     Davidson diagonalization with overlap
     ethr =  1.00E-06,  avg # of iterations =  4.0

     negative rho (up, down):  3.686E-08 0.000E+00

     total cpu time spent up to now is       31.9 secs

     total energy              =    -329.48628444 Ry
     Harris-Foulkes estimate   =    -329.48635395 Ry
     estimated scf accuracy    <       0.00012568 Ry

     iteration #  2     ecut=    30.00 Ry     beta=0.70
     Davidson diagonalization with overlap
     ethr =  2.29E-07,  avg # of iterations =  3.0

     negative rho (up, down):  1.147E-08 0.000E+00

     total cpu time spent up to now is       32.1 secs

     total energy              =    -329.48619110 Ry
     Harris-Foulkes estimate   =    -329.48658755 Ry
     estimated scf accuracy    <       0.00195580 Ry

     iteration #  3     ecut=    30.00 Ry     beta=0.70
     Davidson diagonalization with overlap
     ethr =  2.29E-07,  avg # of iterations =  3.0

     total cpu time spent up to now is       32.4 secs

     total energy              =    -329.48634612 Ry
     Harris-Foulkes estimate   =    -329.48636064 Ry
     estimated scf accuracy    <       0.00005507 Ry

     iteration #  4     ecut=    30.00 Ry     beta=0.70
     Davidson diagonalization with overlap
     ethr =  1.00E-07,  avg # of iterations =  1.0

     total cpu time spent up to now is       32.5 secs

     total energy              =    -329.48635458 Ry
     Harris-Foulkes estimate   =    -329.48635760 Ry
     estimated scf accuracy    <       0.00002391 Ry

     iteration #  5     ecut=    30.00 Ry     beta=0.70
     Davidson diagonalization with overlap
     ethr =  4.35E-08,  avg # of iterations =  1.0

     total cpu time spent up to now is       32.7 secs

     total energy              =    -329.48635662 Ry
     Harris-Foulkes estimate   =    -329.48635685 Ry
     estimated scf accuracy    <       0.00000077 Ry

     iteration #  6     ecut=    30.00 Ry     beta=0.70
     Davidson diagonalization with overlap
     ethr =  1.40E-09,  avg # of iterations =  3.0

     total cpu time spent up to now is       33.0 secs

     total energy              =    -329.48635669 Ry
     Harris-Foulkes estimate   =    -329.48635689 Ry
     estimated scf accuracy    <       0.00000084 Ry

     iteration #  7     ecut=    30.00 Ry     beta=0.70
     Davidson diagonalization with overlap
     ethr =  1.40E-09,  avg # of iterations =  2.0

[...]
     xc contribution           =     -51.38309460 Ry
     ewald contribution        =       1.48049191 Ry
     smearing contrib. (-TS)   =      -0.00629536 Ry

     convergence has been achieved in   8 iterations

     Forces acting on atoms (Ry/au):

     atom    1 type  1   force =    -0.00506142   -0.00113295   -0.00686320
     atom    2 type  1   force =     0.00959881    0.01066653    0.01684523
     atom    3 type  1   force =     0.02279821   -0.00541417    0.00252698
     atom    4 type  1   force =    -0.01477394   -0.00756893   -0.01164429
     atom    5 type  1   force =    -0.01256166    0.00344953   -0.00086472

     Total force =     0.041240     Total SCF correction =     0.000130

     number of scf cycles    =  47
     number of bfgs steps    =  22

     energy   old            =    -329.4905439060 Ry
     energy   new            =    -329.4859609579 Ry

     CASE: energy  _new > energy  _old

     new trust radius        =       0.0000307542 bohr

     trust_radius < trust_radius_min

     resetting bfgs history

     new conv_thr            =       0.0000000017 Ry


ATOMIC_POSITIONS (bohr)
Au      -2.100077678   2.117411191  -0.563043940
Au      -0.249398709   3.926072384   3.843785804
Au       2.781151744   1.397019449   0.584920637
Au       4.855759561   4.019640051   5.483442335
Au       7.516672082   0.856597925   2.417536164



     Writing output data file pwscf.save
     Check: negative starting charge=   -0.006267
     NEW-OLD atomic charge density approx. for the potential
     Check: negative starting charge=   -0.006281

     negative rho (up, down):  5.049E-05 0.000E+00

     total cpu time spent up to now is      121.3 secs

     per-process dynamical memory:    50.7 Mb

     Self-consistent Calculation

     iteration #  1     ecut=    30.00 Ry     beta=0.70
     Davidson diagonalization with overlap
     ethr =  1.00E-06,  avg # of iterations =  4.0

     negative rho (up, down):  2.174E-07 0.000E+00

     total cpu time spent up to now is      121.6 secs

     total energy              =    -329.48679123 Ry
     Harris-Foulkes estimate   =    -329.48681842 Ry
     estimated scf accuracy    <       0.00007465 Ry

     iteration #  2     ecut=    30.00 Ry     beta=0.70
     Davidson diagonalization with overlap
     ethr =  1.36E-07,  avg # of iterations =  3.0

     negative rho (up, down):  3.826E-08 0.000E+00

     total cpu time spent up to now is      121.8 secs

     total energy              =    -329.48677204 Ry
     Harris-Foulkes estimate   =    -329.48688874 Ry
     estimated scf accuracy    <       0.00033376 Ry

     iteration #  3     ecut=    30.00 Ry     beta=0.70
     Davidson diagonalization with overlap
     ethr =  1.36E-07,  avg # of iterations =  3.0

     total cpu time spent up to now is      122.1 secs

     total energy              =    -329.48682901 Ry
     Harris-Foulkes estimate   =    -329.48683079 Ry
     estimated scf accuracy    <       0.00000808 Ry

     iteration #  4     ecut=    30.00 Ry     beta=0.70
     Davidson diagonalization with overlap
     ethr =  1.47E-08,  avg # of iterations =  2.0

     total cpu time spent up to now is      122.3 secs

     total energy              =    -329.48683108 Ry
     Harris-Foulkes estimate   =    -329.48683200 Ry
     estimated scf accuracy    <       0.00000421 Ry

     iteration #  5     ecut=    30.00 Ry     beta=0.70
     Davidson diagonalization with overlap
     ethr =  7.66E-09,  avg # of iterations =  2.0

     total cpu time spent up to now is      122.5 secs

     total energy              =    -329.48683193 Ry
     Harris-Foulkes estimate   =    -329.48683220 Ry
     estimated scf accuracy    <       0.00000080 Ry

     iteration #  6     ecut=    30.00 Ry     beta=0.70
     Davidson diagonalization with overlap
     ethr =  1.45E-09,  avg # of iterations =  2.0

     total cpu time spent up to now is      122.7 secs

     total energy              =    -329.48683218 Ry
     Harris-Foulkes estimate   =    -329.48683210 Ry
     estimated scf accuracy    <       0.00000004 Ry

     iteration #  7     ecut=    30.00 Ry     beta=0.70
     Davidson diagonalization with overlap
     ethr =  8.14E-11,  avg # of iterations =  2.0

     total cpu time spent up to now is      122.9 secs

     total energy              =    -329.48683222 Ry
     Harris-Foulkes estimate   =    -329.48683220 Ry
     estimated scf accuracy    <          7.8E-09 Ry

     iteration #  8     ecut=    30.00 Ry     beta=0.70
     Davidson diagonalization with overlap
     ethr =  1.42E-11,  avg # of iterations =  2.0

     total cpu time spent up to now is      123.1 secs

     End of self-consistent calculation

          k = 0.0000 0.0000 0.0000 ( 22119 PWs)   bands (ev):

    -8.4896  -7.7256  -7.5184  -7.1935  -6.9761  -6.8110  -6.5361  -6.4541
    -6.2132  -6.0324  -6.0149  -5.7461  -5.7076  -5.6500  -5.4164  -5.3776
    -5.3231  -5.2184  -5.2115  -5.1968  -5.1595  -5.1184  -5.0154  -4.9967
    -4.9565  -4.5944  -4.5548  -3.7231  -2.5456  -2.2223  -0.5113  -0.1764
     0.4533   0.7488

     the Fermi energy is    -3.6821 ev

!    total energy              =    -329.48683225 Ry
     Harris-Foulkes estimate   =    -329.48683222 Ry
     estimated scf accuracy    <          1.1E-09 Ry

     The total energy is the sum of the following terms:

     one-electron contribution =    -602.68262895 Ry
     hartree contribution      =     322.78608808 Ry
     xc contribution           =     -51.38443474 Ry
     ewald contribution        =       1.80045797 Ry
     smearing contrib. (-TS)   =      -0.00631461 Ry

     convergence has been achieved in   8 iterations

     Forces acting on atoms (Ry/au):

     atom    1 type  1   force =    -0.00280015   -0.00093396   -0.00531422
     atom    2 type  1   force =     0.00925385    0.00972039    0.01470536
     atom    3 type  1   force =     0.01810602   -0.00429540    0.00210597
     atom    4 type  1   force =    -0.01548199   -0.00619578   -0.00965565
     atom    5 type  1   force =    -0.00907772    0.00170474   -0.00184146

     Total force =     0.035271     Total SCF correction =     0.000137

     number of scf cycles    =  48
     number of bfgs steps    =  22

     energy   old            =    -329.4905439060 Ry
     energy   new            =    -329.4868322490 Ry

     CASE: energy  _new > energy  _old

     new trust radius        =       0.0024749295 bohr
     new conv_thr            =       0.0000000017 Ry


ATOMIC_POSITIONS (bohr)
Au      -2.099431509   2.116570635  -0.560686797
Au      -0.248707533   3.919648986   3.835690856
Au       2.768374968   1.398411104   0.581185980
Au       4.858754756   4.031654800   5.499001673
Au       7.525116319   0.850455475   2.411449287



     Writing output data file pwscf.save
     Check: negative starting charge=   -0.006281
     NEW-OLD atomic charge density approx. for the potential
     Check: negative starting charge=   -0.006267

     negative rho (up, down):  4.958E-05 0.000E+00

     total cpu time spent up to now is      123.3 secs

     per-process dynamical memory:    50.7 Mb

     Self-consistent Calculation

     iteration #  1     ecut=    30.00 Ry     beta=0.70
     Davidson diagonalization with overlap
     ethr =  1.00E-06,  avg # of iterations =  4.0

     negative rho (up, down):  2.272E-07 0.000E+00

     total cpu time spent up to now is      123.7 secs

     total energy              =    -329.48592361 Ry
     Harris-Foulkes estimate   =    -329.48594585 Ry
     estimated scf accuracy    <       0.00007339 Ry

     iteration #  2     ecut=    30.00 Ry     beta=0.70
     Davidson diagonalization with overlap
     ethr =  1.33E-07,  avg # of iterations =  3.0

     negative rho (up, down):  4.474E-08 0.000E+00

     total cpu time spent up to now is      124.0 secs

     total energy              =    -329.48590323 Ry
     Harris-Foulkes estimate   =    -329.48601881 Ry
     estimated scf accuracy    <       0.00033052 Ry

     iteration #  3     ecut=    30.00 Ry     beta=0.70
     Davidson diagonalization with overlap
     ethr =  1.33E-07,  avg # of iterations =  3.0

     total cpu time spent up to now is      124.2 secs

     total energy              =    -329.48595899 Ry
     Harris-Foulkes estimate   =    -329.48596204 Ry
     estimated scf accuracy    <       0.00000867 Ry

     iteration #  4     ecut=    30.00 Ry     beta=0.70
     Davidson diagonalization with overlap
     ethr =  1.58E-08,  avg # of iterations =  2.0

     total cpu time spent up to now is      124.4 secs

     total energy              =    -329.48596016 Ry
     Harris-Foulkes estimate   =    -329.48596205 Ry
     estimated scf accuracy    <       0.00000416 Ry

     iteration #  5     ecut=    30.00 Ry     beta=0.70
     Davidson diagonalization with overlap
     ethr =  7.56E-09,  avg # of iterations =  2.0

     total cpu time spent up to now is      124.6 secs

     total energy              =    -329.48596076 Ry
     Harris-Foulkes estimate   =    -329.48596127 Ry
     estimated scf accuracy    <       0.00000077 Ry

     iteration #  6     ecut=    30.00 Ry     beta=0.70
     Davidson diagonalization with overlap
     ethr =  1.40E-09,  avg # of iterations =  2.0

     total cpu time spent up to now is      124.8 secs

     total energy              =    -329.48596100 Ry
     Harris-Foulkes estimate   =    -329.48596093 Ry
     estimated scf accuracy    <       0.00000004 Ry

     iteration #  7     ecut=    30.00 Ry     beta=0.70
     Davidson diagonalization with overlap
     ethr =  7.73E-11,  avg # of iterations =  2.0

     total cpu time spent up to now is      125.0 secs

     total energy              =    -329.48596102 Ry
     Harris-Foulkes estimate   =    -329.48596102 Ry
     estimated scf accuracy    <          7.8E-09 Ry

     iteration #  8     ecut=    30.00 Ry     beta=0.70
     Davidson diagonalization with overlap
     ethr =  1.41E-11,  avg # of iterations =  2.0

     total cpu time spent up to now is      125.2 secs

     End of self-consistent calculation

          k = 0.0000 0.0000 0.0000 ( 22119 PWs)   bands (ev):

    -8.5014  -7.7125  -7.5087  -7.1937  -6.9602  -6.8200  -6.5116  -6.4416
    -6.2078  -6.0284  -6.0024  -5.7523  -5.7067  -5.6503  -5.4163  -5.3749
    -5.3231  -5.2152  -5.2138  -5.1979  -5.1550  -5.1157  -5.0159  -5.0018
    -4.9592  -4.6015  -4.5494  -3.7238  -2.5460  -2.2298  -0.5094  -0.1756
     0.4540   0.7472

     the Fermi energy is    -3.6829 ev

!    total energy              =    -329.48596096 Ry
     Harris-Foulkes estimate   =    -329.48596102 Ry
     estimated scf accuracy    <          1.0E-09 Ry

     The total energy is the sum of the following terms:

     one-electron contribution =    -602.05232574 Ry
     hartree contribution      =     322.47526283 Ry
     xc contribution           =     -51.38309460 Ry
     ewald contribution        =       1.48049191 Ry
     smearing contrib. (-TS)   =      -0.00629536 Ry

     convergence has been achieved in   8 iterations

     Forces acting on atoms (Ry/au):

     atom    1 type  1   force =    -0.00506142   -0.00113295   -0.00686320
     atom    2 type  1   force =     0.00959881    0.01066653    0.01684523
     atom    3 type  1   force =     0.02279821   -0.00541417    0.00252698
     atom    4 type  1   force =    -0.01477394   -0.00756893   -0.01164429
     atom    5 type  1   force =    -0.01256166    0.00344953   -0.00086472

     Total force =     0.041240     Total SCF correction =     0.000130

     number of scf cycles    =  49
     number of bfgs steps    =  22

     energy   old            =    -329.4905439060 Ry
     energy   new            =    -329.4859609579 Ry

     CASE: energy  _new > energy  _old

     new trust radius        =       0.0000307542 bohr

     trust_radius < trust_radius_min

     resetting bfgs history

     new conv_thr            =       0.0000000017 Ry


ATOMIC_POSITIONS (bohr)
Au      -2.100077678   2.117411191  -0.563043940
Au      -0.249398709   3.926072384   3.843785804
Au       2.781151744   1.397019449   0.584920637
Au       4.855759561   4.019640051   5.483442335
Au       7.516672082   0.856597925   2.417536164



     Writing output data file pwscf.save
     Check: negative starting charge=   -0.006267
     NEW-OLD atomic charge density approx. for the potential
     Check: negative starting charge=   -0.006281

     negative rho (up, down):  5.049E-05 0.000E+00

     total cpu time spent up to now is      125.5 secs

     per-process dynamical memory:    50.7 Mb

     Self-consistent Calculation

     iteration #  1     ecut=    30.00 Ry     beta=0.70
     Davidson diagonalization with overlap
     ethr =  1.00E-06,  avg # of iterations =  4.0

     negative rho (up, down):  2.174E-07 0.000E+00

     total cpu time spent up to now is      125.8 secs

     total energy              =    -329.48679123 Ry
     Harris-Foulkes estimate   =    -329.48681842 Ry
     estimated scf accuracy    <       0.00007465 Ry

     iteration #  2     ecut=    30.00 Ry     beta=0.70
     Davidson diagonalization with overlap
     ethr =  1.36E-07,  avg # of iterations =  3.0

     negative rho (up, down):  3.826E-08 0.000E+00

     total cpu time spent up to now is      126.1 secs

     total energy              =    -329.48677204 Ry
     Harris-Foulkes estimate   =    -329.48688874 Ry
     estimated scf accuracy    <       0.00033376 Ry

     iteration #  3     ecut=    30.00 Ry     beta=0.70
     Davidson diagonalization with overlap
     ethr =  1.36E-07,  avg # of iterations =  3.0

     total cpu time spent up to now is      126.3 secs

     total energy              =    -329.48682901 Ry
     Harris-Foulkes estimate   =    -329.48683079 Ry
     estimated scf accuracy    <       0.00000808 Ry

     iteration #  4     ecut=    30.00 Ry     beta=0.70
     Davidson diagonalization with overlap
     ethr =  1.47E-08,  avg # of iterations =  2.0

     total cpu time spent up to now is      126.5 secs

     total energy              =    -329.48683108 Ry
     Harris-Foulkes estimate   =    -329.48683200 Ry
     estimated scf accuracy    <       0.00000421 Ry

     iteration #  5     ecut=    30.00 Ry     beta=0.70
     Davidson diagonalization with overlap
     ethr =  7.66E-09,  avg # of iterations =  2.0

     total cpu time spent up to now is      126.7 secs

     total energy              =    -329.48683193 Ry
     Harris-Foulkes estimate   =    -329.48683220 Ry
     estimated scf accuracy    <       0.00000080 Ry

     iteration #  6     ecut=    30.00 Ry     beta=0.70
     Davidson diagonalization with overlap
     ethr =  1.45E-09,  avg # of iterations =  2.0

     total cpu time spent up to now is      126.9 secs

     total energy              =    -329.48683218 Ry
     Harris-Foulkes estimate   =    -329.48683210 Ry
     estimated scf accuracy    <       0.00000004 Ry

     iteration #  7     ecut=    30.00 Ry     beta=0.70
     Davidson diagonalization with overlap
     ethr =  8.14E-11,  avg # of iterations =  2.0

     total cpu time spent up to now is      127.1 secs

     total energy              =    -329.48683222 Ry
     Harris-Foulkes estimate   =    -329.48683220 Ry
     estimated scf accuracy    <          7.8E-09 Ry

     iteration #  8     ecut=    30.00 Ry     beta=0.70
     Davidson diagonalization with overlap
     ethr =  1.42E-11,  avg # of iterations =  2.0

     total cpu time spent up to now is      127.3 secs

     End of self-consistent calculation

          k = 0.0000 0.0000 0.0000 ( 22119 PWs)   bands (ev):

    -8.4896  -7.7256  -7.5184  -7.1935  -6.9761  -6.8110  -6.5361  -6.4541
    -6.2132  -6.0324  -6.0149  -5.7461  -5.7076  -5.6500  -5.4164  -5.3776
    -5.3231  -5.2184  -5.2115  -5.1968  -5.1595  -5.1184  -5.0154  -4.9967
    -4.9565  -4.5944  -4.5548  -3.7231  -2.5456  -2.2223  -0.5113  -0.1764
     0.4533   0.7488

     the Fermi energy is    -3.6821 ev

!    total energy              =    -329.48683225 Ry
     Harris-Foulkes estimate   =    -329.48683222 Ry
     estimated scf accuracy    <          1.1E-09 Ry

     The total energy is the sum of the following terms:

     one-electron contribution =    -602.68262895 Ry
     hartree contribution      =     322.78608808 Ry
     xc contribution           =     -51.38443474 Ry
     ewald contribution        =       1.80045797 Ry
     smearing contrib. (-TS)   =      -0.00631461 Ry

     convergence has been achieved in   8 iterations

     Forces acting on atoms (Ry/au):

     atom    1 type  1   force =    -0.00280015   -0.00093396   -0.00531422
     atom    2 type  1   force =     0.00925385    0.00972039    0.01470536
     atom    3 type  1   force =     0.01810602   -0.00429540    0.00210597
     atom    4 type  1   force =    -0.01548199   -0.00619578   -0.00965565
     atom    5 type  1   force =    -0.00907772    0.00170474   -0.00184146

     Total force =     0.035271     Total SCF correction =     0.000137

     number of scf cycles    =  50
     number of bfgs steps    =  22

     energy   old            =    -329.4905439060 Ry
     energy   new            =    -329.4868322490 Ry

     CASE: energy  _new > energy  _old

     new trust radius        =       0.0024749295 bohr
     new conv_thr            =       0.0000000017 Ry


ATOMIC_POSITIONS (bohr)
Au      -2.099431509   2.116570635  -0.560686797
Au      -0.248707533   3.919648986   3.835690856
Au       2.768374968   1.398411104   0.581185980
Au       4.858754756   4.031654800   5.499001673
Au       7.525116319   0.850455475   2.411449287



     Writing output data file pwscf.save
     Check: negative starting charge=   -0.006281
     NEW-OLD atomic charge density approx. for the potential
     Check: negative starting charge=   -0.006267

     negative rho (up, down):  4.958E-05 0.000E+00

     Writing output data file pwscf.save
 
     init_run     :      0.16s CPU      0.18s WALL (       1 calls)
     electrons    :    110.46s CPU    118.30s WALL (      50 calls)
     update_pot   :      3.27s CPU      4.04s WALL (      50 calls)
     forces       :      2.07s CPU      2.11s WALL (      50 calls)

     Called by init_run:
     wfcinit      :      0.07s CPU      0.08s WALL (       1 calls)
     potinit      :      0.03s CPU      0.03s WALL (       1 calls)

     Called by electrons:
     c_bands      :     83.82s CPU     84.90s WALL (     507 calls)
     sum_band     :     12.02s CPU     12.31s WALL (     507 calls)
     v_of_rho     :      9.85s CPU      9.98s WALL (     552 calls)
     mix_rho      :      3.77s CPU      8.26s WALL (     507 calls)

     Called by c_bands:
     init_us_2    :      1.59s CPU      1.66s WALL (    1015 calls)
     cegterg      :     74.59s CPU     75.21s WALL (     507 calls)

     Called by sum_band:

     Called by *egterg:
     h_psi        :     58.04s CPU     58.50s WALL (    1819 calls)
     g_psi        :      0.58s CPU      0.58s WALL (    1311 calls)
     cdiaghg      :      4.13s CPU      4.14s WALL (    1763 calls)

     Called by h_psi:
     h_psi:pot    :     57.19s CPU     57.64s WALL (    1819 calls)
     h_psi:calbec :      3.22s CPU      3.22s WALL (    1819 calls)
     vloc_psi     :     50.39s CPU     50.82s WALL (    1819 calls)
     add_vuspsi   :      3.58s CPU      3.58s WALL (    1819 calls)

     General routines
     calbec       :      3.81s CPU      3.85s WALL (    2019 calls)
     fft          :      5.41s CPU      5.54s WALL (    6184 calls)
     fftw         :     53.14s CPU     54.00s WALL (  111892 calls)
     davcio       :      0.61s CPU      4.18s WALL (    5422 calls)
 
     Parallel routines
     fft_scatter  :     13.68s CPU     13.24s WALL (  118076 calls)
 
     PWSCF        :  1m57.24s CPU     2m 7.62s WALL

 
   This run was terminated on:  22:41:23   3Aug2017            

=------------------------------------------------------------------------------=
   JOB DONE.
=------------------------------------------------------------------------------=
