
     Program PWSCF v.6.0 (svn rev. 13079) starts on  3Aug2017 at 22:22:15 

     This program is part of the open-source Quantum ESPRESSO suite
     for quantum simulation of materials; please cite
         "P. Giannozzi et al., J. Phys.:Condens. Matter 21 395502 (2009);
          URL http://www.quantum-espresso.org", 
     in publications or presentations arising from this work. More details at
     http://www.quantum-espresso.org/quote

     Parallel version (MPI), running on    10 processors
     R & G space division:  proc/nbgrp/npool/nimage =      10
     Reading input from input/multi/minchecks-Gold5-516.in

     Current dimensions of program PWSCF are:
     Max number of different atomic species (ntypx) = 10
     Max number of k-points (npk) =  40000
     Max angular momentum in pseudopotentials (lmaxx) =  3
     Message from routine iosys:
     pot_extrapolation='second-order' not available, using 'atomic'
     Message from routine iosys:
     wfc_extrapolation='second-order' not available, using 'atomic'

     Subspace diagonalization in iterative solution of the eigenvalue problem:
     a serial algorithm will be used

 
     Parallelization info
     --------------------
     sticks:   dense  smooth     PW     G-vecs:    dense   smooth      PW
     Min         380     380     94                17748    17748    2208
     Max         381     381     95                17753    17753    2213
     Sum        3809    3809    949               177509   177509   22119
 


     bravais-lattice index     =            1
     lattice parameter (alat)  =      20.0000  a.u.
     unit-cell volume          =    8000.0000 (a.u.)^3
     number of atoms/cell      =            5
     number of atomic types    =            1
     number of electrons       =        55.00
     number of Kohn-Sham states=           34
     kinetic-energy cutoff     =      30.0000  Ry
     charge density cutoff     =     120.0000  Ry
     convergence threshold     =      1.0E-08
     mixing beta               =       0.7000
     number of iterations used =            8  plain     mixing
     Exchange-correlation      = BLYP ( 1  3  1  3 0 0)
     nstep                     =           50


     celldm(1)=  20.000000  celldm(2)=   0.000000  celldm(3)=   0.000000
     celldm(4)=   0.000000  celldm(5)=   0.000000  celldm(6)=   0.000000

     crystal axes: (cart. coord. in units of alat)
               a(1) = (   1.000000   0.000000   0.000000 )  
               a(2) = (   0.000000   1.000000   0.000000 )  
               a(3) = (   0.000000   0.000000   1.000000 )  

     reciprocal axes: (cart. coord. in units 2 pi/alat)
               b(1) = (  1.000000  0.000000  0.000000 )  
               b(2) = (  0.000000  1.000000  0.000000 )  
               b(3) = (  0.000000  0.000000  1.000000 )  


     PseudoPot. # 1 for Au read from file:
     ./Au.blyp-d-hgh.UPF
     MD5 check sum: c10d8bae01f806c36a1643a1c69a8479
     Pseudo is Norm-conserving, Zval = 11.0
     Generated in analytical, separable form
     Using radial grid of 1279 points,  6 beta functions with: 
                l(1) =   0
                l(2) =   0
                l(3) =   1
                l(4) =   1
                l(5) =   2
                l(6) =   2

     atomic species   valence    mass     pseudopotential
        Au            11.00    28.08600     Au( 1.00)

     No symmetry found



   Cartesian axes

     site n.     atom                  positions (alat units)
         1           Au  tau(   1) = (  -0.0922547   0.1352561  -0.0481503  )
         2           Au  tau(   2) = (  -0.0327226   0.1937879   0.1899789  )
         3           Au  tau(   3) = (   0.1579899   0.0904457   0.0158766  )
         4           Au  tau(   4) = (   0.2059718   0.2069394   0.2866380  )
         5           Au  tau(   5) = (   0.3852308   0.0690437   0.1659745  )

     number of k points=     1  Marzari-Vanderbilt smearing, width (Ry)=  0.0250
                       cart. coord. in units 2pi/alat
        k(    1) = (   0.0000000   0.0000000   0.0000000), wk =   2.0000000

     Dense  grid:   177509 G-vectors     FFT dimensions: (  72,  72,  72)

     Estimated max dynamical RAM per process >      15.04Mb

     Estimated total allocated dynamical RAM >     150.39Mb

     Initial potential from superposition of free atoms
     Check: negative starting charge=   -0.006236

     starting charge   54.99940, renormalised to   55.00000

     negative rho (up, down):  6.236E-03 0.000E+00
     Starting wfc are   45 randomized atomic wfcs

     total cpu time spent up to now is        0.3 secs

     per-process dynamical memory:    41.0 Mb

     Self-consistent Calculation

     iteration #  1     ecut=    30.00 Ry     beta=0.70
     Davidson diagonalization with overlap
     ethr =  1.00E-02,  avg # of iterations =  3.0

     Threshold (ethr) on eigenvalues was too large:
     Diagonalizing with lowered threshold

     Davidson diagonalization with overlap
     ethr =  3.76E-04,  avg # of iterations =  5.0

     negative rho (up, down):  8.443E-04 0.000E+00

     total cpu time spent up to now is        0.7 secs

     total energy              =    -329.37350756 Ry
     Harris-Foulkes estimate   =    -329.52882299 Ry
     estimated scf accuracy    <       0.26112946 Ry

     iteration #  2     ecut=    30.00 Ry     beta=0.70
     Davidson diagonalization with overlap
     ethr =  4.75E-04,  avg # of iterations =  2.0

     negative rho (up, down):  3.766E-04 0.000E+00

     total cpu time spent up to now is        0.9 secs

     total energy              =    -329.40324699 Ry
     Harris-Foulkes estimate   =    -329.54572226 Ry
     estimated scf accuracy    <       0.29482898 Ry

     iteration #  3     ecut=    30.00 Ry     beta=0.70
     Davidson diagonalization with overlap
     ethr =  4.75E-04,  avg # of iterations =  2.0

     negative rho (up, down):  1.369E-04 0.000E+00

     total cpu time spent up to now is        1.1 secs

     total energy              =    -329.46378701 Ry
     Harris-Foulkes estimate   =    -329.48881769 Ry
     estimated scf accuracy    <       0.06499513 Ry

     iteration #  4     ecut=    30.00 Ry     beta=0.70
     Davidson diagonalization with overlap
     ethr =  1.18E-04,  avg # of iterations =  2.0

     negative rho (up, down):  7.767E-06 0.000E+00

     total cpu time spent up to now is        1.3 secs

     total energy              =    -329.47535346 Ry
     Harris-Foulkes estimate   =    -329.47685765 Ry
     estimated scf accuracy    <       0.00355849 Ry

     iteration #  5     ecut=    30.00 Ry     beta=0.70
     Davidson diagonalization with overlap
     ethr =  6.47E-06,  avg # of iterations =  5.0

     total cpu time spent up to now is        1.6 secs

     total energy              =    -329.47610935 Ry
     Harris-Foulkes estimate   =    -329.47723877 Ry
     estimated scf accuracy    <       0.00317280 Ry

     iteration #  6     ecut=    30.00 Ry     beta=0.70
     Davidson diagonalization with overlap
     ethr =  5.77E-06,  avg # of iterations =  2.0

     total cpu time spent up to now is        1.8 secs

     total energy              =    -329.47660495 Ry
     Harris-Foulkes estimate   =    -329.47677249 Ry
     estimated scf accuracy    <       0.00042145 Ry

     iteration #  7     ecut=    30.00 Ry     beta=0.70
     Davidson diagonalization with overlap
     ethr =  7.66E-07,  avg # of iterations =  2.0

     total cpu time spent up to now is        2.1 secs

     total energy              =    -329.47668757 Ry
     Harris-Foulkes estimate   =    -329.47669835 Ry
     estimated scf accuracy    <       0.00002384 Ry

     iteration #  8     ecut=    30.00 Ry     beta=0.70
     Davidson diagonalization with overlap
     ethr =  4.33E-08,  avg # of iterations =  3.0

     total cpu time spent up to now is        2.3 secs

     total energy              =    -329.47669349 Ry
     Harris-Foulkes estimate   =    -329.47669798 Ry
     estimated scf accuracy    <       0.00000927 Ry

     iteration #  9     ecut=    30.00 Ry     beta=0.70
     Davidson diagonalization with overlap
     ethr =  1.69E-08,  avg # of iterations =  2.0

     total cpu time spent up to now is        2.5 secs

     total energy              =    -329.47669519 Ry
     Harris-Foulkes estimate   =    -329.47669593 Ry
     estimated scf accuracy    <       0.00000134 Ry

     iteration # 10     ecut=    30.00 Ry     beta=0.70
     Davidson diagonalization with overlap
     ethr =  2.44E-09,  avg # of iterations =  2.0

     total cpu time spent up to now is        2.7 secs

     total energy              =    -329.47669525 Ry
     Harris-Foulkes estimate   =    -329.47669555 Ry
     estimated scf accuracy    <       0.00000022 Ry

     iteration # 11     ecut=    30.00 Ry     beta=0.70
     Davidson diagonalization with overlap
     ethr =  4.05E-10,  avg # of iterations =  3.0

     total cpu time spent up to now is        3.0 secs

     total energy              =    -329.47669525 Ry
     Harris-Foulkes estimate   =    -329.47669532 Ry
     estimated scf accuracy    <       0.00000004 Ry

     iteration # 12     ecut=    30.00 Ry     beta=0.70
     Davidson diagonalization with overlap
     ethr =  8.05E-11,  avg # of iterations =  2.0

     total cpu time spent up to now is        3.2 secs

     End of self-consistent calculation

          k = 0.0000 0.0000 0.0000 ( 22119 PWs)   bands (ev):

    -8.0358  -7.4747  -7.4599  -7.0865  -6.8496  -6.6592  -6.5244  -6.3300
    -6.2126  -6.0068  -5.7964  -5.6811  -5.6147  -5.5868  -5.4417  -5.4098
    -5.3355  -5.2350  -5.1956  -5.1784  -5.1488  -5.1245  -5.1042  -4.9658
    -4.8625  -4.7161  -4.4563  -3.7763  -2.7375  -2.1792  -0.4734  -0.1877
     0.3531   0.6181

     the Fermi energy is    -3.7462 ev

!    total energy              =    -329.47669520 Ry
     Harris-Foulkes estimate   =    -329.47669526 Ry
     estimated scf accuracy    <          7.3E-09 Ry

     The total energy is the sum of the following terms:

     one-electron contribution =    -590.60185005 Ry
     hartree contribution      =     316.84220038 Ry
     xc contribution           =     -51.34921161 Ry
     ewald contribution        =      -4.36402842 Ry
     smearing contrib. (-TS)   =      -0.00380550 Ry

     convergence has been achieved in  12 iterations

     Forces acting on atoms (Ry/au):

     atom    1 type  1   force =     0.01369081   -0.00529333   -0.00583287
     atom    2 type  1   force =     0.01203682    0.00004891    0.00209602
     atom    3 type  1   force =     0.00071958    0.00782523    0.02781049
     atom    4 type  1   force =     0.00103980   -0.00633496   -0.00824796
     atom    5 type  1   force =    -0.02748701    0.00375415   -0.01582569

     Total force =     0.048613     Total SCF correction =     0.000274

     BFGS Geometry Optimization

     number of scf cycles    =   1
     number of bfgs steps    =   0

     energy   new            =    -329.4766952034 Ry

     new trust radius        =       0.0319387177 bohr
     new conv_thr            =       0.0000000100 Ry


ATOMIC_POSITIONS (bohr)
Au      -1.831403192   2.699828669  -0.968838872
Au      -0.642415185   3.875805914   3.801674020
Au       3.160518584   1.816739235   0.345343494
Au       4.120475803   4.132453035   5.724512043
Au       7.677128990   1.384628147   3.303665314



     Writing output data file pwscf.save
     Check: negative starting charge=   -0.006236
     NEW-OLD atomic charge density approx. for the potential
     Check: negative starting charge=   -0.006263

     negative rho (up, down):  1.835E-04 0.000E+00

     total cpu time spent up to now is        3.4 secs

     per-process dynamical memory:    42.9 Mb

     Self-consistent Calculation

     iteration #  1     ecut=    30.00 Ry     beta=0.70
     Davidson diagonalization with overlap
     ethr =  1.00E-06,  avg # of iterations =  4.0

     negative rho (up, down):  3.047E-06 0.000E+00

     total cpu time spent up to now is        3.8 secs

     total energy              =    -329.47886480 Ry
     Harris-Foulkes estimate   =    -329.47884884 Ry
     estimated scf accuracy    <       0.00013709 Ry

     iteration #  2     ecut=    30.00 Ry     beta=0.70
     Davidson diagonalization with overlap
     ethr =  2.49E-07,  avg # of iterations =  3.0

     negative rho (up, down):  7.180E-07 0.000E+00

     total cpu time spent up to now is        4.0 secs

     total energy              =    -329.47883953 Ry
     Harris-Foulkes estimate   =    -329.47899122 Ry
     estimated scf accuracy    <       0.00039674 Ry

     iteration #  3     ecut=    30.00 Ry     beta=0.70
     Davidson diagonalization with overlap
     ethr =  2.49E-07,  avg # of iterations =  2.0

     total cpu time spent up to now is        4.3 secs

     total energy              =    -329.47891659 Ry
     Harris-Foulkes estimate   =    -329.47892611 Ry
     estimated scf accuracy    <       0.00003323 Ry

     iteration #  4     ecut=    30.00 Ry     beta=0.70
     Davidson diagonalization with overlap
     ethr =  6.04E-08,  avg # of iterations =  2.0

     total cpu time spent up to now is        4.5 secs

     total energy              =    -329.47892343 Ry
     Harris-Foulkes estimate   =    -329.47892612 Ry
     estimated scf accuracy    <       0.00000967 Ry

     iteration #  5     ecut=    30.00 Ry     beta=0.70
     Davidson diagonalization with overlap
     ethr =  1.76E-08,  avg # of iterations =  2.0

     total cpu time spent up to now is        4.7 secs

     total energy              =    -329.47892538 Ry
     Harris-Foulkes estimate   =    -329.47892609 Ry
     estimated scf accuracy    <       0.00000213 Ry

     iteration #  6     ecut=    30.00 Ry     beta=0.70
     Davidson diagonalization with overlap
     ethr =  3.88E-09,  avg # of iterations =  2.0

     total cpu time spent up to now is        4.9 secs

     total energy              =    -329.47892603 Ry
     Harris-Foulkes estimate   =    -329.47892585 Ry
     estimated scf accuracy    <       0.00000017 Ry

     iteration #  7     ecut=    30.00 Ry     beta=0.70
     Davidson diagonalization with overlap
     ethr =  3.00E-10,  avg # of iterations =  2.0

     total cpu time spent up to now is        5.1 secs

     total energy              =    -329.47892604 Ry
     Harris-Foulkes estimate   =    -329.47892609 Ry
     estimated scf accuracy    <       0.00000003 Ry

     iteration #  8     ecut=    30.00 Ry     beta=0.70
     Davidson diagonalization with overlap
     ethr =  5.53E-11,  avg # of iterations =  2.0

     total cpu time spent up to now is        5.3 secs

     End of self-consistent calculation

          k = 0.0000 0.0000 0.0000 ( 22119 PWs)   bands (ev):

    -8.0671  -7.5096  -7.4892  -7.1210  -6.8756  -6.6741  -6.5371  -6.3561
    -6.2333  -6.0147  -5.8131  -5.6883  -5.6266  -5.5977  -5.4428  -5.4104
    -5.3376  -5.2372  -5.1950  -5.1767  -5.1531  -5.1193  -5.1069  -4.9604
    -4.8604  -4.7063  -4.4534  -3.7713  -2.7145  -2.1702  -0.4799  -0.1867
     0.3574   0.6276

     the Fermi energy is    -3.7410 ev

!    total energy              =    -329.47892598 Ry
     Harris-Foulkes estimate   =    -329.47892604 Ry
     estimated scf accuracy    <          4.3E-09 Ry

     The total energy is the sum of the following terms:

     one-electron contribution =    -592.89819150 Ry
     hartree contribution      =     317.97566111 Ry
     xc contribution           =     -51.35580149 Ry
     ewald contribution        =      -3.19675419 Ry
     smearing contrib. (-TS)   =      -0.00383990 Ry

     convergence has been achieved in   8 iterations

     Forces acting on atoms (Ry/au):

     atom    1 type  1   force =     0.01338517   -0.00517876   -0.00544158
     atom    2 type  1   force =     0.00955305    0.00017632    0.00148039
     atom    3 type  1   force =     0.00016722    0.00742653    0.02553126
     atom    4 type  1   force =     0.00034698   -0.00461799   -0.00607014
     atom    5 type  1   force =    -0.02345242    0.00219390   -0.01549993

     Total force =     0.043468     Total SCF correction =     0.000286

     number of scf cycles    =   2
     number of bfgs steps    =   1

     energy   old            =    -329.4766952034 Ry
     energy   new            =    -329.4789259782 Ry

     CASE: energy  _new < energy  _old


     WARNING: bfgs curvature condition failed, Theta= 0.897
     new trust radius        =       0.0351325894 bohr
     new conv_thr            =       0.0000000022 Ry


ATOMIC_POSITIONS (bohr)
Au      -1.815024752   2.693492574  -0.975552867
Au      -0.630254599   3.875994325   3.803606475
Au       3.160837291   1.825874183   0.376937002
Au       4.121042825   4.126467162   5.716660323
Au       7.647704235   1.387626755   3.284705066



     Writing output data file pwscf.save
     Check: negative starting charge=   -0.006263
     NEW-OLD atomic charge density approx. for the potential
     Check: negative starting charge=   -0.006292

     negative rho (up, down):  2.351E-04 0.000E+00

     total cpu time spent up to now is        5.5 secs

     per-process dynamical memory:    50.7 Mb

     Self-consistent Calculation

     iteration #  1     ecut=    30.00 Ry     beta=0.70
     Davidson diagonalization with overlap
     ethr =  1.00E-06,  avg # of iterations =  4.0

     negative rho (up, down):  4.962E-06 0.000E+00

     total cpu time spent up to now is        5.8 secs

     total energy              =    -329.48106187 Ry
     Harris-Foulkes estimate   =    -329.48102583 Ry
     estimated scf accuracy    <       0.00016437 Ry

     iteration #  2     ecut=    30.00 Ry     beta=0.70
     Davidson diagonalization with overlap
     ethr =  2.99E-07,  avg # of iterations =  3.0

     negative rho (up, down):  1.201E-06 0.000E+00

     total cpu time spent up to now is        6.1 secs

     total energy              =    -329.48103649 Ry
     Harris-Foulkes estimate   =    -329.48120261 Ry
     estimated scf accuracy    <       0.00042285 Ry

     iteration #  3     ecut=    30.00 Ry     beta=0.70
     Davidson diagonalization with overlap
     ethr =  2.99E-07,  avg # of iterations =  2.0

     total cpu time spent up to now is        6.3 secs

     total energy              =    -329.48112138 Ry
     Harris-Foulkes estimate   =    -329.48113455 Ry
     estimated scf accuracy    <       0.00004553 Ry

     iteration #  4     ecut=    30.00 Ry     beta=0.70
     Davidson diagonalization with overlap
     ethr =  8.28E-08,  avg # of iterations =  2.0

     total cpu time spent up to now is        6.5 secs

     total energy              =    -329.48113070 Ry
     Harris-Foulkes estimate   =    -329.48113363 Ry
     estimated scf accuracy    <       0.00001098 Ry

     iteration #  5     ecut=    30.00 Ry     beta=0.70
     Davidson diagonalization with overlap
     ethr =  2.00E-08,  avg # of iterations =  2.0

     total cpu time spent up to now is        6.7 secs

     total energy              =    -329.48113269 Ry
     Harris-Foulkes estimate   =    -329.48113383 Ry
     estimated scf accuracy    <       0.00000268 Ry

     iteration #  6     ecut=    30.00 Ry     beta=0.70
     Davidson diagonalization with overlap
     ethr =  4.87E-09,  avg # of iterations =  2.0

     total cpu time spent up to now is        6.9 secs

     total energy              =    -329.48113321 Ry
     Harris-Foulkes estimate   =    -329.48113328 Ry
     estimated scf accuracy    <       0.00000020 Ry

     iteration #  7     ecut=    30.00 Ry     beta=0.70
     Davidson diagonalization with overlap
     ethr =  3.65E-10,  avg # of iterations =  2.0

     total cpu time spent up to now is        7.2 secs

     total energy              =    -329.48113321 Ry
     Harris-Foulkes estimate   =    -329.48113327 Ry
     estimated scf accuracy    <       0.00000004 Ry

     iteration #  8     ecut=    30.00 Ry     beta=0.70
     Davidson diagonalization with overlap
     ethr =  6.59E-11,  avg # of iterations =  2.0

     total cpu time spent up to now is        7.4 secs

     total energy              =    -329.48113322 Ry
     Harris-Foulkes estimate   =    -329.48113322 Ry
     estimated scf accuracy    <          4.9E-09 Ry

     iteration #  9     ecut=    30.00 Ry     beta=0.70
     Davidson diagonalization with overlap
     ethr =  9.00E-12,  avg # of iterations =  3.0

     total cpu time spent up to now is        7.6 secs

     End of self-consistent calculation

          k = 0.0000 0.0000 0.0000 ( 22119 PWs)   bands (ev):

    -8.1060  -7.5514  -7.5184  -7.1581  -6.9042  -6.6882  -6.5554  -6.3837
    -6.2553  -6.0224  -5.8332  -5.6947  -5.6388  -5.6102  -5.4435  -5.4104
    -5.3403  -5.2391  -5.1947  -5.1753  -5.1578  -5.1164  -5.1053  -4.9546
    -4.8586  -4.6952  -4.4508  -3.7662  -2.6882  -2.1612  -0.4870  -0.1855
     0.3630   0.6381

     the Fermi energy is    -3.7358 ev

!    total energy              =    -329.48113318 Ry
     Harris-Foulkes estimate   =    -329.48113322 Ry
     estimated scf accuracy    <          1.3E-09 Ry

     The total energy is the sum of the following terms:

     one-electron contribution =    -595.41061830 Ry
     hartree contribution      =     319.21569997 Ry
     xc contribution           =     -51.36311293 Ry
     ewald contribution        =      -1.91922644 Ry
     smearing contrib. (-TS)   =      -0.00387548 Ry

     convergence has been achieved in   9 iterations

     Forces acting on atoms (Ry/au):

     atom    1 type  1   force =     0.01325107   -0.00498257   -0.00516064
     atom    2 type  1   force =     0.00697944    0.00040975    0.00084217
     atom    3 type  1   force =    -0.00030295    0.00686313    0.02307507
     atom    4 type  1   force =    -0.00004297   -0.00278474   -0.00373860
     atom    5 type  1   force =    -0.01988459    0.00049443   -0.01501800

     Total force =     0.038720     Total SCF correction =     0.000159

     number of scf cycles    =   3
     number of bfgs steps    =   2

     energy   old            =    -329.4789259782 Ry
     energy   new            =    -329.4811331827 Ry

     CASE: energy  _new < energy  _old

     new trust radius        =       0.0526988842 bohr
     new conv_thr            =       0.0000000022 Ry


ATOMIC_POSITIONS (bohr)
Au      -1.788214417   2.683352916  -0.986186891
Au      -0.614266826   3.876677052   3.805784362
Au       3.160621629   1.840047935   0.425164814
Au       4.121369407   4.119495076   5.707399326
Au       7.604795207   1.389882021   3.254194388



     Writing output data file pwscf.save
     Check: negative starting charge=   -0.006292
     NEW-OLD atomic charge density approx. for the potential
     Check: negative starting charge=   -0.006323

     negative rho (up, down):  5.525E-04 0.000E+00

     total cpu time spent up to now is        7.8 secs

     per-process dynamical memory:    50.7 Mb

     Self-consistent Calculation

     iteration #  1     ecut=    30.00 Ry     beta=0.70
     Davidson diagonalization with overlap
     ethr =  1.00E-06,  avg # of iterations =  5.0

     negative rho (up, down):  2.401E-05 0.000E+00

     total cpu time spent up to now is        8.2 secs

     total energy              =    -329.48384848 Ry
     Harris-Foulkes estimate   =    -329.48359601 Ry
     estimated scf accuracy    <       0.00036278 Ry

     iteration #  2     ecut=    30.00 Ry     beta=0.70
     Davidson diagonalization with overlap
     ethr =  6.60E-07,  avg # of iterations =  4.0

     negative rho (up, down):  7.492E-06 0.000E+00

     total cpu time spent up to now is        8.5 secs

     total energy              =    -329.48380665 Ry
     Harris-Foulkes estimate   =    -329.48413524 Ry
     estimated scf accuracy    <       0.00081217 Ry

     iteration #  3     ecut=    30.00 Ry     beta=0.70
     Davidson diagonalization with overlap
     ethr =  6.60E-07,  avg # of iterations =  2.0

     negative rho (up, down):  1.033E-07 0.000E+00

     total cpu time spent up to now is        8.7 secs

     total energy              =    -329.48397484 Ry
     Harris-Foulkes estimate   =    -329.48400857 Ry
     estimated scf accuracy    <       0.00011306 Ry

     iteration #  4     ecut=    30.00 Ry     beta=0.70
     Davidson diagonalization with overlap
     ethr =  2.06E-07,  avg # of iterations =  2.0

     total cpu time spent up to now is        8.9 secs

     total energy              =    -329.48399785 Ry
     Harris-Foulkes estimate   =    -329.48400354 Ry
     estimated scf accuracy    <       0.00002177 Ry

     iteration #  5     ecut=    30.00 Ry     beta=0.70
     Davidson diagonalization with overlap
     ethr =  3.96E-08,  avg # of iterations =  2.0

     total cpu time spent up to now is        9.1 secs

     total energy              =    -329.48400209 Ry
     Harris-Foulkes estimate   =    -329.48400441 Ry
     estimated scf accuracy    <       0.00000616 Ry

     iteration #  6     ecut=    30.00 Ry     beta=0.70
     Davidson diagonalization with overlap
     ethr =  1.12E-08,  avg # of iterations =  2.0

     total cpu time spent up to now is        9.3 secs

     total energy              =    -329.48400332 Ry
     Harris-Foulkes estimate   =    -329.48400343 Ry
     estimated scf accuracy    <       0.00000048 Ry

     iteration #  7     ecut=    30.00 Ry     beta=0.70
     Davidson diagonalization with overlap
     ethr =  8.75E-10,  avg # of iterations =  2.0

     total cpu time spent up to now is        9.5 secs

     total energy              =    -329.48400333 Ry
     Harris-Foulkes estimate   =    -329.48400347 Ry
     estimated scf accuracy    <       0.00000008 Ry

     iteration #  8     ecut=    30.00 Ry     beta=0.70
     Davidson diagonalization with overlap
     ethr =  1.36E-10,  avg # of iterations =  2.0

     total cpu time spent up to now is        9.8 secs

     total energy              =    -329.48400334 Ry
     Harris-Foulkes estimate   =    -329.48400335 Ry
     estimated scf accuracy    <          9.0E-09 Ry

     iteration #  9     ecut=    30.00 Ry     beta=0.70
     Davidson diagonalization with overlap
     ethr =  1.63E-11,  avg # of iterations =  3.0

     total cpu time spent up to now is       10.0 secs

     total energy              =    -329.48400334 Ry
     Harris-Foulkes estimate   =    -329.48400334 Ry
     estimated scf accuracy    <          3.2E-09 Ry

     iteration # 10     ecut=    30.00 Ry     beta=0.70
     Davidson diagonalization with overlap
     ethr =  5.76E-12,  avg # of iterations =  2.0

     total cpu time spent up to now is       10.2 secs

     End of self-consistent calculation

          k = 0.0000 0.0000 0.0000 ( 22119 PWs)   bands (ev):

    -8.1718  -7.6132  -7.5620  -7.2104  -6.9459  -6.7052  -6.5913  -6.4212
    -6.2857  -6.0329  -5.8665  -5.7023  -5.6562  -5.6293  -5.4432  -5.4092
    -5.3442  -5.2411  -5.1952  -5.1756  -5.1627  -5.1184  -5.0932  -4.9465
    -4.8568  -4.6787  -4.4478  -3.7592  -2.6475  -2.1499  -0.4974  -0.1840
     0.3730   0.6536

     the Fermi energy is    -3.7285 ev

!    total energy              =    -329.48400334 Ry
     Harris-Foulkes estimate   =    -329.48400334 Ry
     estimated scf accuracy    <          1.7E-10 Ry

     The total energy is the sum of the following terms:

     one-electron contribution =    -599.09391927 Ry
     hartree contribution      =     321.03311909 Ry
     xc contribution           =     -51.37435934 Ry
     ewald contribution        =      -0.04491384 Ry
     smearing contrib. (-TS)   =      -0.00392998 Ry

     convergence has been achieved in  10 iterations

     Forces acting on atoms (Ry/au):

     atom    1 type  1   force =     0.01308696   -0.00462047   -0.00491077
     atom    2 type  1   force =     0.00326391    0.00084936    0.00003277
     atom    3 type  1   force =    -0.00139312    0.00586024    0.01938771
     atom    4 type  1   force =    -0.00027454   -0.00023853   -0.00028413
     atom    5 type  1   force =    -0.01468321   -0.00185060   -0.01422559

     Total force =     0.032586     Total SCF correction =     0.000053

     number of scf cycles    =   4
     number of bfgs steps    =   3

     energy   old            =    -329.4811331827 Ry
     energy   new            =    -329.4840033386 Ry

     CASE: energy  _new < energy  _old

     new trust radius        =       0.0790483262 bohr
     new conv_thr            =       0.0000000019 Ry


ATOMIC_POSITIONS (bohr)
Au      -1.744334267   2.667263089  -1.003298381
Au      -0.594066771   3.878536041   3.808043737
Au       3.158446139   1.861713778   0.498480536
Au       4.121559146   4.112207161   5.697852946
Au       7.542700753   1.389734931   3.205277162



     Writing output data file pwscf.save
     Check: negative starting charge=   -0.006323
     NEW-OLD atomic charge density approx. for the potential
     Check: negative starting charge=   -0.006335

     negative rho (up, down):  1.172E-03 0.000E+00

     total cpu time spent up to now is       10.4 secs

     per-process dynamical memory:    50.7 Mb

     Self-consistent Calculation

     iteration #  1     ecut=    30.00 Ry     beta=0.70
     Davidson diagonalization with overlap
     ethr =  1.00E-06,  avg # of iterations =  8.0

     negative rho (up, down):  8.406E-05 0.000E+00

     total cpu time spent up to now is       10.8 secs

     total energy              =    -329.48691565 Ry
     Harris-Foulkes estimate   =    -329.48607152 Ry
     estimated scf accuracy    <       0.00078767 Ry

     iteration #  2     ecut=    30.00 Ry     beta=0.70
     Davidson diagonalization with overlap
     ethr =  1.43E-06,  avg # of iterations =  5.0

     negative rho (up, down):  3.090E-05 0.000E+00

     total cpu time spent up to now is       11.1 secs

     total energy              =    -329.48685927 Ry
     Harris-Foulkes estimate   =    -329.48746294 Ry
     estimated scf accuracy    <       0.00143986 Ry

     iteration #  3     ecut=    30.00 Ry     beta=0.70
     Davidson diagonalization with overlap
     ethr =  1.43E-06,  avg # of iterations =  2.0

     negative rho (up, down):  1.190E-06 0.000E+00

     total cpu time spent up to now is       11.3 secs

     total energy              =    -329.48717314 Ry
     Harris-Foulkes estimate   =    -329.48725581 Ry
     estimated scf accuracy    <       0.00027583 Ry

     iteration #  4     ecut=    30.00 Ry     beta=0.70
     Davidson diagonalization with overlap
     ethr =  5.02E-07,  avg # of iterations =  2.0

     total cpu time spent up to now is       11.5 secs

     total energy              =    -329.48722683 Ry
     Harris-Foulkes estimate   =    -329.48723927 Ry
     estimated scf accuracy    <       0.00004278 Ry

     iteration #  5     ecut=    30.00 Ry     beta=0.70
     Davidson diagonalization with overlap
     ethr =  7.78E-08,  avg # of iterations =  2.0

     total cpu time spent up to now is       11.7 secs

     total energy              =    -329.48723491 Ry
     Harris-Foulkes estimate   =    -329.48724058 Ry
     estimated scf accuracy    <       0.00001449 Ry

     iteration #  6     ecut=    30.00 Ry     beta=0.70
     Davidson diagonalization with overlap
     ethr =  2.64E-08,  avg # of iterations =  2.0

     total cpu time spent up to now is       11.9 secs

     total energy              =    -329.48723763 Ry
     Harris-Foulkes estimate   =    -329.48723792 Ry
     estimated scf accuracy    <       0.00000097 Ry

     iteration #  7     ecut=    30.00 Ry     beta=0.70
     Davidson diagonalization with overlap
     ethr =  1.76E-09,  avg # of iterations =  2.0

     total cpu time spent up to now is       12.2 secs

     total energy              =    -329.48723771 Ry
     Harris-Foulkes estimate   =    -329.48723793 Ry
     estimated scf accuracy    <       0.00000016 Ry

     iteration #  8     ecut=    30.00 Ry     beta=0.70
     Davidson diagonalization with overlap
     ethr =  2.96E-10,  avg # of iterations =  2.0

     total cpu time spent up to now is       12.4 secs

     total energy              =    -329.48723777 Ry
     Harris-Foulkes estimate   =    -329.48723776 Ry
     estimated scf accuracy    <       0.00000002 Ry

     iteration #  9     ecut=    30.00 Ry     beta=0.70
     Davidson diagonalization with overlap
     ethr =  4.09E-11,  avg # of iterations =  3.0

     total cpu time spent up to now is       12.6 secs

     total energy              =    -329.48723780 Ry
     Harris-Foulkes estimate   =    -329.48723778 Ry
     estimated scf accuracy    <          7.7E-09 Ry

     iteration # 10     ecut=    30.00 Ry     beta=0.70
     Davidson diagonalization with overlap
     ethr =  1.39E-11,  avg # of iterations =  3.0

     total cpu time spent up to now is       12.8 secs

     End of self-consistent calculation

          k = 0.0000 0.0000 0.0000 ( 22119 PWs)   bands (ev):

    -8.2847  -7.7044  -7.6287  -7.2828  -7.0038  -6.7240  -6.6620  -6.4712
    -6.3250  -6.0468  -5.9207  -5.7122  -5.6805  -5.6564  -5.4405  -5.4061
    -5.3483  -5.2425  -5.1983  -5.1830  -5.1623  -5.1212  -5.0682  -4.9360
    -4.8553  -4.6554  -4.4455  -3.7499  -2.5847  -2.1364  -0.5124  -0.1818
     0.3903   0.6767

     the Fermi energy is    -3.7186 ev

!    total energy              =    -329.48723777 Ry
     Harris-Foulkes estimate   =    -329.48723781 Ry
     estimated scf accuracy    <          5.4E-10 Ry

     The total energy is the sum of the following terms:

     one-electron contribution =    -604.45334108 Ry
     hartree contribution      =     323.67754699 Ry
     xc contribution           =     -51.39202310 Ry
     ewald contribution        =       2.68460548 Ry
     smearing contrib. (-TS)   =      -0.00402605 Ry

     convergence has been achieved in  10 iterations

     Forces acting on atoms (Ry/au):

     atom    1 type  1   force =     0.01180112   -0.00406724   -0.00446456
     atom    2 type  1   force =    -0.00232471    0.00164528   -0.00043417
     atom    3 type  1   force =    -0.00472753    0.00430121    0.01211301
     atom    4 type  1   force =    -0.00039558    0.00317792    0.00530396
     atom    5 type  1   force =    -0.00435329   -0.00505717   -0.01251823

     Total force =     0.024723     Total SCF correction =     0.000099

     number of scf cycles    =   5
     number of bfgs steps    =   4

     energy   old            =    -329.4840033386 Ry
     energy   new            =    -329.4872377651 Ry

     CASE: energy  _new < energy  _old

     new trust radius        =       0.1185724894 bohr
     new conv_thr            =       0.0000000013 Ry


ATOMIC_POSITIONS (bohr)
Au      -1.670164774   2.640302175  -1.032340557
Au      -0.571542236   3.883649441   3.810881791
Au       3.146997824   1.896124377   0.610487586
Au       4.121644822   4.107349366   5.694017193
Au       7.457369364   1.382029641   3.123309987



     Writing output data file pwscf.save
     Check: negative starting charge=   -0.006335
     NEW-OLD atomic charge density approx. for the potential
     Check: negative starting charge=   -0.006337

     negative rho (up, down):  2.345E-03 0.000E+00

     total cpu time spent up to now is       13.0 secs

     per-process dynamical memory:    50.7 Mb

     Self-consistent Calculation

     iteration #  1     ecut=    30.00 Ry     beta=0.70
     Davidson diagonalization with overlap
     ethr =  1.00E-06,  avg # of iterations = 10.0

     negative rho (up, down):  2.341E-04 0.000E+00

     total cpu time spent up to now is       13.6 secs

     total energy              =    -329.48833594 Ry
     Harris-Foulkes estimate   =    -329.48798626 Ry
     estimated scf accuracy    <       0.00173286 Ry

     iteration #  2     ecut=    30.00 Ry     beta=0.70
     Davidson diagonalization with overlap
     ethr =  3.15E-06,  avg # of iterations =  5.0

     negative rho (up, down):  8.782E-05 0.000E+00

     total cpu time spent up to now is       13.8 secs

     total energy              =    -329.48840718 Ry
     Harris-Foulkes estimate   =    -329.48933818 Ry
     estimated scf accuracy    <       0.00212387 Ry

     iteration #  3     ecut=    30.00 Ry     beta=0.70
     Davidson diagonalization with overlap
     ethr =  3.15E-06,  avg # of iterations =  3.0

     negative rho (up, down):  7.112E-06 0.000E+00

     total cpu time spent up to now is       14.1 secs

     total energy              =    -329.48889241 Ry
     Harris-Foulkes estimate   =    -329.48910940 Ry
     estimated scf accuracy    <       0.00067485 Ry

     iteration #  4     ecut=    30.00 Ry     beta=0.70
     Davidson diagonalization with overlap
     ethr =  1.23E-06,  avg # of iterations =  2.0

     total cpu time spent up to now is       14.2 secs

     total energy              =    -329.48902596 Ry
     Harris-Foulkes estimate   =    -329.48904817 Ry
     estimated scf accuracy    <       0.00007864 Ry

     iteration #  5     ecut=    30.00 Ry     beta=0.70
     Davidson diagonalization with overlap
     ethr =  1.43E-07,  avg # of iterations =  2.0

     total cpu time spent up to now is       14.5 secs

     total energy              =    -329.48903968 Ry
     Harris-Foulkes estimate   =    -329.48905235 Ry
     estimated scf accuracy    <       0.00003212 Ry

     iteration #  6     ecut=    30.00 Ry     beta=0.70
     Davidson diagonalization with overlap
     ethr =  5.84E-08,  avg # of iterations =  2.0

     total cpu time spent up to now is       14.7 secs

     total energy              =    -329.48904495 Ry
     Harris-Foulkes estimate   =    -329.48904617 Ry
     estimated scf accuracy    <       0.00000209 Ry

     iteration #  7     ecut=    30.00 Ry     beta=0.70
     Davidson diagonalization with overlap
     ethr =  3.79E-09,  avg # of iterations =  2.0

     total cpu time spent up to now is       14.9 secs

     total energy              =    -329.48904525 Ry
     Harris-Foulkes estimate   =    -329.48904556 Ry
     estimated scf accuracy    <       0.00000031 Ry

     iteration #  8     ecut=    30.00 Ry     beta=0.70
     Davidson diagonalization with overlap
     ethr =  5.72E-10,  avg # of iterations =  2.0

     total cpu time spent up to now is       15.1 secs

     total energy              =    -329.48904524 Ry
     Harris-Foulkes estimate   =    -329.48904533 Ry
     estimated scf accuracy    <       0.00000004 Ry

     iteration #  9     ecut=    30.00 Ry     beta=0.70
     Davidson diagonalization with overlap
     ethr =  6.70E-11,  avg # of iterations =  3.0

     total cpu time spent up to now is       15.4 secs

     total energy              =    -329.48904517 Ry
     Harris-Foulkes estimate   =    -329.48904525 Ry
     estimated scf accuracy    <       0.00000001 Ry

     iteration # 10     ecut=    30.00 Ry     beta=0.70
     Davidson diagonalization with overlap
     ethr =  1.98E-11,  avg # of iterations =  3.0

     total cpu time spent up to now is       15.6 secs

     total energy              =    -329.48904512 Ry
     Harris-Foulkes estimate   =    -329.48904517 Ry
     estimated scf accuracy    <          2.2E-09 Ry

     iteration # 11     ecut=    30.00 Ry     beta=0.70
     Davidson diagonalization with overlap
     ethr =  4.02E-12,  avg # of iterations =  2.0

     total cpu time spent up to now is       15.8 secs

     End of self-consistent calculation

          k = 0.0000 0.0000 0.0000 ( 22119 PWs)   bands (ev):

    -8.4783  -7.8391  -7.7328  -7.3669  -7.0715  -6.7969  -6.7323  -6.5423
    -6.3654  -6.0606  -6.0052  -5.7398  -5.7142  -5.6859  -5.4342  -5.4088
    -5.3451  -5.2413  -5.2115  -5.1919  -5.1572  -5.1195  -5.0223  -4.9242
    -4.8539  -4.6241  -4.4476  -3.7396  -2.4877  -2.1248  -0.5332  -0.1793
     0.4212   0.7114

     the Fermi energy is    -3.7075 ev

!    total energy              =    -329.48904508 Ry
     Harris-Foulkes estimate   =    -329.48904512 Ry
     estimated scf accuracy    <          1.6E-10 Ry

     The total energy is the sum of the following terms:

     one-electron contribution =    -611.96289896 Ry
     hartree contribution      =     327.38309319 Ry
     xc contribution           =     -51.41919054 Ry
     ewald contribution        =       6.51413353 Ry
     smearing contrib. (-TS)   =      -0.00418230 Ry

     convergence has been achieved in  11 iterations

     Forces acting on atoms (Ry/au):

     atom    1 type  1   force =     0.00637078   -0.00333915   -0.00383045
     atom    2 type  1   force =    -0.01010371    0.00364137    0.00039081
     atom    3 type  1   force =    -0.01179783    0.00109374   -0.00441838
     atom    4 type  1   force =     0.00081891    0.00717725    0.01324703
     atom    5 type  1   force =     0.01471185   -0.00857321   -0.00538901

     Total force =     0.029807     Total SCF correction =     0.000045

     number of scf cycles    =   6
     number of bfgs steps    =   5

     energy   old            =    -329.4872377651 Ry
     energy   new            =    -329.4890450847 Ry

     CASE: energy  _new < energy  _old

     new trust radius        =       0.0165607568 bohr
     new conv_thr            =       0.0000000015 Ry


ATOMIC_POSITIONS (bohr)
Au      -1.668584049   2.638796204  -1.034211100
Au      -0.580170763   3.886391430   3.811366529
Au       3.137761366   1.895483137   0.601881837
Au       4.122554976   4.112893632   5.704464445
Au       7.472743470   1.375890596   3.122854289



     Writing output data file pwscf.save
     Check: negative starting charge=   -0.006337
     NEW-OLD atomic charge density approx. for the potential
     Check: negative starting charge=   -0.006336

     negative rho (up, down):  3.351E-05 0.000E+00

     total cpu time spent up to now is       16.0 secs

     per-process dynamical memory:    50.7 Mb

     Self-consistent Calculation

     iteration #  1     ecut=    30.00 Ry     beta=0.70
     Davidson diagonalization with overlap
     ethr =  1.00E-06,  avg # of iterations =  4.0

     Threshold (ethr) on eigenvalues was too large:
     Diagonalizing with lowered threshold

     Davidson diagonalization with overlap
     ethr =  8.94E-08,  avg # of iterations =  1.0

     negative rho (up, down):  8.955E-08 0.000E+00

     total cpu time spent up to now is       16.5 secs

     total energy              =    -329.48963543 Ry
     Harris-Foulkes estimate   =    -329.48964339 Ry
     estimated scf accuracy    <       0.00004975 Ry

     iteration #  2     ecut=    30.00 Ry     beta=0.70
     Davidson diagonalization with overlap
     ethr =  9.04E-08,  avg # of iterations =  3.0

     negative rho (up, down):  1.669E-08 0.000E+00

     total cpu time spent up to now is       16.7 secs

     total energy              =    -329.48962292 Ry
     Harris-Foulkes estimate   =    -329.48969833 Ry
     estimated scf accuracy    <       0.00021701 Ry

     iteration #  3     ecut=    30.00 Ry     beta=0.70
     Davidson diagonalization with overlap
     ethr =  9.04E-08,  avg # of iterations =  2.0

     total cpu time spent up to now is       16.9 secs

     total energy              =    -329.48966049 Ry
     Harris-Foulkes estimate   =    -329.48966125 Ry
     estimated scf accuracy    <       0.00000478 Ry

     iteration #  4     ecut=    30.00 Ry     beta=0.70
     Davidson diagonalization with overlap
     ethr =  8.70E-09,  avg # of iterations =  3.0

     total cpu time spent up to now is       17.2 secs

     total energy              =    -329.48966168 Ry
     Harris-Foulkes estimate   =    -329.48966252 Ry
     estimated scf accuracy    <       0.00000323 Ry

     iteration #  5     ecut=    30.00 Ry     beta=0.70
     Davidson diagonalization with overlap
     ethr =  5.87E-09,  avg # of iterations =  2.0

     total cpu time spent up to now is       17.4 secs

     total energy              =    -329.48966240 Ry
     Harris-Foulkes estimate   =    -329.48966245 Ry
     estimated scf accuracy    <       0.00000046 Ry

     iteration #  6     ecut=    30.00 Ry     beta=0.70
     Davidson diagonalization with overlap
     ethr =  8.28E-10,  avg # of iterations =  2.0

     total cpu time spent up to now is       17.6 secs

     total energy              =    -329.48966257 Ry
     Harris-Foulkes estimate   =    -329.48966251 Ry
     estimated scf accuracy    <       0.00000003 Ry

     iteration #  7     ecut=    30.00 Ry     beta=0.70
     Davidson diagonalization with overlap
     ethr =  6.21E-11,  avg # of iterations =  3.0

     total cpu time spent up to now is       17.8 secs

     total energy              =    -329.48966254 Ry
     Harris-Foulkes estimate   =    -329.48966258 Ry
     estimated scf accuracy    <          5.1E-09 Ry

     iteration #  8     ecut=    30.00 Ry     beta=0.70
     Davidson diagonalization with overlap
     ethr =  9.30E-12,  avg # of iterations =  3.0

     total cpu time spent up to now is       18.0 secs

     End of self-consistent calculation

          k = 0.0000 0.0000 0.0000 ( 22119 PWs)   bands (ev):

    -8.4553  -7.8121  -7.7096  -7.3405  -7.0543  -6.7781  -6.7163  -6.5266
    -6.3499  -6.0495  -5.9996  -5.7381  -5.7119  -5.6858  -5.4322  -5.4064
    -5.3436  -5.2380  -5.2102  -5.1918  -5.1600  -5.1218  -5.0239  -4.9289
    -4.8593  -4.6270  -4.4530  -3.7438  -2.4918  -2.1380  -0.5290  -0.1806
     0.4198   0.7072

     the Fermi energy is    -3.7116 ev

!    total energy              =    -329.48966258 Ry
     Harris-Foulkes estimate   =    -329.48966255 Ry
     estimated scf accuracy    <          1.3E-09 Ry

     The total energy is the sum of the following terms:

     one-electron contribution =    -610.55649191 Ry
     hartree contribution      =     326.68943225 Ry
     xc contribution           =     -51.41342028 Ry
     ewald contribution        =       5.79501819 Ry
     smearing contrib. (-TS)   =      -0.00420083 Ry

     convergence has been achieved in   8 iterations

     Forces acting on atoms (Ry/au):

     atom    1 type  1   force =     0.00539181   -0.00316858   -0.00425038
     atom    2 type  1   force =    -0.00808532    0.00349648    0.00053484
     atom    3 type  1   force =    -0.00784748    0.00105987   -0.00121820
     atom    4 type  1   force =     0.00122378    0.00505939    0.01033497
     atom    5 type  1   force =     0.00931722   -0.00644716   -0.00540123

     Total force =     0.022152     Total SCF correction =     0.000146

     number of scf cycles    =   7
     number of bfgs steps    =   6

     energy   old            =    -329.4890450847 Ry
     energy   new            =    -329.4896625841 Ry

     CASE: energy  _new < energy  _old

     new trust radius        =       0.0182168325 bohr
     new conv_thr            =       0.0000000006 Ry


ATOMIC_POSITIONS (bohr)
Au      -1.655364129   2.632077732  -1.042569522
Au      -0.589488509   3.891887388   3.812865706
Au       3.124253550   1.899716052   0.607912712
Au       4.124661440   4.119423186   5.718879740
Au       7.480242648   1.366350642   3.109267362



     Writing output data file pwscf.save
     Check: negative starting charge=   -0.006336
     NEW-OLD atomic charge density approx. for the potential
     Check: negative starting charge=   -0.006337

     negative rho (up, down):  9.017E-05 0.000E+00

     total cpu time spent up to now is       18.2 secs

     per-process dynamical memory:    50.7 Mb

     Self-consistent Calculation

     iteration #  1     ecut=    30.00 Ry     beta=0.70
     Davidson diagonalization with overlap
     ethr =  1.00E-06,  avg # of iterations =  4.0

     negative rho (up, down):  7.144E-07 0.000E+00

     total cpu time spent up to now is       18.6 secs

     total energy              =    -329.49024585 Ry
     Harris-Foulkes estimate   =    -329.49024501 Ry
     estimated scf accuracy    <       0.00007740 Ry

     iteration #  2     ecut=    30.00 Ry     beta=0.70
     Davidson diagonalization with overlap
     ethr =  1.41E-07,  avg # of iterations =  3.0

     negative rho (up, down):  1.026E-07 0.000E+00

     total cpu time spent up to now is       18.8 secs

     total energy              =    -329.49023723 Ry
     Harris-Foulkes estimate   =    -329.49030953 Ry
     estimated scf accuracy    <       0.00017961 Ry

     iteration #  3     ecut=    30.00 Ry     beta=0.70
     Davidson diagonalization with overlap
     ethr =  1.41E-07,  avg # of iterations =  2.0

     total cpu time spent up to now is       19.0 secs

     total energy              =    -329.49027408 Ry
     Harris-Foulkes estimate   =    -329.49028219 Ry
     estimated scf accuracy    <       0.00002548 Ry

     iteration #  4     ecut=    30.00 Ry     beta=0.70
     Davidson diagonalization with overlap
     ethr =  4.63E-08,  avg # of iterations =  2.0

     total cpu time spent up to now is       19.2 secs

     total energy              =    -329.49027904 Ry
     Harris-Foulkes estimate   =    -329.49027928 Ry
     estimated scf accuracy    <       0.00000187 Ry

     iteration #  5     ecut=    30.00 Ry     beta=0.70
     Davidson diagonalization with overlap
     ethr =  3.39E-09,  avg # of iterations =  3.0

     total cpu time spent up to now is       19.5 secs

     total energy              =    -329.49027928 Ry
     Harris-Foulkes estimate   =    -329.49027989 Ry
     estimated scf accuracy    <       0.00000120 Ry

     iteration #  6     ecut=    30.00 Ry     beta=0.70
     Davidson diagonalization with overlap
     ethr =  2.17E-09,  avg # of iterations =  2.0

     total cpu time spent up to now is       19.7 secs

     total energy              =    -329.49027952 Ry
     Harris-Foulkes estimate   =    -329.49027952 Ry
     estimated scf accuracy    <       0.00000008 Ry

     iteration #  7     ecut=    30.00 Ry     beta=0.70
     Davidson diagonalization with overlap
     ethr =  1.41E-10,  avg # of iterations =  2.0

     total cpu time spent up to now is       19.9 secs

     total energy              =    -329.49027942 Ry
     Harris-Foulkes estimate   =    -329.49027955 Ry
     estimated scf accuracy    <       0.00000001 Ry

     iteration #  8     ecut=    30.00 Ry     beta=0.70
     Davidson diagonalization with overlap
     ethr =  2.04E-11,  avg # of iterations =  2.0

     total cpu time spent up to now is       20.1 secs

     total energy              =    -329.49027948 Ry
     Harris-Foulkes estimate   =    -329.49027942 Ry
     estimated scf accuracy    <          2.0E-09 Ry

     iteration #  9     ecut=    30.00 Ry     beta=0.70
     Davidson diagonalization with overlap
     ethr =  3.61E-12,  avg # of iterations =  3.0

     total cpu time spent up to now is       20.4 secs

     total energy              =    -329.49027948 Ry
     Harris-Foulkes estimate   =    -329.49027948 Ry
     estimated scf accuracy    <          1.0E-09 Ry

     iteration # 10     ecut=    30.00 Ry     beta=0.70
     Davidson diagonalization with overlap
     ethr =  1.87E-12,  avg # of iterations =  3.0

     total cpu time spent up to now is       20.6 secs

     End of self-consistent calculation

          k = 0.0000 0.0000 0.0000 ( 22119 PWs)   bands (ev):

    -8.4561  -7.7965  -7.6944  -7.3150  -7.0384  -6.7764  -6.6950  -6.5155
    -6.3332  -6.0367  -6.0046  -5.7421  -5.7127  -5.6875  -5.4280  -5.4044
    -5.3403  -5.2334  -5.2122  -5.1916  -5.1629  -5.1235  -5.0184  -4.9337
    -4.8661  -4.6270  -4.4611  -3.7483  -2.4828  -2.1551  -0.5264  -0.1819
     0.4225   0.7070

     the Fermi energy is    -3.7158 ev

!    total energy              =    -329.49027948 Ry
     Harris-Foulkes estimate   =    -329.49027948 Ry
     estimated scf accuracy    <          7.1E-11 Ry

     The total energy is the sum of the following terms:

     one-electron contribution =    -609.70684470 Ry
     hartree contribution      =     326.27049246 Ry
     xc contribution           =     -51.40979211 Ry
     ewald contribution        =       5.36011774 Ry
     smearing contrib. (-TS)   =      -0.00425287 Ry

     convergence has been achieved in  10 iterations

     Forces acting on atoms (Ry/au):

     atom    1 type  1   force =     0.00319423   -0.00276558   -0.00446895
     atom    2 type  1   force =    -0.00639400    0.00361419    0.00074646
     atom    3 type  1   force =    -0.00418977    0.00062381    0.00032900
     atom    4 type  1   force =     0.00168430    0.00297282    0.00761800
     atom    5 type  1   force =     0.00570524   -0.00444524   -0.00422451

     Total force =     0.015819     Total SCF correction =     0.000039

     number of scf cycles    =   8
     number of bfgs steps    =   7

     energy   old            =    -329.4896625841 Ry
     energy   new            =    -329.4902794820 Ry

     CASE: energy  _new < energy  _old

     new trust radius        =       0.0273252488 bohr
     new conv_thr            =       0.0000000006 Ry


ATOMIC_POSITIONS (bohr)
Au      -1.635282091   2.620979841  -1.057409259
Au      -0.602156680   3.901367769   3.815635078
Au       3.107355907   1.906751811   0.622593995
Au       4.128798779   4.127116464   5.738745162
Au       7.485589085   1.353239115   3.086791023



     Writing output data file pwscf.save
     Check: negative starting charge=   -0.006337
     NEW-OLD atomic charge density approx. for the potential
     Check: negative starting charge=   -0.006338

     negative rho (up, down):  2.438E-04 0.000E+00

     total cpu time spent up to now is       20.8 secs

     per-process dynamical memory:    50.7 Mb

     Self-consistent Calculation

     iteration #  1     ecut=    30.00 Ry     beta=0.70
     Davidson diagonalization with overlap
     ethr =  1.00E-06,  avg # of iterations =  4.0

     negative rho (up, down):  5.178E-06 0.000E+00

     total cpu time spent up to now is       21.1 secs

     total energy              =    -329.49078761 Ry
     Harris-Foulkes estimate   =    -329.49074672 Ry
     estimated scf accuracy    <       0.00015578 Ry

     iteration #  2     ecut=    30.00 Ry     beta=0.70
     Davidson diagonalization with overlap
     ethr =  2.83E-07,  avg # of iterations =  3.0

     negative rho (up, down):  7.751E-07 0.000E+00

     total cpu time spent up to now is       21.4 secs

     total energy              =    -329.49078962 Ry
     Harris-Foulkes estimate   =    -329.49088398 Ry
     estimated scf accuracy    <       0.00021413 Ry

     iteration #  3     ecut=    30.00 Ry     beta=0.70
     Davidson diagonalization with overlap
     ethr =  2.83E-07,  avg # of iterations =  2.0

     negative rho (up, down):  1.141E-08 0.000E+00

     total cpu time spent up to now is       21.6 secs

     total energy              =    -329.49083679 Ry
     Harris-Foulkes estimate   =    -329.49085904 Ry
     estimated scf accuracy    <       0.00007101 Ry

     iteration #  4     ecut=    30.00 Ry     beta=0.70
     Davidson diagonalization with overlap
     ethr =  1.29E-07,  avg # of iterations =  2.0

     total cpu time spent up to now is       21.8 secs

     total energy              =    -329.49084959 Ry
     Harris-Foulkes estimate   =    -329.49085090 Ry
     estimated scf accuracy    <       0.00000389 Ry

     iteration #  5     ecut=    30.00 Ry     beta=0.70
     Davidson diagonalization with overlap
     ethr =  7.07E-09,  avg # of iterations =  3.0

     total cpu time spent up to now is       22.0 secs

     total energy              =    -329.49085042 Ry
     Harris-Foulkes estimate   =    -329.49085101 Ry
     estimated scf accuracy    <       0.00000148 Ry

     iteration #  6     ecut=    30.00 Ry     beta=0.70
     Davidson diagonalization with overlap
     ethr =  2.69E-09,  avg # of iterations =  2.0

     total cpu time spent up to now is       22.2 secs

     total energy              =    -329.49085064 Ry
     Harris-Foulkes estimate   =    -329.49085074 Ry
     estimated scf accuracy    <       0.00000016 Ry

     iteration #  7     ecut=    30.00 Ry     beta=0.70
     Davidson diagonalization with overlap
     ethr =  2.84E-10,  avg # of iterations =  2.0

     total cpu time spent up to now is       22.4 secs

     total energy              =    -329.49085066 Ry
     Harris-Foulkes estimate   =    -329.49085068 Ry
     estimated scf accuracy    <       0.00000002 Ry

     iteration #  8     ecut=    30.00 Ry     beta=0.70
     Davidson diagonalization with overlap
     ethr =  4.08E-11,  avg # of iterations =  2.0

     total cpu time spent up to now is       22.6 secs

     total energy              =    -329.49085063 Ry
     Harris-Foulkes estimate   =    -329.49085067 Ry
     estimated scf accuracy    <          3.7E-09 Ry

     iteration #  9     ecut=    30.00 Ry     beta=0.70
     Davidson diagonalization with overlap
     ethr =  6.79E-12,  avg # of iterations =  3.0

     total cpu time spent up to now is       22.9 secs

     total energy              =    -329.49085060 Ry
     Harris-Foulkes estimate   =    -329.49085064 Ry
     estimated scf accuracy    <          1.3E-09 Ry

     iteration # 10     ecut=    30.00 Ry     beta=0.70
     Davidson diagonalization with overlap
     ethr =  2.32E-12,  avg # of iterations =  3.0

     total cpu time spent up to now is       23.1 secs

     End of self-consistent calculation

          k = 0.0000 0.0000 0.0000 ( 22119 PWs)   bands (ev):

    -8.4665  -7.7815  -7.6779  -7.2825  -7.0169  -6.7821  -6.6649  -6.5034
    -6.3111  -6.0238  -6.0111  -5.7479  -5.7146  -5.6890  -5.4215  -5.4024
    -5.3358  -5.2277  -5.2162  -5.1909  -5.1659  -5.1248  -5.0087  -4.9396
    -4.8752  -4.6270  -4.4728  -3.7543  -2.4668  -2.1787  -0.5238  -0.1836
     0.4269   0.7090

     the Fermi energy is    -3.7214 ev

!    total energy              =    -329.49085059 Ry
     Harris-Foulkes estimate   =    -329.49085060 Ry
     estimated scf accuracy    <          3.2E-10 Ry

     The total energy is the sum of the following terms:

     one-electron contribution =    -608.78274091 Ry
     hartree contribution      =     325.81475231 Ry
     xc contribution           =     -51.40591982 Ry
     ewald contribution        =       4.88739454 Ry
     smearing contrib. (-TS)   =      -0.00433671 Ry

     convergence has been achieved in  10 iterations

     Forces acting on atoms (Ry/au):

     atom    1 type  1   force =     0.00029403   -0.00209527   -0.00406829
     atom    2 type  1   force =    -0.00432402    0.00369591    0.00093372
     atom    3 type  1   force =    -0.00036237    0.00017163    0.00161558
     atom    4 type  1   force =     0.00176424    0.00054919    0.00426163
     atom    5 type  1   force =     0.00262812   -0.00232145   -0.00274264

     Total force =     0.009921     Total SCF correction =     0.000083

     number of scf cycles    =   9
     number of bfgs steps    =   8

     energy   old            =    -329.4902794820 Ry
     energy   new            =    -329.4908505880 Ry

     CASE: energy  _new < energy  _old

     new trust radius        =       0.0409878732 bohr
     new conv_thr            =       0.0000000004 Ry


ATOMIC_POSITIONS (bohr)
Au      -1.607923248   2.603387455  -1.082349335
Au      -0.621002454   3.918432018   3.820706283
Au       3.086938802   1.917352164   0.649298985
Au       4.136250065   4.135606250   5.766788138
Au       7.490041835   1.334677113   3.051911929



     Writing output data file pwscf.save
     Check: negative starting charge=   -0.006338
     NEW-OLD atomic charge density approx. for the potential
     Check: negative starting charge=   -0.006336

     negative rho (up, down):  5.606E-04 0.000E+00

     total cpu time spent up to now is       23.3 secs

     per-process dynamical memory:    50.7 Mb

     Self-consistent Calculation

     iteration #  1     ecut=    30.00 Ry     beta=0.70
     Davidson diagonalization with overlap
     ethr =  1.00E-06,  avg # of iterations =  5.0

     negative rho (up, down):  2.429E-05 0.000E+00

     total cpu time spent up to now is       23.7 secs

     total energy              =    -329.49108018 Ry
     Harris-Foulkes estimate   =    -329.49082583 Ry
     estimated scf accuracy    <       0.00033879 Ry

     iteration #  2     ecut=    30.00 Ry     beta=0.70
     Davidson diagonalization with overlap
     ethr =  6.16E-07,  avg # of iterations =  4.0

     negative rho (up, down):  3.888E-06 0.000E+00

     total cpu time spent up to now is       24.0 secs

     total energy              =    -329.49111723 Ry
     Harris-Foulkes estimate   =    -329.49125474 Ry
     estimated scf accuracy    <       0.00029682 Ry

     iteration #  3     ecut=    30.00 Ry     beta=0.70
     Davidson diagonalization with overlap
     ethr =  5.40E-07,  avg # of iterations =  2.0

     negative rho (up, down):  1.787E-07 0.000E+00

     total cpu time spent up to now is       24.2 secs

     total energy              =    -329.49117800 Ry
     Harris-Foulkes estimate   =    -329.49122623 Ry
     estimated scf accuracy    <       0.00014304 Ry

     iteration #  4     ecut=    30.00 Ry     beta=0.70
     Davidson diagonalization with overlap
     ethr =  2.60E-07,  avg # of iterations =  2.0

     total cpu time spent up to now is       24.4 secs

     total energy              =    -329.49120667 Ry
     Harris-Foulkes estimate   =    -329.49120969 Ry
     estimated scf accuracy    <       0.00001236 Ry

     iteration #  5     ecut=    30.00 Ry     beta=0.70
     Davidson diagonalization with overlap
     ethr =  2.25E-08,  avg # of iterations =  2.0

     total cpu time spent up to now is       24.6 secs

     total energy              =    -329.49120870 Ry
     Harris-Foulkes estimate   =    -329.49120967 Ry
     estimated scf accuracy    <       0.00000167 Ry

     iteration #  6     ecut=    30.00 Ry     beta=0.70
     Davidson diagonalization with overlap
     ethr =  3.04E-09,  avg # of iterations =  2.0

     total cpu time spent up to now is       24.8 secs

     total energy              =    -329.49120905 Ry
     Harris-Foulkes estimate   =    -329.49120910 Ry
     estimated scf accuracy    <       0.00000018 Ry

     iteration #  7     ecut=    30.00 Ry     beta=0.70
     Davidson diagonalization with overlap
     ethr =  3.32E-10,  avg # of iterations =  2.0

     total cpu time spent up to now is       25.0 secs

     total energy              =    -329.49120913 Ry
     Harris-Foulkes estimate   =    -329.49120911 Ry
     estimated scf accuracy    <       0.00000006 Ry

     iteration #  8     ecut=    30.00 Ry     beta=0.70
     Davidson diagonalization with overlap
     ethr =  1.08E-10,  avg # of iterations =  2.0

     total cpu time spent up to now is       25.3 secs

     total energy              =    -329.49120905 Ry
     Harris-Foulkes estimate   =    -329.49120914 Ry
     estimated scf accuracy    <          5.6E-09 Ry

     iteration #  9     ecut=    30.00 Ry     beta=0.70
     Davidson diagonalization with overlap
     ethr =  1.02E-11,  avg # of iterations =  2.0

     total cpu time spent up to now is       25.5 secs

     total energy              =    -329.49120905 Ry
     Harris-Foulkes estimate   =    -329.49120905 Ry
     estimated scf accuracy    <          9.3E-10 Ry

     iteration # 10     ecut=    30.00 Ry     beta=0.70
     Davidson diagonalization with overlap
     ethr =  1.69E-12,  avg # of iterations =  2.0

     total cpu time spent up to now is       25.7 secs

     End of self-consistent calculation

          k = 0.0000 0.0000 0.0000 ( 22119 PWs)   bands (ev):

    -8.4846  -7.7642  -7.6565  -7.2358  -6.9833  -6.7928  -6.6203  -6.4885
    -6.2797  -6.0376  -5.9904  -5.7540  -5.7176  -5.6894  -5.4111  -5.4014
    -5.3296  -5.2244  -5.2194  -5.1894  -5.1680  -5.1253  -4.9942  -4.9478
    -4.8861  -4.6286  -4.4899  -3.7632  -2.4431  -2.2128  -0.5205  -0.1857
     0.4326   0.7138

     the Fermi energy is    -3.7297 ev

!    total energy              =    -329.49120903 Ry
     Harris-Foulkes estimate   =    -329.49120905 Ry
     estimated scf accuracy    <          2.9E-10 Ry

     The total energy is the sum of the following terms:

     one-electron contribution =    -607.48673196 Ry
     hartree contribution      =     325.17544351 Ry
     xc contribution           =     -51.40081253 Ry
     ewald contribution        =       4.22534933 Ry
     smearing contrib. (-TS)   =      -0.00445738 Ry

     convergence has been achieved in  10 iterations

     Forces acting on atoms (Ry/au):

     atom    1 type  1   force =    -0.00284437   -0.00104142   -0.00230032
     atom    2 type  1   force =    -0.00148849    0.00341221    0.00092117
     atom    3 type  1   force =     0.00327115   -0.00005633    0.00262195
     atom    4 type  1   force =     0.00097164   -0.00259541   -0.00067544
     atom    5 type  1   force =     0.00009007    0.00028095   -0.00056737

     Total force =     0.007436     Total SCF correction =     0.000075

     number of scf cycles    =  10
     number of bfgs steps    =   9

     energy   old            =    -329.4908505880 Ry
     energy   new            =    -329.4912090255 Ry

     CASE: energy  _new < energy  _old

     new trust radius        =       0.0081749872 bohr
     new conv_thr            =       0.0000000003 Ry


ATOMIC_POSITIONS (bohr)
Au      -1.605527742   2.599232751  -1.088788478
Au      -0.625378775   3.924671071   3.822444243
Au       3.086451619   1.919428183   0.657190956
Au       4.138261271   4.134392782   5.770635856
Au       7.490498626   1.331730213   3.044873423



     Writing output data file pwscf.save
     Check: negative starting charge=   -0.006336
     NEW-OLD atomic charge density approx. for the potential
     Check: negative starting charge=   -0.006334

     negative rho (up, down):  7.336E-06 0.000E+00

     total cpu time spent up to now is       25.9 secs

     per-process dynamical memory:    50.7 Mb

     Self-consistent Calculation

     iteration #  1     ecut=    30.00 Ry     beta=0.70
     Davidson diagonalization with overlap
     ethr =  1.00E-06,  avg # of iterations =  4.0

     Threshold (ethr) on eigenvalues was too large:
     Diagonalizing with lowered threshold

     Davidson diagonalization with overlap
     ethr =  2.88E-08,  avg # of iterations =  1.0

     total cpu time spent up to now is       26.4 secs

     total energy              =    -329.49125964 Ry
     Harris-Foulkes estimate   =    -329.49126105 Ry
     estimated scf accuracy    <       0.00001663 Ry

     iteration #  2     ecut=    30.00 Ry     beta=0.70
     Davidson diagonalization with overlap
     ethr =  3.02E-08,  avg # of iterations =  3.0

     total cpu time spent up to now is       26.6 secs

     total energy              =    -329.49126209 Ry
     Harris-Foulkes estimate   =    -329.49126753 Ry
     estimated scf accuracy    <       0.00001065 Ry

     iteration #  3     ecut=    30.00 Ry     beta=0.70
     Davidson diagonalization with overlap
     ethr =  1.94E-08,  avg # of iterations =  2.0

     total cpu time spent up to now is       26.8 secs

     total energy              =    -329.49126471 Ry
     Harris-Foulkes estimate   =    -329.49126549 Ry
     estimated scf accuracy    <       0.00000317 Ry

     iteration #  4     ecut=    30.00 Ry     beta=0.70
     Davidson diagonalization with overlap
     ethr =  5.77E-09,  avg # of iterations =  2.0

     total cpu time spent up to now is       27.0 secs

     total energy              =    -329.49126521 Ry
     Harris-Foulkes estimate   =    -329.49126578 Ry
     estimated scf accuracy    <       0.00000099 Ry

     iteration #  5     ecut=    30.00 Ry     beta=0.70
     Davidson diagonalization with overlap
     ethr =  1.79E-09,  avg # of iterations =  2.0

     total cpu time spent up to now is       27.2 secs

     total energy              =    -329.49126533 Ry
     Harris-Foulkes estimate   =    -329.49126539 Ry
     estimated scf accuracy    <       0.00000006 Ry

     iteration #  6     ecut=    30.00 Ry     beta=0.70
     Davidson diagonalization with overlap
     ethr =  1.08E-10,  avg # of iterations =  3.0

     total cpu time spent up to now is       27.4 secs

     total energy              =    -329.49126544 Ry
     Harris-Foulkes estimate   =    -329.49126535 Ry
     estimated scf accuracy    <       0.00000001 Ry

     iteration #  7     ecut=    30.00 Ry     beta=0.70
     Davidson diagonalization with overlap
     ethr =  2.47E-11,  avg # of iterations =  2.0

     total cpu time spent up to now is       27.6 secs

     total energy              =    -329.49126549 Ry
     Harris-Foulkes estimate   =    -329.49126544 Ry
     estimated scf accuracy    <          2.4E-09 Ry

     iteration #  8     ecut=    30.00 Ry     beta=0.70
     Davidson diagonalization with overlap
     ethr =  4.45E-12,  avg # of iterations =  2.0

     total cpu time spent up to now is       27.8 secs

     End of self-consistent calculation

          k = 0.0000 0.0000 0.0000 ( 22119 PWs)   bands (ev):

    -8.4858  -7.7612  -7.6526  -7.2274  -6.9754  -6.7934  -6.6122  -6.4865
    -6.2746  -6.0414  -5.9856  -5.7531  -5.7178  -5.6885  -5.4084  -5.4028
    -5.3284  -5.2253  -5.2191  -5.1896  -5.1670  -5.1256  -4.9921  -4.9488
    -4.8871  -4.6312  -4.4931  -3.7651  -2.4399  -2.2190  -0.5201  -0.1859
     0.4329   0.7154

     the Fermi energy is    -3.7315 ev

!    total energy              =    -329.49126548 Ry
     Harris-Foulkes estimate   =    -329.49126549 Ry
     estimated scf accuracy    <          2.0E-10 Ry

     The total energy is the sum of the following terms:

     one-electron contribution =    -607.19651604 Ry
     hartree contribution      =     325.03198938 Ry
     xc contribution           =     -51.39960342 Ry
     ewald contribution        =       4.07735501 Ry
     smearing contrib. (-TS)   =      -0.00449042 Ry

     convergence has been achieved in   8 iterations

     Forces acting on atoms (Ry/au):

     atom    1 type  1   force =    -0.00245574   -0.00086233   -0.00127220
     atom    2 type  1   force =    -0.00094301    0.00309634    0.00046064
     atom    3 type  1   force =     0.00238645    0.00009498    0.00216080
     atom    4 type  1   force =     0.00061971   -0.00290205   -0.00130083
     atom    5 type  1   force =     0.00039258    0.00057306   -0.00004841

     Total force =     0.006359     Total SCF correction =     0.000055

     number of scf cycles    =  11
     number of bfgs steps    =  10

     energy   old            =    -329.4912090255 Ry
     energy   new            =    -329.4912654796 Ry

     CASE: energy  _new < energy  _old

     new trust radius        =       0.0089924860 bohr
     new conv_thr            =            1.0E-10 Ry


ATOMIC_POSITIONS (bohr)
Au      -1.606086215   2.595315340  -1.094488840
Au      -0.629674211   3.932414704   3.824009547
Au       3.087983703   1.921096922   0.664820614
Au       4.140227347   4.130604683   5.772228917
Au       7.491854376   1.330023351   3.039785762



     Writing output data file pwscf.save
     Check: negative starting charge=   -0.006334
     NEW-OLD atomic charge density approx. for the potential
     Check: negative starting charge=   -0.006333

     negative rho (up, down):  6.151E-06 0.000E+00

     total cpu time spent up to now is       28.1 secs

     per-process dynamical memory:    50.7 Mb

     Self-consistent Calculation

     iteration #  1     ecut=    30.00 Ry     beta=0.70
     Davidson diagonalization with overlap
     ethr =  1.00E-06,  avg # of iterations =  4.0

     Threshold (ethr) on eigenvalues was too large:
     Diagonalizing with lowered threshold

     Davidson diagonalization with overlap
     ethr =  2.88E-08,  avg # of iterations =  2.0

     total cpu time spent up to now is       28.6 secs

     total energy              =    -329.49131858 Ry
     Harris-Foulkes estimate   =    -329.49132176 Ry
     estimated scf accuracy    <       0.00001686 Ry

     iteration #  2     ecut=    30.00 Ry     beta=0.70
     Davidson diagonalization with overlap
     ethr =  3.07E-08,  avg # of iterations =  3.0

     total cpu time spent up to now is       28.8 secs

     total energy              =    -329.49132003 Ry
     Harris-Foulkes estimate   =    -329.49132829 Ry
     estimated scf accuracy    <       0.00001726 Ry

     iteration #  3     ecut=    30.00 Ry     beta=0.70
     Davidson diagonalization with overlap
     ethr =  3.07E-08,  avg # of iterations =  2.0

     total cpu time spent up to now is       29.0 secs

     total energy              =    -329.49132375 Ry
     Harris-Foulkes estimate   =    -329.49132556 Ry
     estimated scf accuracy    <       0.00000541 Ry

     iteration #  4     ecut=    30.00 Ry     beta=0.70
     Davidson diagonalization with overlap
     ethr =  9.84E-09,  avg # of iterations =  2.0

     total cpu time spent up to now is       29.2 secs

     total energy              =    -329.49132518 Ry
     Harris-Foulkes estimate   =    -329.49132508 Ry
     estimated scf accuracy    <       0.00000059 Ry

     iteration #  5     ecut=    30.00 Ry     beta=0.70
     Davidson diagonalization with overlap
     ethr =  1.07E-09,  avg # of iterations =  2.0

     total cpu time spent up to now is       29.4 secs

     total energy              =    -329.49132529 Ry
     Harris-Foulkes estimate   =    -329.49132535 Ry
     estimated scf accuracy    <       0.00000019 Ry

     iteration #  6     ecut=    30.00 Ry     beta=0.70
     Davidson diagonalization with overlap
     ethr =  3.38E-10,  avg # of iterations =  2.0

     total cpu time spent up to now is       29.6 secs

     total energy              =    -329.49132537 Ry
     Harris-Foulkes estimate   =    -329.49132533 Ry
     estimated scf accuracy    <       0.00000001 Ry

     iteration #  7     ecut=    30.00 Ry     beta=0.70
     Davidson diagonalization with overlap
     ethr =  2.53E-11,  avg # of iterations =  2.0

     total cpu time spent up to now is       29.8 secs

     total energy              =    -329.49132534 Ry
     Harris-Foulkes estimate   =    -329.49132538 Ry
     estimated scf accuracy    <          1.6E-09 Ry

     iteration #  8     ecut=    30.00 Ry     beta=0.70
     Davidson diagonalization with overlap
     ethr =  2.90E-12,  avg # of iterations =  2.0

     total cpu time spent up to now is       30.1 secs

     total energy              =    -329.49132538 Ry
     Harris-Foulkes estimate   =    -329.49132534 Ry
     estimated scf accuracy    <          5.5E-10 Ry

     iteration #  9     ecut=    30.00 Ry     beta=0.70
     Davidson diagonalization with overlap
     ethr =  9.95E-13,  avg # of iterations =  3.0

     total cpu time spent up to now is       30.3 secs

     total energy              =    -329.49132539 Ry
     Harris-Foulkes estimate   =    -329.49132538 Ry
     estimated scf accuracy    <          1.3E-10 Ry

     iteration # 10     ecut=    30.00 Ry     beta=0.70
     Davidson diagonalization with overlap
     ethr =  2.32E-13,  avg # of iterations =  2.0

     total cpu time spent up to now is       30.5 secs

     End of self-consistent calculation

          k = 0.0000 0.0000 0.0000 ( 22119 PWs)   bands (ev):

    -8.4844  -7.7586  -7.6492  -7.2216  -6.9676  -6.7924  -6.6064  -6.4850
    -6.2716  -6.0440  -5.9817  -5.7512  -5.7175  -5.6872  -5.4069  -5.4041
    -5.3274  -5.2265  -5.2189  -5.1900  -5.1654  -5.1260  -4.9916  -4.9492
    -4.8870  -4.6352  -4.4955  -3.7666  -2.4389  -2.2234  -0.5200  -0.1857
     0.4326   0.7171

     the Fermi energy is    -3.7328 ev

!    total energy              =    -329.49132539 Ry
     Harris-Foulkes estimate   =    -329.49132539 Ry
     estimated scf accuracy    <          1.6E-11 Ry

     The total energy is the sum of the following terms:

     one-electron contribution =    -606.91266451 Ry
     hartree contribution      =     324.89151095 Ry
     xc contribution           =     -51.39835390 Ry
     ewald contribution        =       3.93271673 Ry
     smearing contrib. (-TS)   =      -0.00453467 Ry

     convergence has been achieved in  10 iterations

     Forces acting on atoms (Ry/au):

     atom    1 type  1   force =    -0.00152125   -0.00071817   -0.00009249
     atom    2 type  1   force =    -0.00046394    0.00267594   -0.00017096
     atom    3 type  1   force =     0.00081451    0.00030952    0.00151391
     atom    4 type  1   force =     0.00023037   -0.00291969   -0.00154083
     atom    5 type  1   force =     0.00094031    0.00065240    0.00029035

     Total force =     0.005064     Total SCF correction =     0.000019

     number of scf cycles    =  12
     number of bfgs steps    =  11

     energy   old            =    -329.4912654796 Ry
     energy   new            =    -329.4913253897 Ry

     CASE: energy  _new < energy  _old

     new trust radius        =       0.0134887289 bohr
     new conv_thr            =            1.0E-10 Ry


ATOMIC_POSITIONS (bohr)
Au      -1.608462281   2.590020815  -1.100788100
Au      -0.635426383   3.944539206   3.825371449
Au       3.090116339   1.923308737   0.674693292
Au       4.142678142   4.122907977   5.772504565
Au       7.495399183   1.328678265   3.034574794



     Writing output data file pwscf.save
     Check: negative starting charge=   -0.006333
     NEW-OLD atomic charge density approx. for the potential
     Check: negative starting charge=   -0.006332

     negative rho (up, down):  2.298E-05 0.000E+00

     total cpu time spent up to now is       30.7 secs

     per-process dynamical memory:    50.7 Mb

     Self-consistent Calculation

     iteration #  1     ecut=    30.00 Ry     beta=0.70
     Davidson diagonalization with overlap
     ethr =  1.00E-06,  avg # of iterations =  4.0

     Threshold (ethr) on eigenvalues was too large:
     Diagonalizing with lowered threshold

     Davidson diagonalization with overlap
     ethr =  6.16E-08,  avg # of iterations =  1.0

     negative rho (up, down):  4.640E-08 0.000E+00

     total cpu time spent up to now is       31.2 secs

     total energy              =    -329.49137808 Ry
     Harris-Foulkes estimate   =    -329.49138572 Ry
     estimated scf accuracy    <       0.00003403 Ry

     iteration #  2     ecut=    30.00 Ry     beta=0.70
     Davidson diagonalization with overlap
     ethr =  6.19E-08,  avg # of iterations =  3.0

     total cpu time spent up to now is       31.5 secs

     total energy              =    -329.49138126 Ry
     Harris-Foulkes estimate   =    -329.49139743 Ry
     estimated scf accuracy    <       0.00003332 Ry

     iteration #  3     ecut=    30.00 Ry     beta=0.70
     Davidson diagonalization with overlap
     ethr =  6.06E-08,  avg # of iterations =  2.0

     total cpu time spent up to now is       31.7 secs

     total energy              =    -329.49138801 Ry
     Harris-Foulkes estimate   =    -329.49139173 Ry
     estimated scf accuracy    <       0.00000996 Ry

     iteration #  4     ecut=    30.00 Ry     beta=0.70
     Davidson diagonalization with overlap
     ethr =  1.81E-08,  avg # of iterations =  2.0

     total cpu time spent up to now is       31.9 secs

     total energy              =    -329.49139067 Ry
     Harris-Foulkes estimate   =    -329.49139059 Ry
     estimated scf accuracy    <       0.00000133 Ry

     iteration #  5     ecut=    30.00 Ry     beta=0.70
     Davidson diagonalization with overlap
     ethr =  2.42E-09,  avg # of iterations =  2.0

     total cpu time spent up to now is       32.1 secs

     total energy              =    -329.49139085 Ry
     Harris-Foulkes estimate   =    -329.49139100 Ry
     estimated scf accuracy    <       0.00000028 Ry

     iteration #  6     ecut=    30.00 Ry     beta=0.70
     Davidson diagonalization with overlap
     ethr =  5.05E-10,  avg # of iterations =  2.0

     total cpu time spent up to now is       32.3 secs

     total energy              =    -329.49139082 Ry
     Harris-Foulkes estimate   =    -329.49139091 Ry
     estimated scf accuracy    <       0.00000002 Ry

     iteration #  7     ecut=    30.00 Ry     beta=0.70
     Davidson diagonalization with overlap
     ethr =  4.26E-11,  avg # of iterations =  2.0

     total cpu time spent up to now is       32.5 secs
[...]

     negative rho (up, down):  3.747E-08 0.000E+00

     total cpu time spent up to now is      122.3 secs

     total energy              =    -329.49341533 Ry
     Harris-Foulkes estimate   =    -329.49343124 Ry
     estimated scf accuracy    <       0.00004237 Ry

     iteration #  2     ecut=    30.00 Ry     beta=0.70
     Davidson diagonalization with overlap
     ethr =  7.70E-08,  avg # of iterations =  3.0

     total cpu time spent up to now is      122.5 secs

     total energy              =    -329.49342001 Ry
     Harris-Foulkes estimate   =    -329.49344334 Ry
     estimated scf accuracy    <       0.00005265 Ry

     iteration #  3     ecut=    30.00 Ry     beta=0.70
     Davidson diagonalization with overlap
     ethr =  7.70E-08,  avg # of iterations =  2.0

     total cpu time spent up to now is      122.8 secs

     total energy              =    -329.49343037 Ry
     Harris-Foulkes estimate   =    -329.49343260 Ry
     estimated scf accuracy    <       0.00000509 Ry

     iteration #  4     ecut=    30.00 Ry     beta=0.70
     Davidson diagonalization with overlap
     ethr =  9.25E-09,  avg # of iterations =  2.0

     total cpu time spent up to now is      123.0 secs

     total energy              =    -329.49343135 Ry
     Harris-Foulkes estimate   =    -329.49343285 Ry
     estimated scf accuracy    <       0.00000415 Ry

     iteration #  5     ecut=    30.00 Ry     beta=0.70
     Davidson diagonalization with overlap
     ethr =  7.55E-09,  avg # of iterations =  2.0

     total cpu time spent up to now is      123.2 secs

     total energy              =    -329.49343236 Ry
     Harris-Foulkes estimate   =    -329.49343211 Ry
     estimated scf accuracy    <       0.00000015 Ry

     iteration #  6     ecut=    30.00 Ry     beta=0.70
     Davidson diagonalization with overlap
     ethr =  2.81E-10,  avg # of iterations =  3.0

     total cpu time spent up to now is      123.4 secs

     total energy              =    -329.49343245 Ry
     Harris-Foulkes estimate   =    -329.49343241 Ry
     estimated scf accuracy    <       0.00000002 Ry

     iteration #  7     ecut=    30.00 Ry     beta=0.70
     Davidson diagonalization with overlap
     ethr =  4.46E-11,  avg # of iterations =  2.0

     total cpu time spent up to now is      123.6 secs

     total energy              =    -329.49343252 Ry
     Harris-Foulkes estimate   =    -329.49343246 Ry
     estimated scf accuracy    <          7.2E-09 Ry

     iteration #  8     ecut=    30.00 Ry     beta=0.70
     Davidson diagonalization with overlap
     ethr =  1.31E-11,  avg # of iterations =  2.0

     total cpu time spent up to now is      123.8 secs

     total energy              =    -329.49343255 Ry
     Harris-Foulkes estimate   =    -329.49343252 Ry
     estimated scf accuracy    <          9.6E-10 Ry

     iteration #  9     ecut=    30.00 Ry     beta=0.70
     Davidson diagonalization with overlap
     ethr =  1.75E-12,  avg # of iterations =  2.0

     total cpu time spent up to now is      124.1 secs

     total energy              =    -329.49343256 Ry
     Harris-Foulkes estimate   =    -329.49343255 Ry
     estimated scf accuracy    <          2.1E-10 Ry

     iteration # 10     ecut=    30.00 Ry     beta=0.70
     Davidson diagonalization with overlap
     ethr =  3.86E-13,  avg # of iterations =  2.0

     total cpu time spent up to now is      124.3 secs

     End of self-consistent calculation

          k = 0.0000 0.0000 0.0000 ( 22119 PWs)   bands (ev):

    -8.5441  -7.8008  -7.6757  -7.2363  -6.8579  -6.8386  -6.6042  -6.4890
    -6.3113  -6.0925  -5.9449  -5.7756  -5.7338  -5.6899  -5.4579  -5.3529
    -5.3108  -5.2488  -5.2035  -5.1757  -5.1715  -5.1173  -4.9896  -4.9248
    -4.8286  -4.7304  -4.4773  -3.7730  -2.4111  -2.2017  -0.5327  -0.1777
     0.4694   0.7921

     the Fermi energy is    -3.7399 ev

!    total energy              =    -329.49343257 Ry
     Harris-Foulkes estimate   =    -329.49343256 Ry
     estimated scf accuracy    <          3.1E-11 Ry

     The total energy is the sum of the following terms:

     one-electron contribution =    -607.70742251 Ry
     hartree contribution      =     325.28205888 Ry
     xc contribution           =     -51.40373398 Ry
     ewald contribution        =       4.34012660 Ry
     smearing contrib. (-TS)   =      -0.00446156 Ry

     convergence has been achieved in  10 iterations

     Forces acting on atoms (Ry/au):

     atom    1 type  1   force =    -0.00214900    0.00020429   -0.00126677
     atom    2 type  1   force =     0.00003691    0.00040437    0.00039549
     atom    3 type  1   force =     0.00087278   -0.00077672   -0.00012574
     atom    4 type  1   force =     0.00023051    0.00116156    0.00070218
     atom    5 type  1   force =     0.00100880   -0.00099349    0.00029484

     Total force =     0.003457     Total SCF correction =     0.000021

     number of scf cycles    =  48
     number of bfgs steps    =  47

     energy   old            =    -329.4934146954 Ry
     energy   new            =    -329.4934325722 Ry

     CASE: energy  _new < energy  _old

     new trust radius        =       0.0096207317 bohr
     new conv_thr            =            1.0E-10 Ry


ATOMIC_POSITIONS (bohr)
Au      -1.462740326   2.588925168  -1.149371011
Au      -0.649109117   4.512998123   3.585387549
Au       3.107610841   1.827310174   0.812653914
Au       3.963416690   3.816251197   5.805469630
Au       7.525126913   1.163970338   3.152215918



     Writing output data file pwscf.save
     Check: negative starting charge=   -0.006340
     NEW-OLD atomic charge density approx. for the potential
     Check: negative starting charge=   -0.006334

     negative rho (up, down):  3.844E-06 0.000E+00

     total cpu time spent up to now is      124.5 secs

     per-process dynamical memory:    50.7 Mb

     Self-consistent Calculation

     iteration #  1     ecut=    30.00 Ry     beta=0.70
     Davidson diagonalization with overlap
     ethr =  1.00E-06,  avg # of iterations =  3.0

     Threshold (ethr) on eigenvalues was too large:
     Diagonalizing with lowered threshold

     Davidson diagonalization with overlap
     ethr =  2.31E-08,  avg # of iterations =  2.0

     total cpu time spent up to now is      124.9 secs

     total energy              =    -329.49344728 Ry
     Harris-Foulkes estimate   =    -329.49344878 Ry
     estimated scf accuracy    <       0.00001390 Ry

     iteration #  2     ecut=    30.00 Ry     beta=0.70
     Davidson diagonalization with overlap
     ethr =  2.53E-08,  avg # of iterations =  3.0

     total cpu time spent up to now is      125.2 secs

     total energy              =    -329.49344822 Ry
     Harris-Foulkes estimate   =    -329.49345681 Ry
     estimated scf accuracy    <       0.00002043 Ry

     iteration #  3     ecut=    30.00 Ry     beta=0.70
     Davidson diagonalization with overlap
     ethr =  2.53E-08,  avg # of iterations =  2.0

     total cpu time spent up to now is      125.4 secs

     total energy              =    -329.49345328 Ry
     Harris-Foulkes estimate   =    -329.49345349 Ry
     estimated scf accuracy    <       0.00000288 Ry

     iteration #  4     ecut=    30.00 Ry     beta=0.70
     Davidson diagonalization with overlap
     ethr =  5.24E-09,  avg # of iterations =  2.0

     total cpu time spent up to now is      125.6 secs

     total energy              =    -329.49345435 Ry
     Harris-Foulkes estimate   =    -329.49345423 Ry
     estimated scf accuracy    <       0.00000094 Ry

     iteration #  5     ecut=    30.00 Ry     beta=0.70
     Davidson diagonalization with overlap
     ethr =  1.71E-09,  avg # of iterations =  2.0

     total cpu time spent up to now is      125.8 secs

     total energy              =    -329.49345448 Ry
     Harris-Foulkes estimate   =    -329.49345455 Ry
     estimated scf accuracy    <       0.00000007 Ry

     iteration #  6     ecut=    30.00 Ry     beta=0.70
     Davidson diagonalization with overlap
     ethr =  1.23E-10,  avg # of iterations =  3.0

     total cpu time spent up to now is      126.0 secs

     total energy              =    -329.49345445 Ry
     Harris-Foulkes estimate   =    -329.49345450 Ry
     estimated scf accuracy    <          9.4E-09 Ry

     iteration #  7     ecut=    30.00 Ry     beta=0.70
     Davidson diagonalization with overlap
     ethr =  1.71E-11,  avg # of iterations =  2.0

     total cpu time spent up to now is      126.2 secs

     total energy              =    -329.49345445 Ry
     Harris-Foulkes estimate   =    -329.49345446 Ry
     estimated scf accuracy    <          2.0E-09 Ry

     iteration #  8     ecut=    30.00 Ry     beta=0.70
     Davidson diagonalization with overlap
     ethr =  3.59E-12,  avg # of iterations =  2.0

     total cpu time spent up to now is      126.5 secs

     total energy              =    -329.49345446 Ry
     Harris-Foulkes estimate   =    -329.49345445 Ry
     estimated scf accuracy    <          6.0E-10 Ry

     iteration #  9     ecut=    30.00 Ry     beta=0.70
     Davidson diagonalization with overlap
     ethr =  1.09E-12,  avg # of iterations =  2.0

     total cpu time spent up to now is      126.7 secs

     End of self-consistent calculation

          k = 0.0000 0.0000 0.0000 ( 22119 PWs)   bands (ev):

    -8.5341  -7.7930  -7.6764  -7.2352  -6.8562  -6.8315  -6.5974  -6.4874
    -6.3128  -6.0885  -5.9401  -5.7732  -5.7307  -5.6884  -5.4583  -5.3538
    -5.3119  -5.2489  -5.2042  -5.1749  -5.1714  -5.1175  -4.9925  -4.9244
    -4.8276  -4.7334  -4.4781  -3.7749  -2.4153  -2.2018  -0.5319  -0.1774
     0.4663   0.7912

     the Fermi energy is    -3.7419 ev

!    total energy              =    -329.49345446 Ry
     Harris-Foulkes estimate   =    -329.49345446 Ry
     estimated scf accuracy    <          6.4E-11 Ry

     The total energy is the sum of the following terms:

     one-electron contribution =    -607.33568833 Ry
     hartree contribution      =     325.09817068 Ry
     xc contribution           =     -51.40223561 Ry
     ewald contribution        =       4.15073248 Ry
     smearing contrib. (-TS)   =      -0.00443369 Ry

     convergence has been achieved in   9 iterations

     Forces acting on atoms (Ry/au):

     atom    1 type  1   force =    -0.00140051    0.00024641   -0.00047562
     atom    2 type  1   force =    -0.00029632    0.00032870   -0.00012770
     atom    3 type  1   force =     0.00108006   -0.00076933    0.00010350
     atom    4 type  1   force =     0.00083035    0.00086418    0.00049090
     atom    5 type  1   force =    -0.00021358   -0.00066996    0.00000893

     Total force =     0.002530     Total SCF correction =     0.000028

     number of scf cycles    =  49
     number of bfgs steps    =  48

     energy   old            =    -329.4934325722 Ry
     energy   new            =    -329.4934544604 Ry

     CASE: energy  _new < energy  _old

     new trust radius        =       0.0179071881 bohr
     new conv_thr            =            1.0E-10 Ry


ATOMIC_POSITIONS (bohr)
Au      -1.460716156   2.592441451  -1.157539286
Au      -0.646900659   4.519453716   3.579668604
Au       3.109931730   1.823102043   0.813658226
Au       3.958696822   3.822281060   5.805002784
Au       7.523293264   1.152176730   3.165565672



     Writing output data file pwscf.save
     Check: negative starting charge=   -0.006334
     NEW-OLD atomic charge density approx. for the potential
     Check: negative starting charge=   -0.006329

     negative rho (up, down):  3.223E-05 0.000E+00

     total cpu time spent up to now is      126.9 secs

     per-process dynamical memory:    50.7 Mb

     Self-consistent Calculation

     iteration #  1     ecut=    30.00 Ry     beta=0.70
     Davidson diagonalization with overlap
     ethr =  1.00E-06,  avg # of iterations =  4.0

     Threshold (ethr) on eigenvalues was too large:
     Diagonalizing with lowered threshold

     Davidson diagonalization with overlap
     ethr =  9.18E-08,  avg # of iterations =  1.0

     negative rho (up, down):  7.898E-08 0.000E+00

     total cpu time spent up to now is      127.4 secs

     total energy              =    -329.49344888 Ry
     Harris-Foulkes estimate   =    -329.49346594 Ry
     estimated scf accuracy    <       0.00005069 Ry

     iteration #  2     ecut=    30.00 Ry     beta=0.70
     Davidson diagonalization with overlap
     ethr =  9.22E-08,  avg # of iterations =  3.0

     total cpu time spent up to now is      127.6 secs

     total energy              =    -329.49345530 Ry
     Harris-Foulkes estimate   =    -329.49348171 Ry
     estimated scf accuracy    <       0.00005874 Ry

     iteration #  3     ecut=    30.00 Ry     beta=0.70
     Davidson diagonalization with overlap
     ethr =  9.22E-08,  avg # of iterations =  2.0

     total cpu time spent up to now is      127.9 secs

     total energy              =    -329.49346790 Ry
     Harris-Foulkes estimate   =    -329.49346857 Ry
     estimated scf accuracy    <       0.00000314 Ry

     iteration #  4     ecut=    30.00 Ry     beta=0.70
     Davidson diagonalization with overlap
     ethr =  5.70E-09,  avg # of iterations =  3.0

     total cpu time spent up to now is      128.1 secs

     total energy              =    -329.49346857 Ry
     Harris-Foulkes estimate   =    -329.49346987 Ry
     estimated scf accuracy    <       0.00000427 Ry

     iteration #  5     ecut=    30.00 Ry     beta=0.70
     Davidson diagonalization with overlap
     ethr =  5.70E-09,  avg # of iterations =  2.0

     total cpu time spent up to now is      128.3 secs

     total energy              =    -329.49346927 Ry
     Harris-Foulkes estimate   =    -329.49346937 Ry
     estimated scf accuracy    <       0.00000015 Ry

     iteration #  6     ecut=    30.00 Ry     beta=0.70
     Davidson diagonalization with overlap
     ethr =  2.78E-10,  avg # of iterations =  3.0

     total cpu time spent up to now is      128.6 secs

     total energy              =    -329.49346934 Ry
     Harris-Foulkes estimate   =    -329.49346932 Ry
     estimated scf accuracy    <       0.00000002 Ry

     iteration #  7     ecut=    30.00 Ry     beta=0.70
     Davidson diagonalization with overlap
     ethr =  4.08E-11,  avg # of iterations =  3.0

     total cpu time spent up to now is      128.8 secs

     total energy              =    -329.49346946 Ry
     Harris-Foulkes estimate   =    -329.49346935 Ry
     estimated scf accuracy    <          8.1E-09 Ry

     iteration #  8     ecut=    30.00 Ry     beta=0.70
     Davidson diagonalization with overlap
     ethr =  1.47E-11,  avg # of iterations =  2.0

     total cpu time spent up to now is      129.0 secs

     total energy              =    -329.49346946 Ry
     Harris-Foulkes estimate   =    -329.49346946 Ry
     estimated scf accuracy    <          9.3E-10 Ry

     iteration #  9     ecut=    30.00 Ry     beta=0.70
     Davidson diagonalization with overlap
     ethr =  1.69E-12,  avg # of iterations =  3.0

     total cpu time spent up to now is      129.3 secs

     total energy              =    -329.49346945 Ry
     Harris-Foulkes estimate   =    -329.49346946 Ry
     estimated scf accuracy    <          2.2E-10 Ry

     iteration # 10     ecut=    30.00 Ry     beta=0.70
     Davidson diagonalization with overlap
     ethr =  3.96E-13,  avg # of iterations =  2.0

     total cpu time spent up to now is      129.4 secs

     End of self-consistent calculation

          k = 0.0000 0.0000 0.0000 ( 22119 PWs)   bands (ev):

    -8.5261  -7.7863  -7.6761  -7.2335  -6.8552  -6.8261  -6.5919  -6.4853
    -6.3135  -6.0850  -5.9363  -5.7713  -5.7285  -5.6869  -5.4577  -5.3547
    -5.3127  -5.2485  -5.2049  -5.1746  -5.1709  -5.1176  -4.9941  -4.9239
    -4.8268  -4.7359  -4.4781  -3.7767  -2.4175  -2.2020  -0.5307  -0.1775
     0.4641   0.7895

     the Fermi energy is    -3.7440 ev

!    total energy              =    -329.49346946 Ry
     Harris-Foulkes estimate   =    -329.49346945 Ry
     estimated scf accuracy    <          3.1E-11 Ry

     The total energy is the sum of the following terms:

     one-electron contribution =    -607.00608409 Ry
     hartree contribution      =     324.93533452 Ry
     xc contribution           =     -51.40108680 Ry
     ewald contribution        =       3.98275436 Ry
     smearing contrib. (-TS)   =      -0.00438746 Ry

     convergence has been achieved in  10 iterations

     Forces acting on atoms (Ry/au):

     atom    1 type  1   force =    -0.00075339    0.00031167    0.00019949
     atom    2 type  1   force =    -0.00051097    0.00019319   -0.00059473
     atom    3 type  1   force =     0.00067538   -0.00070423    0.00009350
     atom    4 type  1   force =     0.00142336    0.00047625    0.00022295
     atom    5 type  1   force =    -0.00083438   -0.00027688    0.00007880

     Total force =     0.002324     Total SCF correction =     0.000016

     number of scf cycles    =  50
     number of bfgs steps    =  49

     energy   old            =    -329.4934544604 Ry
     energy   new            =    -329.4934694641 Ry

     CASE: energy  _new < energy  _old

     new trust radius        =       0.0208336345 bohr
     new conv_thr            =            1.0E-10 Ry


ATOMIC_POSITIONS (bohr)
Au      -1.457246836   2.597495092  -1.165622754
Au      -0.645003389   4.526340746   3.572026772
Au       3.113247357   1.817790833   0.814402751
Au       3.955029319   3.828847665   5.804661784
Au       7.518278549   1.138980664   3.180887447



     Writing output data file pwscf.save
     Check: negative starting charge=   -0.006329
     NEW-OLD atomic charge density approx. for the potential
     Check: negative starting charge=   -0.006322

     negative rho (up, down):  4.932E-05 0.000E+00

     Writing output data file pwscf.save
 
     init_run     :      0.16s CPU      0.18s WALL (       1 calls)
     electrons    :    112.98s CPU    120.54s WALL (      50 calls)
     update_pot   :      3.31s CPU      3.98s WALL (      50 calls)
     forces       :      2.07s CPU      2.10s WALL (      50 calls)

     Called by init_run:
     wfcinit      :      0.07s CPU      0.08s WALL (       1 calls)
     potinit      :      0.03s CPU      0.03s WALL (       1 calls)

     Called by electrons:
     c_bands      :     86.58s CPU     87.53s WALL (     513 calls)
     sum_band     :     12.09s CPU     12.37s WALL (     513 calls)
     v_of_rho     :      9.75s CPU      9.87s WALL (     551 calls)
     mix_rho      :      3.69s CPU      8.16s WALL (     513 calls)

     Called by c_bands:
     init_us_2    :      1.57s CPU      1.65s WALL (    1027 calls)
     cegterg      :     77.22s CPU     77.77s WALL (     513 calls)

     Called by sum_band:

     Called by *egterg:
     h_psi        :     60.17s CPU     60.57s WALL (    1854 calls)
     g_psi        :      0.61s CPU      0.61s WALL (    1340 calls)
     cdiaghg      :      4.27s CPU      4.28s WALL (    1791 calls)

     Called by h_psi:
     h_psi:pot    :     59.29s CPU     59.69s WALL (    1854 calls)
     h_psi:calbec :      3.28s CPU      3.29s WALL (    1854 calls)
     vloc_psi     :     52.31s CPU     52.69s WALL (    1854 calls)
     add_vuspsi   :      3.70s CPU      3.70s WALL (    1854 calls)

     General routines
     calbec       :      3.88s CPU      3.91s WALL (    2054 calls)
     fft          :      5.44s CPU      5.57s WALL (    6187 calls)
     fftw         :     54.86s CPU     55.66s WALL (  115160 calls)
     davcio       :      0.60s CPU      4.14s WALL (    5358 calls)
 
     Parallel routines
     fft_scatter  :     14.24s CPU     13.79s WALL (  121347 calls)
 
     PWSCF        :  1m59.82s CPU     2m 9.73s WALL

 
   This run was terminated on:  22:24:24   3Aug2017            

=------------------------------------------------------------------------------=
   JOB DONE.
=------------------------------------------------------------------------------=
