
     Program PWSCF v.6.0 (svn rev. 13079) starts on  4Aug2017 at  1:30:53 

     This program is part of the open-source Quantum ESPRESSO suite
     for quantum simulation of materials; please cite
         "P. Giannozzi et al., J. Phys.:Condens. Matter 21 395502 (2009);
          URL http://www.quantum-espresso.org", 
     in publications or presentations arising from this work. More details at
     http://www.quantum-espresso.org/quote

     Parallel version (MPI), running on    10 processors
     R & G space division:  proc/nbgrp/npool/nimage =      10
     Reading input from input/multi/minchecks-Gold5-637.in

     Current dimensions of program PWSCF are:
     Max number of different atomic species (ntypx) = 10
     Max number of k-points (npk) =  40000
     Max angular momentum in pseudopotentials (lmaxx) =  3
     Message from routine iosys:
     pot_extrapolation='second-order' not available, using 'atomic'
     Message from routine iosys:
     wfc_extrapolation='second-order' not available, using 'atomic'

     Subspace diagonalization in iterative solution of the eigenvalue problem:
     a serial algorithm will be used

 
     Parallelization info
     --------------------
     sticks:   dense  smooth     PW     G-vecs:    dense   smooth      PW
     Min         380     380     94                17748    17748    2208
     Max         381     381     95                17753    17753    2213
     Sum        3809    3809    949               177509   177509   22119
 


     bravais-lattice index     =            1
     lattice parameter (alat)  =      20.0000  a.u.
     unit-cell volume          =    8000.0000 (a.u.)^3
     number of atoms/cell      =            5
     number of atomic types    =            1
     number of electrons       =        55.00
     number of Kohn-Sham states=           34
     kinetic-energy cutoff     =      30.0000  Ry
     charge density cutoff     =     120.0000  Ry
     convergence threshold     =      1.0E-08
     mixing beta               =       0.7000
     number of iterations used =            8  plain     mixing
     Exchange-correlation      = BLYP ( 1  3  1  3 0 0)
     nstep                     =           50


     celldm(1)=  20.000000  celldm(2)=   0.000000  celldm(3)=   0.000000
     celldm(4)=   0.000000  celldm(5)=   0.000000  celldm(6)=   0.000000

     crystal axes: (cart. coord. in units of alat)
               a(1) = (   1.000000   0.000000   0.000000 )  
               a(2) = (   0.000000   1.000000   0.000000 )  
               a(3) = (   0.000000   0.000000   1.000000 )  

     reciprocal axes: (cart. coord. in units 2 pi/alat)
               b(1) = (  1.000000  0.000000  0.000000 )  
               b(2) = (  0.000000  1.000000  0.000000 )  
               b(3) = (  0.000000  0.000000  1.000000 )  


     PseudoPot. # 1 for Au read from file:
     ./Au.blyp-d-hgh.UPF
     MD5 check sum: c10d8bae01f806c36a1643a1c69a8479
     Pseudo is Norm-conserving, Zval = 11.0
     Generated in analytical, separable form
     Using radial grid of 1279 points,  6 beta functions with: 
                l(1) =   0
                l(2) =   0
                l(3) =   1
                l(4) =   1
                l(5) =   2
                l(6) =   2

     atomic species   valence    mass     pseudopotential
        Au            11.00    28.08600     Au( 1.00)

     No symmetry found



   Cartesian axes

     site n.     atom                  positions (alat units)
         1           Au  tau(   1) = (  -0.0793403   0.0382786  -0.0154714  )
         2           Au  tau(   2) = (  -0.0046461   0.1470596   0.2101821  )
         3           Au  tau(   3) = (   0.1533892   0.1487507   0.0009837  )
         4           Au  tau(   4) = (   0.2249582   0.2376526   0.2713020  )
         5           Au  tau(   5) = (   0.3302055   0.0398736   0.1463183  )

     number of k points=     1  Marzari-Vanderbilt smearing, width (Ry)=  0.0250
                       cart. coord. in units 2pi/alat
        k(    1) = (   0.0000000   0.0000000   0.0000000), wk =   2.0000000

     Dense  grid:   177509 G-vectors     FFT dimensions: (  72,  72,  72)

     Estimated max dynamical RAM per process >      15.04Mb

     Estimated total allocated dynamical RAM >     150.39Mb

     Initial potential from superposition of free atoms
     Check: negative starting charge=   -0.006247

     starting charge   54.99940, renormalised to   55.00000

     negative rho (up, down):  6.247E-03 0.000E+00
     Starting wfc are   45 randomized atomic wfcs

     total cpu time spent up to now is        0.3 secs

     per-process dynamical memory:    41.0 Mb

     Self-consistent Calculation

     iteration #  1     ecut=    30.00 Ry     beta=0.70
     Davidson diagonalization with overlap
     ethr =  1.00E-02,  avg # of iterations =  3.0

     Threshold (ethr) on eigenvalues was too large:
     Diagonalizing with lowered threshold

     Davidson diagonalization with overlap
     ethr =  3.49E-04,  avg # of iterations =  7.0

     negative rho (up, down):  8.241E-04 0.000E+00

     total cpu time spent up to now is        0.7 secs

     total energy              =    -329.35899389 Ry
     Harris-Foulkes estimate   =    -329.50802072 Ry
     estimated scf accuracy    <       0.25048983 Ry

     iteration #  2     ecut=    30.00 Ry     beta=0.70
     Davidson diagonalization with overlap
     ethr =  4.55E-04,  avg # of iterations =  3.0

     negative rho (up, down):  3.702E-04 0.000E+00

     total cpu time spent up to now is        0.9 secs

     total energy              =    -329.38667811 Ry
     Harris-Foulkes estimate   =    -329.52183302 Ry
     estimated scf accuracy    <       0.27629663 Ry

     iteration #  3     ecut=    30.00 Ry     beta=0.70
     Davidson diagonalization with overlap
     ethr =  4.55E-04,  avg # of iterations =  2.0

     negative rho (up, down):  1.354E-04 0.000E+00

     total cpu time spent up to now is        1.2 secs

     total energy              =    -329.44166214 Ry
     Harris-Foulkes estimate   =    -329.46915065 Ry
     estimated scf accuracy    <       0.07320595 Ry

     iteration #  4     ecut=    30.00 Ry     beta=0.70
     Davidson diagonalization with overlap
     ethr =  1.33E-04,  avg # of iterations =  2.0

     negative rho (up, down):  1.148E-05 0.000E+00

     total cpu time spent up to now is        1.4 secs

     total energy              =    -329.45463462 Ry
     Harris-Foulkes estimate   =    -329.45670383 Ry
     estimated scf accuracy    <       0.00539061 Ry

     iteration #  5     ecut=    30.00 Ry     beta=0.70
     Davidson diagonalization with overlap
     ethr =  9.80E-06,  avg # of iterations =  5.0

     total cpu time spent up to now is        1.6 secs

     total energy              =    -329.45582306 Ry
     Harris-Foulkes estimate   =    -329.45652615 Ry
     estimated scf accuracy    <       0.00188978 Ry

     iteration #  6     ecut=    30.00 Ry     beta=0.70
     Davidson diagonalization with overlap
     ethr =  3.44E-06,  avg # of iterations =  2.0

     total cpu time spent up to now is        1.9 secs

     total energy              =    -329.45613471 Ry
     Harris-Foulkes estimate   =    -329.45622731 Ry
     estimated scf accuracy    <       0.00018818 Ry

     iteration #  7     ecut=    30.00 Ry     beta=0.70
     Davidson diagonalization with overlap
     ethr =  3.42E-07,  avg # of iterations =  2.0

     total cpu time spent up to now is        2.1 secs

     total energy              =    -329.45618126 Ry
     Harris-Foulkes estimate   =    -329.45621016 Ry
     estimated scf accuracy    <       0.00007642 Ry

     iteration #  8     ecut=    30.00 Ry     beta=0.70
     Davidson diagonalization with overlap
     ethr =  1.39E-07,  avg # of iterations =  2.0

     total cpu time spent up to now is        2.3 secs

     total energy              =    -329.45619318 Ry
     Harris-Foulkes estimate   =    -329.45619719 Ry
     estimated scf accuracy    <       0.00000810 Ry

     iteration #  9     ecut=    30.00 Ry     beta=0.70
     Davidson diagonalization with overlap
     ethr =  1.47E-08,  avg # of iterations =  2.0

     total cpu time spent up to now is        2.5 secs

     total energy              =    -329.45619462 Ry
     Harris-Foulkes estimate   =    -329.45619524 Ry
     estimated scf accuracy    <       0.00000071 Ry

     iteration # 10     ecut=    30.00 Ry     beta=0.70
     Davidson diagonalization with overlap
     ethr =  1.30E-09,  avg # of iterations =  2.0

     total cpu time spent up to now is        2.8 secs

     total energy              =    -329.45619462 Ry
     Harris-Foulkes estimate   =    -329.45619492 Ry
     estimated scf accuracy    <       0.00000037 Ry

     iteration # 11     ecut=    30.00 Ry     beta=0.70
     Davidson diagonalization with overlap
     ethr =  6.76E-10,  avg # of iterations =  2.0

     total cpu time spent up to now is        3.0 secs

     total energy              =    -329.45619462 Ry
     Harris-Foulkes estimate   =    -329.45619471 Ry
     estimated scf accuracy    <       0.00000002 Ry

     iteration # 12     ecut=    30.00 Ry     beta=0.70
     Davidson diagonalization with overlap
     ethr =  4.29E-11,  avg # of iterations =  3.0

     total cpu time spent up to now is        3.2 secs

     End of self-consistent calculation

          k = 0.0000 0.0000 0.0000 ( 22119 PWs)   bands (ev):

    -8.1979  -7.7007  -7.4325  -7.1768  -7.0631  -6.8296  -6.6813  -6.4493
    -6.4220  -6.0440  -5.9822  -5.7204  -5.6323  -5.5220  -5.4539  -5.3703
    -5.3250  -5.2200  -5.1531  -5.1165  -5.0662  -5.0194  -4.9275  -4.9005
    -4.6788  -4.5225  -4.3173  -3.6359  -2.6411  -2.2643  -0.3615  -0.0901
     0.2863   0.5502

     the Fermi energy is    -3.6072 ev

!    total energy              =    -329.45619457 Ry
     Harris-Foulkes estimate   =    -329.45619463 Ry
     estimated scf accuracy    <          3.4E-09 Ry

     The total energy is the sum of the following terms:

     one-electron contribution =    -613.47498677 Ry
     hartree contribution      =     328.28678737 Ry
     xc contribution           =     -51.39670172 Ry
     ewald contribution        =       7.13213577 Ry
     smearing contrib. (-TS)   =      -0.00342923 Ry

     convergence has been achieved in  12 iterations

     Forces acting on atoms (Ry/au):

     atom    1 type  1   force =    -0.00000781    0.01097909    0.00413609
     atom    2 type  1   force =    -0.01046361   -0.00267302   -0.00833091
     atom    3 type  1   force =    -0.00702400   -0.01182076   -0.00152391
     atom    4 type  1   force =     0.00332903   -0.00191310    0.00346064
     atom    5 type  1   force =     0.01416640    0.00542779    0.00225809

     Total force =     0.027875     Total SCF correction =     0.000228

     BFGS Geometry Optimization

     number of scf cycles    =   1
     number of bfgs steps    =   0

     energy   new            =    -329.4561945744 Ry

     new trust radius        =       0.0153377573 bohr
     new conv_thr            =       0.0000000100 Ry


ATOMIC_POSITIONS (bohr)
Au      -1.586813815   0.776550089  -0.305290906
Au      -0.103384613   2.938518977   4.195311091
Au       3.060760002   2.963192244   0.018150086
Au       4.502493026   4.751138898   5.429501637
Au       6.618275400   0.802898793   2.928623091



     Writing output data file pwscf.save
     Check: negative starting charge=   -0.006247
     NEW-OLD atomic charge density approx. for the potential
     Check: negative starting charge=   -0.006242

     negative rho (up, down):  4.206E-05 0.000E+00

     total cpu time spent up to now is        3.4 secs

     per-process dynamical memory:    42.9 Mb

     Self-consistent Calculation

     iteration #  1     ecut=    30.00 Ry     beta=0.70
     Davidson diagonalization with overlap
     ethr =  1.00E-06,  avg # of iterations =  4.0

     negative rho (up, down):  1.483E-07 0.000E+00

     total cpu time spent up to now is        3.8 secs

     total energy              =    -329.45687518 Ry
     Harris-Foulkes estimate   =    -329.45691010 Ry
     estimated scf accuracy    <       0.00008604 Ry

     iteration #  2     ecut=    30.00 Ry     beta=0.70
     Davidson diagonalization with overlap
     ethr =  1.56E-07,  avg # of iterations =  3.0

     negative rho (up, down):  1.574E-08 0.000E+00

     total cpu time spent up to now is        4.0 secs

     total energy              =    -329.45686612 Ry
     Harris-Foulkes estimate   =    -329.45696428 Ry
     estimated scf accuracy    <       0.00025410 Ry

     iteration #  3     ecut=    30.00 Ry     beta=0.70
     Davidson diagonalization with overlap
     ethr =  1.56E-07,  avg # of iterations =  3.0

     total cpu time spent up to now is        4.2 secs

     total energy              =    -329.45691317 Ry
     Harris-Foulkes estimate   =    -329.45691951 Ry
     estimated scf accuracy    <       0.00001808 Ry

     iteration #  4     ecut=    30.00 Ry     beta=0.70
     Davidson diagonalization with overlap
     ethr =  3.29E-08,  avg # of iterations =  2.0

     total cpu time spent up to now is        4.4 secs

     total energy              =    -329.45691682 Ry
     Harris-Foulkes estimate   =    -329.45691801 Ry
     estimated scf accuracy    <       0.00000389 Ry

     iteration #  5     ecut=    30.00 Ry     beta=0.70
     Davidson diagonalization with overlap
     ethr =  7.08E-09,  avg # of iterations =  3.0

     total cpu time spent up to now is        4.7 secs

     total energy              =    -329.45691745 Ry
     Harris-Foulkes estimate   =    -329.45691827 Ry
     estimated scf accuracy    <       0.00000231 Ry

     iteration #  6     ecut=    30.00 Ry     beta=0.70
     Davidson diagonalization with overlap
     ethr =  4.19E-09,  avg # of iterations =  2.0

     total cpu time spent up to now is        4.9 secs

     total energy              =    -329.45691766 Ry
     Harris-Foulkes estimate   =    -329.45691785 Ry
     estimated scf accuracy    <       0.00000007 Ry

     iteration #  7     ecut=    30.00 Ry     beta=0.70
     Davidson diagonalization with overlap
     ethr =  1.35E-10,  avg # of iterations =  3.0

     total cpu time spent up to now is        5.1 secs

     total energy              =    -329.45691768 Ry
     Harris-Foulkes estimate   =    -329.45691770 Ry
     estimated scf accuracy    <       0.00000002 Ry

     iteration #  8     ecut=    30.00 Ry     beta=0.70
     Davidson diagonalization with overlap
     ethr =  3.57E-11,  avg # of iterations =  3.0

     total cpu time spent up to now is        5.3 secs

     End of self-consistent calculation

          k = 0.0000 0.0000 0.0000 ( 22119 PWs)   bands (ev):

    -8.1942  -7.7159  -7.4255  -7.1695  -7.0606  -6.8320  -6.6814  -6.4446
    -6.4235  -6.0454  -5.9830  -5.7195  -5.6332  -5.5258  -5.4602  -5.3718
    -5.3273  -5.2137  -5.1550  -5.1171  -5.0673  -5.0271  -4.9320  -4.9026
    -4.6792  -4.5199  -4.3241  -3.6312  -2.6381  -2.2643  -0.3646  -0.0883
     0.2836   0.5531

     the Fermi energy is    -3.6009 ev

!    total energy              =    -329.45691764 Ry
     Harris-Foulkes estimate   =    -329.45691768 Ry
     estimated scf accuracy    <          4.1E-09 Ry

     The total energy is the sum of the following terms:

     one-electron contribution =    -613.42358088 Ry
     hartree contribution      =     328.25960894 Ry
     xc contribution           =     -51.39687374 Ry
     ewald contribution        =       7.10769970 Ry
     smearing contrib. (-TS)   =      -0.00377167 Ry

     convergence has been achieved in   8 iterations

     Forces acting on atoms (Ry/au):

     atom    1 type  1   force =    -0.00150589    0.00949805    0.00254593
     atom    2 type  1   force =    -0.00882558   -0.00143653   -0.00605209
     atom    3 type  1   force =    -0.00438074   -0.01133982   -0.00092908
     atom    4 type  1   force =     0.00163362   -0.00262813    0.00290235
     atom    5 type  1   force =     0.01307859    0.00590644    0.00153290

     Total force =     0.024300     Total SCF correction =     0.000238

     number of scf cycles    =   2
     number of bfgs steps    =   1

     energy   old            =    -329.4561945744 Ry
     energy   new            =    -329.4569176423 Ry

     CASE: energy  _new < energy  _old


     WARNING: bfgs curvature condition failed, Theta= 0.929
     new trust radius        =       0.0168715330 bohr
     new conv_thr            =       0.0000000007 Ry


ATOMIC_POSITIONS (bohr)
Au      -1.588260889   0.787832210  -0.302031504
Au      -0.113919579   2.936612978   4.187858958
Au       3.055169918   2.949976220   0.016957769
Au       4.504717557   4.748238894   5.432969996
Au       6.633622993   0.809638698   2.930539781



     Writing output data file pwscf.save
     Check: negative starting charge=   -0.006242
     NEW-OLD atomic charge density approx. for the potential
     Check: negative starting charge=   -0.006234

     negative rho (up, down):  4.661E-05 0.000E+00

     total cpu time spent up to now is        5.5 secs

     per-process dynamical memory:    50.6 Mb

     Self-consistent Calculation

     iteration #  1     ecut=    30.00 Ry     beta=0.70
     Davidson diagonalization with overlap
     ethr =  1.00E-06,  avg # of iterations =  4.0

     negative rho (up, down):  1.736E-07 0.000E+00

     total cpu time spent up to now is        5.9 secs

     total energy              =    -329.45753160 Ry
     Harris-Foulkes estimate   =    -329.45756507 Ry
     estimated scf accuracy    <       0.00008750 Ry

     iteration #  2     ecut=    30.00 Ry     beta=0.70
     Davidson diagonalization with overlap
     ethr =  1.59E-07,  avg # of iterations =  3.0

     negative rho (up, down):  1.497E-08 0.000E+00

     total cpu time spent up to now is        6.1 secs

     total energy              =    -329.45752634 Ry
     Harris-Foulkes estimate   =    -329.45761284 Ry
     estimated scf accuracy    <       0.00021333 Ry

     iteration #  3     ecut=    30.00 Ry     beta=0.70
     Davidson diagonalization with overlap
     ethr =  1.59E-07,  avg # of iterations =  3.0

     total cpu time spent up to now is        6.3 secs

     total energy              =    -329.45756733 Ry
     Harris-Foulkes estimate   =    -329.45757485 Ry
     estimated scf accuracy    <       0.00002161 Ry

     iteration #  4     ecut=    30.00 Ry     beta=0.70
     Davidson diagonalization with overlap
     ethr =  3.93E-08,  avg # of iterations =  2.0

     total cpu time spent up to now is        6.5 secs

     total energy              =    -329.45757147 Ry
     Harris-Foulkes estimate   =    -329.45757283 Ry
     estimated scf accuracy    <       0.00000380 Ry

     iteration #  5     ecut=    30.00 Ry     beta=0.70
     Davidson diagonalization with overlap
     ethr =  6.91E-09,  avg # of iterations =  3.0

     total cpu time spent up to now is        6.8 secs

     total energy              =    -329.45757251 Ry
     Harris-Foulkes estimate   =    -329.45757295 Ry
     estimated scf accuracy    <       0.00000247 Ry

     iteration #  6     ecut=    30.00 Ry     beta=0.70
     Davidson diagonalization with overlap
     ethr =  4.48E-09,  avg # of iterations =  2.0

     total cpu time spent up to now is        7.0 secs

     total energy              =    -329.45757279 Ry
     Harris-Foulkes estimate   =    -329.45757294 Ry
     estimated scf accuracy    <       0.00000009 Ry

     iteration #  7     ecut=    30.00 Ry     beta=0.70
     Davidson diagonalization with overlap
     ethr =  1.68E-10,  avg # of iterations =  3.0

     total cpu time spent up to now is        7.2 secs

     total energy              =    -329.45757280 Ry
     Harris-Foulkes estimate   =    -329.45757283 Ry
     estimated scf accuracy    <       0.00000002 Ry

     iteration #  8     ecut=    30.00 Ry     beta=0.70
     Davidson diagonalization with overlap
     ethr =  3.09E-11,  avg # of iterations =  3.0

     total cpu time spent up to now is        7.4 secs

     total energy              =    -329.45757281 Ry
     Harris-Foulkes estimate   =    -329.45757280 Ry
     estimated scf accuracy    <          4.6E-09 Ry

     iteration #  9     ecut=    30.00 Ry     beta=0.70
     Davidson diagonalization with overlap
     ethr =  8.33E-12,  avg # of iterations =  2.0

     total cpu time spent up to now is        7.6 secs

     End of self-consistent calculation

          k = 0.0000 0.0000 0.0000 ( 22119 PWs)   bands (ev):

    -8.1925  -7.7273  -7.4207  -7.1641  -7.0597  -6.8340  -6.6815  -6.4398
    -6.4244  -6.0467  -5.9843  -5.7189  -5.6342  -5.5297  -5.4655  -5.3731
    -5.3287  -5.2082  -5.1566  -5.1181  -5.0685  -5.0340  -4.9355  -4.9042
    -4.6796  -4.5177  -4.3304  -3.6277  -2.6346  -2.2641  -0.3680  -0.0871
     0.2814   0.5558

     the Fermi energy is    -3.5962 ev

!    total energy              =    -329.45757281 Ry
     Harris-Foulkes estimate   =    -329.45757281 Ry
     estimated scf accuracy    <          5.7E-10 Ry

     The total energy is the sum of the following terms:

     one-electron contribution =    -613.34902251 Ry
     hartree contribution      =     328.22084024 Ry
     xc contribution           =     -51.39714982 Ry
     ewald contribution        =       7.07180378 Ry
     smearing contrib. (-TS)   =      -0.00404451 Ry

     convergence has been achieved in   9 iterations

     Forces acting on atoms (Ry/au):

     atom    1 type  1   force =    -0.00274419    0.00808503    0.00104238
     atom    2 type  1   force =    -0.00745452   -0.00027482   -0.00403455
     atom    3 type  1   force =    -0.00203586   -0.01092463   -0.00034676
     atom    4 type  1   force =     0.00021027   -0.00312712    0.00245356
     atom    5 type  1   force =     0.01202430    0.00624154    0.00088537

     Total force =     0.021672     Total SCF correction =     0.000094

     number of scf cycles    =   3
     number of bfgs steps    =   2

     energy   old            =    -329.4569176423 Ry
     energy   new            =    -329.4575728142 Ry

     CASE: energy  _new < energy  _old

     new trust radius        =       0.0253072995 bohr
     new conv_thr            =       0.0000000007 Ry


ATOMIC_POSITIONS (bohr)
Au      -1.592106803   0.803692859  -0.298862892
Au      -0.128685673   2.935123847   4.178764961
Au       3.049415439   2.929789641   0.015842728
Au       4.506388678   4.743069577   5.437837129
Au       6.656318359   0.820623075   2.932713074



     Writing output data file pwscf.save
     Check: negative starting charge=   -0.006234
     NEW-OLD atomic charge density approx. for the potential
     Check: negative starting charge=   -0.006221

     negative rho (up, down):  1.305E-04 0.000E+00

     total cpu time spent up to now is        7.9 secs

     per-process dynamical memory:    50.6 Mb

     Self-consistent Calculation

     iteration #  1     ecut=    30.00 Ry     beta=0.70
     Davidson diagonalization with overlap
     ethr =  1.00E-06,  avg # of iterations =  4.0

     negative rho (up, down):  1.508E-06 0.000E+00

     total cpu time spent up to now is        8.2 secs

     total energy              =    -329.45832109 Ry
     Harris-Foulkes estimate   =    -329.45837671 Ry
     estimated scf accuracy    <       0.00017592 Ry

     iteration #  2     ecut=    30.00 Ry     beta=0.70
     Davidson diagonalization with overlap
     ethr =  3.20E-07,  avg # of iterations =  3.0

     negative rho (up, down):  2.057E-07 0.000E+00

     total cpu time spent up to now is        8.5 secs

     total energy              =    -329.45832085 Ry
     Harris-Foulkes estimate   =    -329.45846815 Ry
     estimated scf accuracy    <       0.00034765 Ry

     iteration #  3     ecut=    30.00 Ry     beta=0.70
     Davidson diagonalization with overlap
     ethr =  3.20E-07,  avg # of iterations =  3.0

     total cpu time spent up to now is        8.7 secs

     total energy              =    -329.45838818 Ry
     Harris-Foulkes estimate   =    -329.45840555 Ry
     estimated scf accuracy    <       0.00004525 Ry

     iteration #  4     ecut=    30.00 Ry     beta=0.70
     Davidson diagonalization with overlap
     ethr =  8.23E-08,  avg # of iterations =  2.0

     total cpu time spent up to now is        8.9 secs

     total energy              =    -329.45839817 Ry
     Harris-Foulkes estimate   =    -329.45839977 Ry
     estimated scf accuracy    <       0.00000740 Ry

     iteration #  5     ecut=    30.00 Ry     beta=0.70
     Davidson diagonalization with overlap
     ethr =  1.35E-08,  avg # of iterations =  2.0

     total cpu time spent up to now is        9.1 secs

     total energy              =    -329.45839950 Ry
     Harris-Foulkes estimate   =    -329.45840090 Ry
     estimated scf accuracy    <       0.00000458 Ry

     iteration #  6     ecut=    30.00 Ry     beta=0.70
     Davidson diagonalization with overlap
     ethr =  8.33E-09,  avg # of iterations =  2.0

     total cpu time spent up to now is        9.3 secs

     total energy              =    -329.45840042 Ry
     Harris-Foulkes estimate   =    -329.45840032 Ry
     estimated scf accuracy    <       0.00000020 Ry

     iteration #  7     ecut=    30.00 Ry     beta=0.70
     Davidson diagonalization with overlap
     ethr =  3.67E-10,  avg # of iterations =  3.0

     total cpu time spent up to now is        9.5 secs

     total energy              =    -329.45840047 Ry
     Harris-Foulkes estimate   =    -329.45840049 Ry
     estimated scf accuracy    <       0.00000003 Ry

     iteration #  8     ecut=    30.00 Ry     beta=0.70
     Davidson diagonalization with overlap
     ethr =  5.66E-11,  avg # of iterations =  3.0

     total cpu time spent up to now is        9.8 secs

     total energy              =    -329.45840047 Ry
     Harris-Foulkes estimate   =    -329.45840048 Ry
     estimated scf accuracy    <          8.6E-09 Ry

     iteration #  9     ecut=    30.00 Ry     beta=0.70
     Davidson diagonalization with overlap
     ethr =  1.56E-11,  avg # of iterations =  2.0

     total cpu time spent up to now is       10.0 secs

     total energy              =    -329.45840050 Ry
     Harris-Foulkes estimate   =    -329.45840047 Ry
     estimated scf accuracy    <          9.1E-10 Ry

     iteration # 10     ecut=    30.00 Ry     beta=0.70
     Davidson diagonalization with overlap
     ethr =  1.66E-12,  avg # of iterations =  2.0

     total cpu time spent up to now is       10.2 secs

     End of self-consistent calculation

          k = 0.0000 0.0000 0.0000 ( 22119 PWs)   bands (ev):

    -8.1924  -7.7381  -7.4168  -7.1588  -7.0600  -6.8361  -6.6813  -6.4332
    -6.4251  -6.0485  -5.9862  -5.7186  -5.6359  -5.5347  -5.4714  -5.3741
    -5.3295  -5.2017  -5.1588  -5.1201  -5.0704  -5.0422  -4.9390  -4.9056
    -4.6804  -4.5153  -4.3385  -3.6245  -2.6294  -2.2637  -0.3729  -0.0863
     0.2793   0.5590

     the Fermi energy is    -3.5917 ev

!    total energy              =    -329.45840050 Ry
     Harris-Foulkes estimate   =    -329.45840050 Ry
     estimated scf accuracy    <          2.3E-10 Ry

     The total energy is the sum of the following terms:

     one-electron contribution =    -613.19960039 Ry
     hartree contribution      =     328.14416496 Ry
     xc contribution           =     -51.39756368 Ry
     ewald contribution        =       6.99893574 Ry
     smearing contrib. (-TS)   =      -0.00433712 Ry

     convergence has been achieved in  10 iterations

     Forces acting on atoms (Ry/au):

     atom    1 type  1   force =    -0.00408819    0.00638008   -0.00088416
     atom    2 type  1   force =    -0.00585772    0.00126363   -0.00162019
     atom    3 type  1   force =     0.00075794   -0.01069902    0.00046150
     atom    4 type  1   force =    -0.00141577   -0.00350570    0.00194783
     atom    5 type  1   force =     0.01060374    0.00656101    0.00009502

     Total force =     0.019636     Total SCF correction =     0.000062

     number of scf cycles    =   4
     number of bfgs steps    =   3

     energy   old            =    -329.4575728142 Ry
     energy   new            =    -329.4584004990 Ry

     CASE: energy  _new < energy  _old

     new trust radius        =       0.0379609493 bohr
     new conv_thr            =       0.0000000008 Ry


ATOMIC_POSITIONS (bohr)
Au      -1.599667768   0.826348151  -0.296286053
Au      -0.149805419   2.934699991   4.167491431
Au       3.043800603   2.898522756   0.015113202
Au       4.507070730   4.734633689   5.444830438
Au       6.689931853   0.838094413   2.935145982



     Writing output data file pwscf.save
     Check: negative starting charge=   -0.006221
     NEW-OLD atomic charge density approx. for the potential
     Check: negative starting charge=   -0.006205

     negative rho (up, down):  3.235E-04 0.000E+00

     total cpu time spent up to now is       10.4 secs

     per-process dynamical memory:    50.7 Mb

     Self-consistent Calculation

     iteration #  1     ecut=    30.00 Ry     beta=0.70
     Davidson diagonalization with overlap
     ethr =  1.00E-06,  avg # of iterations =  4.0

     negative rho (up, down):  9.008E-06 0.000E+00

     total cpu time spent up to now is       10.8 secs

     total energy              =    -329.45929765 Ry
     Harris-Foulkes estimate   =    -329.45934788 Ry
     estimated scf accuracy    <       0.00037580 Ry

     iteration #  2     ecut=    30.00 Ry     beta=0.70
     Davidson diagonalization with overlap
     ethr =  6.83E-07,  avg # of iterations =  6.0

     negative rho (up, down):  1.739E-06 0.000E+00

     total cpu time spent up to now is       11.1 secs

     total energy              =    -329.45931526 Ry
     Harris-Foulkes estimate   =    -329.45958691 Ry
     estimated scf accuracy    <       0.00061655 Ry

     iteration #  3     ecut=    30.00 Ry     beta=0.70
     Davidson diagonalization with overlap
     ethr =  6.83E-07,  avg # of iterations =  2.0

     negative rho (up, down):  5.247E-08 0.000E+00

     total cpu time spent up to now is       11.3 secs

     total energy              =    -329.45943693 Ry
     Harris-Foulkes estimate   =    -329.45947181 Ry
     estimated scf accuracy    <       0.00009107 Ry

     iteration #  4     ecut=    30.00 Ry     beta=0.70
     Davidson diagonalization with overlap
     ethr =  1.66E-07,  avg # of iterations =  2.0

     total cpu time spent up to now is       11.5 secs

     total energy              =    -329.45945770 Ry
     Harris-Foulkes estimate   =    -329.45946135 Ry
     estimated scf accuracy    <       0.00001544 Ry

     iteration #  5     ecut=    30.00 Ry     beta=0.70
     Davidson diagonalization with overlap
     ethr =  2.81E-08,  avg # of iterations =  2.0

     total cpu time spent up to now is       11.7 secs

     total energy              =    -329.45945988 Ry
     Harris-Foulkes estimate   =    -329.45946303 Ry
     estimated scf accuracy    <       0.00000843 Ry

     iteration #  6     ecut=    30.00 Ry     beta=0.70
     Davidson diagonalization with overlap
     ethr =  1.53E-08,  avg # of iterations =  2.0

     total cpu time spent up to now is       11.9 secs

     total energy              =    -329.45946133 Ry
     Harris-Foulkes estimate   =    -329.45946144 Ry
     estimated scf accuracy    <       0.00000049 Ry

     iteration #  7     ecut=    30.00 Ry     beta=0.70
     Davidson diagonalization with overlap
     ethr =  8.97E-10,  avg # of iterations =  3.0

     total cpu time spent up to now is       12.1 secs

     total energy              =    -329.45946142 Ry
     Harris-Foulkes estimate   =    -329.45946149 Ry
     estimated scf accuracy    <       0.00000007 Ry

     iteration #  8     ecut=    30.00 Ry     beta=0.70
     Davidson diagonalization with overlap
     ethr =  1.23E-10,  avg # of iterations =  2.0

     total cpu time spent up to now is       12.4 secs

     total energy              =    -329.45946142 Ry
     Harris-Foulkes estimate   =    -329.45946144 Ry
     estimated scf accuracy    <       0.00000002 Ry

     iteration #  9     ecut=    30.00 Ry     beta=0.70
     Davidson diagonalization with overlap
     ethr =  3.55E-11,  avg # of iterations =  2.0

     total cpu time spent up to now is       12.6 secs

     total energy              =    -329.45946139 Ry
     Harris-Foulkes estimate   =    -329.45946143 Ry
     estimated scf accuracy    <          2.1E-09 Ry

     iteration # 10     ecut=    30.00 Ry     beta=0.70
     Davidson diagonalization with overlap
     ethr =  3.87E-12,  avg # of iterations =  2.0

     total cpu time spent up to now is       12.8 secs

     End of self-consistent calculation

          k = 0.0000 0.0000 0.0000 ( 22119 PWs)   bands (ev):

    -8.1954  -7.7465  -7.4145  -7.1536  -7.0622  -6.8382  -6.6803  -6.4284
    -6.4206  -6.0512  -5.9884  -5.7191  -5.6387  -5.5418  -5.4776  -5.3743
    -5.3296  -5.1938  -5.1617  -5.1238  -5.0733  -5.0519  -4.9425  -4.9070
    -4.6820  -4.5127  -4.3492  -3.6221  -2.6213  -2.2633  -0.3799  -0.0863
     0.2776   0.5630

     the Fermi energy is    -3.5879 ev

!    total energy              =    -329.45946138 Ry
     Harris-Foulkes estimate   =    -329.45946139 Ry
     estimated scf accuracy    <          5.9E-10 Ry

     The total energy is the sum of the following terms:

     one-electron contribution =    -612.92100135 Ry
     hartree contribution      =     328.00217693 Ry
     xc contribution           =     -51.39811830 Ry
     ewald contribution        =       6.86212821 Ry
     smearing contrib. (-TS)   =      -0.00464686 Ry

     convergence has been achieved in  10 iterations

     Forces acting on atoms (Ry/au):

     atom    1 type  1   force =    -0.00571308    0.00449666   -0.00336295
     atom    2 type  1   force =    -0.00390931    0.00328409    0.00127413
     atom    3 type  1   force =     0.00407795   -0.01078882    0.00157789
     atom    4 type  1   force =    -0.00324070   -0.00376759    0.00130550
     atom    5 type  1   force =     0.00878514    0.00677566   -0.00079457

     Total force =     0.019429     Total SCF correction =     0.000095

     number of scf cycles    =   5
     number of bfgs steps    =   4

     energy   old            =    -329.4584004990 Ry
     energy   new            =    -329.4594613822 Ry

     CASE: energy  _new < energy  _old

     new trust radius        =       0.0569414240 bohr
     new conv_thr            =       0.0000000011 Ry


ATOMIC_POSITIONS (bohr)
Au      -1.613211375   0.859346635  -0.295258184
Au      -0.180326718   2.936487286   4.153341959
Au       3.038902846   2.849722357   0.015362354
Au       4.506107356   4.721407136   5.454939725
Au       6.739857891   0.865335586   2.937909146



     Writing output data file pwscf.save
     Check: negative starting charge=   -0.006205
     NEW-OLD atomic charge density approx. for the potential
     Check: negative starting charge=   -0.006185

     negative rho (up, down):  7.159E-04 0.000E+00

     total cpu time spent up to now is       13.0 secs

     per-process dynamical memory:    50.7 Mb

     Self-consistent Calculation

     iteration #  1     ecut=    30.00 Ry     beta=0.70
     Davidson diagonalization with overlap
     ethr =  1.00E-06,  avg # of iterations =  5.0

     negative rho (up, down):  3.697E-05 0.000E+00

     total cpu time spent up to now is       13.4 secs

     total energy              =    -329.46045938 Ry
     Harris-Foulkes estimate   =    -329.46034729 Ry
     estimated scf accuracy    <       0.00083954 Ry

     iteration #  2     ecut=    30.00 Ry     beta=0.70
     Davidson diagonalization with overlap
     ethr =  1.53E-06,  avg # of iterations =  6.0

     negative rho (up, down):  9.682E-06 0.000E+00

     total cpu time spent up to now is       13.7 secs

     total energy              =    -329.46052892 Ry
     Harris-Foulkes estimate   =    -329.46106673 Ry
     estimated scf accuracy    <       0.00120149 Ry

     iteration #  3     ecut=    30.00 Ry     beta=0.70
     Davidson diagonalization with overlap
     ethr =  1.53E-06,  avg # of iterations =  2.0

     negative rho (up, down):  6.931E-07 0.000E+00

     total cpu time spent up to now is       13.9 secs

     total energy              =    -329.46076565 Ry
     Harris-Foulkes estimate   =    -329.46083849 Ry
     estimated scf accuracy    <       0.00018019 Ry

     iteration #  4     ecut=    30.00 Ry     beta=0.70
     Davidson diagonalization with overlap
     ethr =  3.28E-07,  avg # of iterations =  2.0

     total cpu time spent up to now is       14.1 secs

     total energy              =    -329.46080648 Ry
     Harris-Foulkes estimate   =    -329.46081719 Ry
     estimated scf accuracy    <       0.00003517 Ry

     iteration #  5     ecut=    30.00 Ry     beta=0.70
     Davidson diagonalization with overlap
     ethr =  6.39E-08,  avg # of iterations =  2.0

     total cpu time spent up to now is       14.3 secs

     total energy              =    -329.46081244 Ry
     Harris-Foulkes estimate   =    -329.46081684 Ry
     estimated scf accuracy    <       0.00001333 Ry

     iteration #  6     ecut=    30.00 Ry     beta=0.70
     Davidson diagonalization with overlap
     ethr =  2.42E-08,  avg # of iterations =  2.0

     total cpu time spent up to now is       14.5 secs

     total energy              =    -329.46081458 Ry
     Harris-Foulkes estimate   =    -329.46081512 Ry
     estimated scf accuracy    <       0.00000111 Ry

     iteration #  7     ecut=    30.00 Ry     beta=0.70
     Davidson diagonalization with overlap
     ethr =  2.03E-09,  avg # of iterations =  2.0

     total cpu time spent up to now is       14.7 secs

     total energy              =    -329.46081497 Ry
     Harris-Foulkes estimate   =    -329.46081491 Ry
     estimated scf accuracy    <       0.00000016 Ry

     iteration #  8     ecut=    30.00 Ry     beta=0.70
     Davidson diagonalization with overlap
     ethr =  2.83E-10,  avg # of iterations =  2.0

     total cpu time spent up to now is       15.0 secs

     total energy              =    -329.46081501 Ry
     Harris-Foulkes estimate   =    -329.46081501 Ry
     estimated scf accuracy    <       0.00000003 Ry

     iteration #  9     ecut=    30.00 Ry     beta=0.70
     Davidson diagonalization with overlap
     ethr =  6.28E-11,  avg # of iterations =  2.0

     total cpu time spent up to now is       15.2 secs

     total energy              =    -329.46081499 Ry
     Harris-Foulkes estimate   =    -329.46081502 Ry
     estimated scf accuracy    <          3.4E-09 Ry

     iteration # 10     ecut=    30.00 Ry     beta=0.70
     Davidson diagonalization with overlap
     ethr =  6.13E-12,  avg # of iterations =  2.0

     total cpu time spent up to now is       15.4 secs

     total energy              =    -329.46081498 Ry
     Harris-Foulkes estimate   =    -329.46081499 Ry
     estimated scf accuracy    <          1.2E-09 Ry

     iteration # 11     ecut=    30.00 Ry     beta=0.70
     Davidson diagonalization with overlap
     ethr =  2.11E-12,  avg # of iterations =  2.0

     total cpu time spent up to now is       15.6 secs

     End of self-consistent calculation

          k = 0.0000 0.0000 0.0000 ( 22119 PWs)   bands (ev):

    -8.2042  -7.7494  -7.4154  -7.1485  -7.0664  -6.8397  -6.6775  -6.4297
    -6.4053  -6.0559  -5.9893  -5.7213  -5.6434  -5.5516  -5.4831  -5.3728
    -5.3291  -5.1847  -5.1660  -5.1296  -5.0782  -5.0627  -4.9461  -4.9082
    -4.6850  -4.5101  -4.3638  -3.6213  -2.6094  -2.2632  -0.3900  -0.0876
     0.2769   0.5678

     the Fermi energy is    -3.5858 ev

!    total energy              =    -329.46081497 Ry
     Harris-Foulkes estimate   =    -329.46081498 Ry
     estimated scf accuracy    <          5.1E-11 Ry

     The total energy is the sum of the following terms:

     one-electron contribution =    -612.41319874 Ry
     hartree contribution      =     327.74446710 Ry
     xc contribution           =     -51.39871291 Ry
     ewald contribution        =       6.61160139 Ry
     smearing contrib. (-TS)   =      -0.00497181 Ry

     convergence has been achieved in  11 iterations

     Forces acting on atoms (Ry/au):

     atom    1 type  1   force =    -0.00832992    0.00215580   -0.00652297
     atom    2 type  1   force =    -0.00123006    0.00537115    0.00472229
     atom    3 type  1   force =     0.00771851   -0.00952327    0.00333712
     atom    4 type  1   force =    -0.00523515   -0.00443811    0.00033836
     atom    5 type  1   force =     0.00707662    0.00643444   -0.00187481

     Total force =     0.021745     Total SCF correction =     0.000031

     number of scf cycles    =   6
     number of bfgs steps    =   5

     energy   old            =    -329.4594613822 Ry
     energy   new            =    -329.4608149696 Ry

     CASE: energy  _new < energy  _old

     new trust radius        =       0.0854121360 bohr
     new conv_thr            =       0.0000000010 Ry


ATOMIC_POSITIONS (bohr)
Au      -1.637614881   0.907185324  -0.297939267
Au      -0.223799688   2.941945517   4.135968763
Au       3.035902097   2.776403873   0.018269612
Au       4.502222093   4.700227856   5.469206846
Au       6.814620379   0.906536430   2.940789046



     Writing output data file pwscf.save
     Check: negative starting charge=   -0.006185
     NEW-OLD atomic charge density approx. for the potential
     Check: negative starting charge=   -0.006154

     negative rho (up, down):  1.420E-03 0.000E+00

     total cpu time spent up to now is       15.9 secs

     per-process dynamical memory:    50.7 Mb

     Self-consistent Calculation

     iteration #  1     ecut=    30.00 Ry     beta=0.70
     Davidson diagonalization with overlap
     ethr =  1.00E-06,  avg # of iterations =  6.0

     negative rho (up, down):  1.123E-04 0.000E+00

     total cpu time spent up to now is       16.3 secs

     total energy              =    -329.46177192 Ry
     Harris-Foulkes estimate   =    -329.46132489 Ry
     estimated scf accuracy    <       0.00186425 Ry

     iteration #  2     ecut=    30.00 Ry     beta=0.70
     Davidson diagonalization with overlap
     ethr =  3.39E-06,  avg # of iterations =  6.0

     negative rho (up, down):  3.620E-05 0.000E+00

     total cpu time spent up to now is       16.6 secs

     total energy              =    -329.46198263 Ry
     Harris-Foulkes estimate   =    -329.46304900 Ry
     estimated scf accuracy    <       0.00236227 Ry

     iteration #  3     ecut=    30.00 Ry     beta=0.70
     Davidson diagonalization with overlap
     ethr =  3.39E-06,  avg # of iterations =  2.0

     negative rho (up, down):  4.151E-06 0.000E+00

     total cpu time spent up to now is       16.8 secs

     total energy              =    -329.46245304 Ry
     Harris-Foulkes estimate   =    -329.46259236 Ry
     estimated scf accuracy    <       0.00034151 Ry

     iteration #  4     ecut=    30.00 Ry     beta=0.70
     Davidson diagonalization with overlap
     ethr =  6.21E-07,  avg # of iterations =  2.0

     total cpu time spent up to now is       17.0 secs

     total energy              =    -329.46253446 Ry
     Harris-Foulkes estimate   =    -329.46255931 Ry
     estimated scf accuracy    <       0.00008086 Ry

     iteration #  5     ecut=    30.00 Ry     beta=0.70
     Davidson diagonalization with overlap
     ethr =  1.47E-07,  avg # of iterations =  2.0

     total cpu time spent up to now is       17.2 secs

     total energy              =    -329.46254718 Ry
     Harris-Foulkes estimate   =    -329.46255504 Ry
     estimated scf accuracy    <       0.00001969 Ry

     iteration #  6     ecut=    30.00 Ry     beta=0.70
     Davidson diagonalization with overlap
     ethr =  3.58E-08,  avg # of iterations =  2.0

     total cpu time spent up to now is       17.4 secs

     total energy              =    -329.46255067 Ry
     Harris-Foulkes estimate   =    -329.46255150 Ry
     estimated scf accuracy    <       0.00000211 Ry

     iteration #  7     ecut=    30.00 Ry     beta=0.70
     Davidson diagonalization with overlap
     ethr =  3.83E-09,  avg # of iterations =  2.0

     total cpu time spent up to now is       17.6 secs

     total energy              =    -329.46255120 Ry
     Harris-Foulkes estimate   =    -329.46255136 Ry
     estimated scf accuracy    <       0.00000045 Ry

     iteration #  8     ecut=    30.00 Ry     beta=0.70
     Davidson diagonalization with overlap
     ethr =  8.16E-10,  avg # of iterations =  2.0

     total cpu time spent up to now is       17.8 secs

     total energy              =    -329.46255123 Ry
     Harris-Foulkes estimate   =    -329.46255130 Ry
     estimated scf accuracy    <       0.00000005 Ry

     iteration #  9     ecut=    30.00 Ry     beta=0.70
     Davidson diagonalization with overlap
     ethr =  8.50E-11,  avg # of iterations =  2.0

     total cpu time spent up to now is       18.1 secs

     total energy              =    -329.46255129 Ry
     Harris-Foulkes estimate   =    -329.46255124 Ry
     estimated scf accuracy    <          4.4E-09 Ry

     iteration # 10     ecut=    30.00 Ry     beta=0.70
     Davidson diagonalization with overlap
     ethr =  8.00E-12,  avg # of iterations =  3.0

     total cpu time spent up to now is       18.3 secs

     total energy              =    -329.46255129 Ry
     Harris-Foulkes estimate   =    -329.46255129 Ry
     estimated scf accuracy    <          2.2E-09 Ry

     iteration # 11     ecut=    30.00 Ry     beta=0.70
     Davidson diagonalization with overlap
     ethr =  3.93E-12,  avg # of iterations =  2.0

     total cpu time spent up to now is       18.5 secs

     End of self-consistent calculation

          k = 0.0000 0.0000 0.0000 ( 22119 PWs)   bands (ev):

    -8.2201  -7.7418  -7.4205  -7.1424  -7.0718  -6.8382  -6.6701  -6.4317
    -6.3820  -6.0644  -5.9842  -5.7254  -5.6510  -5.5637  -5.4864  -5.3688
    -5.3286  -5.1765  -5.1727  -5.1371  -5.0859  -5.0739  -4.9503  -4.9097
    -4.6923  -4.5094  -4.3845  -3.6236  -2.5948  -2.2640  -0.4040  -0.0914
     0.2789   0.5723

     the Fermi energy is    -3.5866 ev

!    total energy              =    -329.46255132 Ry
     Harris-Foulkes estimate   =    -329.46255129 Ry
     estimated scf accuracy    <          1.0E-10 Ry

     The total energy is the sum of the following terms:

     one-electron contribution =    -611.43820602 Ry
     hartree contribution      =     327.25214449 Ry
     xc contribution           =     -51.39867789 Ry
     ewald contribution        =       6.12750379 Ry
     smearing contrib. (-TS)   =      -0.00531569 Ry

     convergence has been achieved in  11 iterations

     Forces acting on atoms (Ry/au):

     atom    1 type  1   force =    -0.01244584   -0.00067466   -0.00997048
     atom    2 type  1   force =     0.00254719    0.00802049    0.00880641
     atom    3 type  1   force =     0.01122133   -0.00915643    0.00585641
     atom    4 type  1   force =    -0.00779304   -0.00490291   -0.00101251
     atom    5 type  1   force =     0.00647036    0.00671350   -0.00367983

     Total force =     0.028870     Total SCF correction =     0.000046

     number of scf cycles    =   7
     number of bfgs steps    =   6

     energy   old            =    -329.4608149696 Ry
     energy   new            =    -329.4625513184 Ry

     CASE: energy  _new < energy  _old

     new trust radius        =       0.1281182040 bohr
     new conv_thr            =       0.0000000012 Ry


ATOMIC_POSITIONS (bohr)
Au      -1.678909151   0.976115979  -0.305480167
Au      -0.284879887   2.952807914   4.113925217
Au       3.034340685   2.666749522   0.025615229
Au       4.494008158   4.668192587   5.489098843
Au       6.926770195   0.968432998   2.943135878



     Writing output data file pwscf.save
     Check: negative starting charge=   -0.006154
     NEW-OLD atomic charge density approx. for the potential
     Check: negative starting charge=   -0.006166

     negative rho (up, down):  2.657E-03 0.000E+00

     total cpu time spent up to now is       18.7 secs

     per-process dynamical memory:    50.7 Mb

     Self-consistent Calculation

     iteration #  1     ecut=    30.00 Ry     beta=0.70
     Davidson diagonalization with overlap
     ethr =  1.00E-06,  avg # of iterations =  8.0

     negative rho (up, down):  2.788E-04 0.000E+00

     total cpu time spent up to now is       19.2 secs

     total energy              =    -329.46306854 Ry
     Harris-Foulkes estimate   =    -329.46295506 Ry
     estimated scf accuracy    <       0.00411864 Ry

     iteration #  2     ecut=    30.00 Ry     beta=0.70
     Davidson diagonalization with overlap
     ethr =  7.49E-06,  avg # of iterations =  5.0

     negative rho (up, down):  1.045E-04 0.000E+00

     total cpu time spent up to now is       19.5 secs

     total energy              =    -329.46365360 Ry
     Harris-Foulkes estimate   =    -329.46577424 Ry
     estimated scf accuracy    <       0.00473764 Ry

     iteration #  3     ecut=    30.00 Ry     beta=0.70
     Davidson diagonalization with overlap
     ethr =  7.49E-06,  avg # of iterations =  2.0

     negative rho (up, down):  1.766E-05 0.000E+00

     total cpu time spent up to now is       19.7 secs

     total energy              =    -329.46460648 Ry
     Harris-Foulkes estimate   =    -329.46487509 Ry
     estimated scf accuracy    <       0.00066515 Ry

     iteration #  4     ecut=    30.00 Ry     beta=0.70
     Davidson diagonalization with overlap
     ethr =  1.21E-06,  avg # of iterations =  2.0

     total cpu time spent up to now is       19.9 secs

     total energy              =    -329.46476937 Ry
     Harris-Foulkes estimate   =    -329.46482907 Ry
     estimated scf accuracy    <       0.00018976 Ry

     iteration #  5     ecut=    30.00 Ry     beta=0.70
     Davidson diagonalization with overlap
     ethr =  3.45E-07,  avg # of iterations =  2.0

     total cpu time spent up to now is       20.1 secs

     total energy              =    -329.46479912 Ry
     Harris-Foulkes estimate   =    -329.46481494 Ry
     estimated scf accuracy    <       0.00004031 Ry

     iteration #  6     ecut=    30.00 Ry     beta=0.70
     Davidson diagonalization with overlap
     ethr =  7.33E-08,  avg # of iterations =  2.0

     total cpu time spent up to now is       20.3 secs

     total energy              =    -329.46480635 Ry
     Harris-Foulkes estimate   =    -329.46480797 Ry
     estimated scf accuracy    <       0.00000372 Ry

     iteration #  7     ecut=    30.00 Ry     beta=0.70
     Davidson diagonalization with overlap
     ethr =  6.77E-09,  avg # of iterations =  2.0

     total cpu time spent up to now is       20.6 secs

     total energy              =    -329.46480740 Ry
     Harris-Foulkes estimate   =    -329.46480766 Ry
     estimated scf accuracy    <       0.00000116 Ry

     iteration #  8     ecut=    30.00 Ry     beta=0.70
     Davidson diagonalization with overlap
     ethr =  2.10E-09,  avg # of iterations =  2.0

     total cpu time spent up to now is       20.8 secs

     total energy              =    -329.46480749 Ry
     Harris-Foulkes estimate   =    -329.46480763 Ry
     estimated scf accuracy    <       0.00000007 Ry

     iteration #  9     ecut=    30.00 Ry     beta=0.70
     Davidson diagonalization with overlap
     ethr =  1.18E-10,  avg # of iterations =  3.0

     total cpu time spent up to now is       21.0 secs

     total energy              =    -329.46480752 Ry
     Harris-Foulkes estimate   =    -329.46480751 Ry
     estimated scf accuracy    <          5.8E-09 Ry

     iteration # 10     ecut=    30.00 Ry     beta=0.70
     Davidson diagonalization with overlap
     ethr =  1.05E-11,  avg # of iterations =  3.0

     total cpu time spent up to now is       21.2 secs

     total energy              =    -329.46480748 Ry
     Harris-Foulkes estimate   =    -329.46480752 Ry
     estimated scf accuracy    <          3.5E-09 Ry

     iteration # 11     ecut=    30.00 Ry     beta=0.70
     Davidson diagonalization with overlap
     ethr =  6.35E-12,  avg # of iterations =  2.0

     total cpu time spent up to now is       21.4 secs

     End of self-consistent calculation

          k = 0.0000 0.0000 0.0000 ( 22119 PWs)   bands (ev):

    -8.2444  -7.7189  -7.4296  -7.1310  -7.0734  -6.8295  -6.6557  -6.4323
    -6.3485  -6.0754  -5.9681  -5.7309  -5.6639  -5.5754  -5.4859  -5.3621
    -5.3295  -5.1894  -5.1664  -5.1430  -5.0956  -5.0855  -4.9580  -4.9118
    -4.7077  -4.5131  -4.4137  -3.6305  -2.5808  -2.2664  -0.4223  -0.0987
     0.2865   0.5748

     the Fermi energy is    -3.5919 ev

!    total energy              =    -329.46480748 Ry
     Harris-Foulkes estimate   =    -329.46480748 Ry
     estimated scf accuracy    <          2.0E-10 Ry

     The total energy is the sum of the following terms:

     one-electron contribution =    -609.64781423 Ry
     hartree contribution      =     326.35151550 Ry
     xc contribution           =     -51.39711881 Ry
     ewald contribution        =       5.23429585 Ry
     smearing contrib. (-TS)   =      -0.00568579 Ry

     convergence has been achieved in  11 iterations

     Forces acting on atoms (Ry/au):

     atom    1 type  1   force =    -0.01558205   -0.00374991   -0.01373227
     atom    2 type  1   force =     0.00807867    0.01057587    0.01368899
     atom    3 type  1   force =     0.01622286   -0.00847447    0.00831383
     atom    4 type  1   force =    -0.01110090   -0.00626087   -0.00268785
     atom    5 type  1   force =     0.00238143    0.00790939   -0.00558270

     Total force =     0.038511     Total SCF correction =     0.000058

     number of scf cycles    =   8
     number of bfgs steps    =   7

     energy   old            =    -329.4625513184 Ry
     energy   new            =    -329.4648074840 Ry

     CASE: energy  _new < energy  _old

     new trust radius        =       0.1921773059 bohr
     new conv_thr            =       0.0000000016 Ry


ATOMIC_POSITIONS (bohr)
Au      -1.747650858   1.077459500  -0.323221788
Au      -0.369458129   2.973524188   4.087720408
Au       3.039568339   2.499063584   0.041302703
Au       4.476262408   4.616712527   5.516862740
Au       7.092608240   1.065539202   2.943630937



     Writing output data file pwscf.save
     Check: negative starting charge=   -0.006166
     NEW-OLD atomic charge density approx. for the potential
     Check: negative starting charge=   -0.006296

     negative rho (up, down):  4.670E-03 0.000E+00

     total cpu time spent up to now is       21.6 secs

     per-process dynamical memory:    50.7 Mb

     Self-consistent Calculation

     iteration #  1     ecut=    30.00 Ry     beta=0.70
     Davidson diagonalization with overlap
     ethr =  1.00E-06,  avg # of iterations = 18.0

     negative rho (up, down):  5.711E-04 0.000E+00

     total cpu time spent up to now is       22.2 secs

     total energy              =    -329.46383901 Ry
     Harris-Foulkes estimate   =    -329.47266087 Ry
     estimated scf accuracy    <       0.00907325 Ry

     iteration #  2     ecut=    30.00 Ry     beta=0.70
     Davidson diagonalization with overlap
     ethr =  1.65E-05,  avg # of iterations =  5.0

     negative rho (up, down):  2.347E-04 0.000E+00

     total cpu time spent up to now is       22.5 secs

     total energy              =    -329.46535028 Ry
     Harris-Foulkes estimate   =    -329.46972758 Ry
     estimated scf accuracy    <       0.00928897 Ry

     iteration #  3     ecut=    30.00 Ry     beta=0.70
     Davidson diagonalization with overlap
     ethr =  1.65E-05,  avg # of iterations =  2.0

     negative rho (up, down):  4.726E-05 0.000E+00

     total cpu time spent up to now is       22.7 secs

     total energy              =    -329.46724273 Ry
     Harris-Foulkes estimate   =    -329.46776918 Ry
     estimated scf accuracy    <       0.00126524 Ry

     iteration #  4     ecut=    30.00 Ry     beta=0.70
     Davidson diagonalization with overlap
     ethr =  2.30E-06,  avg # of iterations =  3.0

     total cpu time spent up to now is       22.9 secs

     total energy              =    -329.46754603 Ry
     Harris-Foulkes estimate   =    -329.46769270 Ry
     estimated scf accuracy    <       0.00042126 Ry

     iteration #  5     ecut=    30.00 Ry     beta=0.70
     Davidson diagonalization with overlap
     ethr =  7.66E-07,  avg # of iterations =  2.0

     total cpu time spent up to now is       23.1 secs

     total energy              =    -329.46761604 Ry
     Harris-Foulkes estimate   =    -329.46763845 Ry
     estimated scf accuracy    <       0.00005530 Ry

     iteration #  6     ecut=    30.00 Ry     beta=0.70
     Davidson diagonalization with overlap
     ethr =  1.01E-07,  avg # of iterations =  2.0

     total cpu time spent up to now is       23.4 secs

     total energy              =    -329.46762732 Ry
     Harris-Foulkes estimate   =    -329.46762912 Ry
     estimated scf accuracy    <       0.00000328 Ry

     iteration #  7     ecut=    30.00 Ry     beta=0.70
     Davidson diagonalization with overlap
     ethr =  5.96E-09,  avg # of iterations =  2.0

     total cpu time spent up to now is       23.6 secs

     total energy              =    -329.46762768 Ry
     Harris-Foulkes estimate   =    -329.46762899 Ry
     estimated scf accuracy    <       0.00000326 Ry

     iteration #  8     ecut=    30.00 Ry     beta=0.70
     Davidson diagonalization with overlap
     ethr =  5.92E-09,  avg # of iterations =  2.0

     total cpu time spent up to now is       23.8 secs

     total energy              =    -329.46762808 Ry
     Harris-Foulkes estimate   =    -329.46762829 Ry
     estimated scf accuracy    <       0.00000018 Ry

     iteration #  9     ecut=    30.00 Ry     beta=0.70
     Davidson diagonalization with overlap
     ethr =  3.24E-10,  avg # of iterations =  2.0

     total cpu time spent up to now is       24.0 secs

     total energy              =    -329.46762805 Ry
     Harris-Foulkes estimate   =    -329.46762813 Ry
     estimated scf accuracy    <          9.1E-09 Ry

     iteration # 10     ecut=    30.00 Ry     beta=0.70
     Davidson diagonalization with overlap
     ethr =  1.66E-11,  avg # of iterations =  2.0

     total cpu time spent up to now is       24.2 secs

     total energy              =    -329.46762804 Ry
     Harris-Foulkes estimate   =    -329.46762806 Ry
     estimated scf accuracy    <          2.4E-09 Ry

     iteration # 11     ecut=    30.00 Ry     beta=0.70
     Davidson diagonalization with overlap
     ethr =  4.37E-12,  avg # of iterations =  2.0

     total cpu time spent up to now is       24.4 secs

     End of self-consistent calculation

          k = 0.0000 0.0000 0.0000 ( 22119 PWs)   bands (ev):

    -8.2635  -7.6791  -7.4360  -7.1064  -7.0616  -6.8053  -6.6359  -6.4314
    -6.3017  -6.0826  -5.9290  -5.7470  -5.6796  -5.5775  -5.4841  -5.3555
    -5.3322  -5.2144  -5.1616  -5.1442  -5.1053  -5.0986  -4.9729  -4.9164
    -4.7419  -4.5259  -4.4515  -3.6462  -2.5750  -2.2712  -0.4444  -0.1132
     0.3073   0.5720

     the Fermi energy is    -3.6064 ev

!    total energy              =    -329.46762799 Ry
     Harris-Foulkes estimate   =    -329.46762804 Ry
     estimated scf accuracy    <          5.8E-10 Ry

     The total energy is the sum of the following terms:

     one-electron contribution =    -606.48174995 Ry
     hartree contribution      =     324.76391906 Ry
     xc contribution           =     -51.39162003 Ry
     ewald contribution        =       3.64783127 Ry
     smearing contrib. (-TS)   =      -0.00600834 Ry

     convergence has been achieved in  11 iterations

     Forces acting on atoms (Ry/au):

     atom    1 type  1   force =    -0.01651174   -0.00532383   -0.01863444
     atom    2 type  1   force =     0.01480807    0.01340820    0.01764627
     atom    3 type  1   force =     0.01876727   -0.00953615    0.01446131
     atom    4 type  1   force =    -0.01388406   -0.00817274   -0.00504900
     atom    5 type  1   force =    -0.00317955    0.00962452   -0.00842414

     Total force =     0.049696     Total SCF correction =     0.000083

     number of scf cycles    =   9
     number of bfgs steps    =   8

     energy   old            =    -329.4648074840 Ry
     energy   new            =    -329.4676279944 Ry

     CASE: energy  _new < energy  _old

     new trust radius        =       0.2882659589 bohr
     new conv_thr            =       0.0000000019 Ry


ATOMIC_POSITIONS (bohr)
Au      -1.855095248   1.230496839  -0.359050377
Au      -0.487141768   3.010151797   4.054296528
Au       3.051763143   2.239738775   0.076362082
Au       4.444328088   4.534321565   5.555262457
Au       7.337475785   1.217590024   2.939424311



     Writing output data file pwscf.save
     Check: negative starting charge=   -0.006296
     NEW-OLD atomic charge density approx. for the potential
     Check: negative starting charge=   -0.006272

     negative rho (up, down):  7.791E-03 0.000E+00

     total cpu time spent up to now is       24.6 secs

     per-process dynamical memory:    50.7 Mb

     Self-consistent Calculation

     iteration #  1     ecut=    30.00 Ry     beta=0.70
     Davidson diagonalization with overlap
     c_bands:  1 eigenvalues not converged
     ethr =  1.00E-06,  avg # of iterations = 20.0

     negative rho (up, down):  9.855E-04 0.000E+00

     total cpu time spent up to now is       25.3 secs

     total energy              =    -328.59097357 Ry
     Harris-Foulkes estimate   =    -329.98807170 Ry
     estimated scf accuracy    <       0.04085095 Ry

     iteration #  2     ecut=    30.00 Ry     beta=0.70
     Davidson diagonalization with overlap
     ethr =  7.43E-05,  avg # of iterations =  6.0

     negative rho (up, down):  6.101E-04 0.000E+00

     total cpu time spent up to now is       25.6 secs

     total energy              =    -329.45280392 Ry
     Harris-Foulkes estimate   =    -329.50142338 Ry
     estimated scf accuracy    <       0.14610389 Ry

     iteration #  3     ecut=    30.00 Ry     beta=0.70
     Davidson diagonalization with overlap
     ethr =  7.43E-05,  avg # of iterations =  4.0

     negative rho (up, down):  3.017E-04 0.000E+00

     total cpu time spent up to now is       25.9 secs

     total energy              =    -329.47015012 Ry
     Harris-Foulkes estimate   =    -329.47198102 Ry
     estimated scf accuracy    <       0.01202548 Ry

     iteration #  4     ecut=    30.00 Ry     beta=0.70
     Davidson diagonalization with overlap
     ethr =  2.19E-05,  avg # of iterations =  3.0

     negative rho (up, down):  1.050E-04 0.000E+00

     total cpu time spent up to now is       26.1 secs

     total energy              =    -329.47064927 Ry
     Harris-Foulkes estimate   =    -329.47145793 Ry
     estimated scf accuracy    <       0.00705984 Ry

     iteration #  5     ecut=    30.00 Ry     beta=0.70
     Davidson diagonalization with overlap
     ethr =  1.28E-05,  avg # of iterations =  1.0

     negative rho (up, down):  1.320E-05 0.000E+00

     total cpu time spent up to now is       26.2 secs

     total energy              =    -329.47043138 Ry
     Harris-Foulkes estimate   =    -329.47127954 Ry
     estimated scf accuracy    <       0.00336762 Ry

     iteration #  6     ecut=    30.00 Ry     beta=0.70
     Davidson diagonalization with overlap
     ethr =  6.12E-06,  avg # of iterations =  5.0

     total cpu time spent up to now is       26.5 secs

     total energy              =    -329.47045325 Ry
     Harris-Foulkes estimate   =    -329.47087723 Ry
     estimated scf accuracy    <       0.00103138 Ry

     iteration #  7     ecut=    30.00 Ry     beta=0.70
     Davidson diagonalization with overlap
     ethr =  1.88E-06,  avg # of iterations =  2.0

     total cpu time spent up to now is       26.7 secs

     total energy              =    -329.47055647 Ry
     Harris-Foulkes estimate   =    -329.47062862 Ry
     estimated scf accuracy    <       0.00011040 Ry

     iteration #  8     ecut=    30.00 Ry     beta=0.70
     Davidson diagonalization with overlap
     ethr =  2.01E-07,  avg # of iterations =  3.0

     total cpu time spent up to now is       26.9 secs

     total energy              =    -329.47058387 Ry
     Harris-Foulkes estimate   =    -329.47059217 Ry
     estimated scf accuracy    <       0.00001694 Ry

     iteration #  9     ecut=    30.00 Ry     beta=0.70
     Davidson diagonalization with overlap
     ethr =  3.08E-08,  avg # of iterations =  2.0

     total cpu time spent up to now is       27.1 secs

     total energy              =    -329.47058625 Ry
     Harris-Foulkes estimate   =    -329.47058891 Ry
     estimated scf accuracy    <       0.00000514 Ry

     iteration # 10     ecut=    30.00 Ry     beta=0.70
     Davidson diagonalization with overlap
     ethr =  9.34E-09,  avg # of iterations =  2.0

     total cpu time spent up to now is       27.3 secs

     total energy              =    -329.47058718 Ry
     Harris-Foulkes estimate   =    -329.47058749 Ry
     estimated scf accuracy    <       0.00000052 Ry

     iteration # 11     ecut=    30.00 Ry     beta=0.70
     Davidson diagonalization with overlap
     ethr =  9.50E-10,  avg # of iterations =  2.0

     total cpu time spent up to now is       27.5 secs

     total energy              =    -329.47058724 Ry
     Harris-Foulkes estimate   =    -329.47058733 Ry
     estimated scf accuracy    <       0.00000010 Ry

     iteration # 12     ecut=    30.00 Ry     beta=0.70
     Davidson diagonalization with overlap
     ethr =  1.87E-10,  avg # of iterations =  2.0

     total cpu time spent up to now is       27.8 secs

     total energy              =    -329.47058725 Ry
     Harris-Foulkes estimate   =    -329.47058726 Ry
     estimated scf accuracy    <       0.00000001 Ry

     iteration # 13     ecut=    30.00 Ry     beta=0.70
     Davidson diagonalization with overlap
     ethr =  2.30E-11,  avg # of iterations =  2.0

     total cpu time spent up to now is       28.0 secs

     total energy              =    -329.47058721 Ry
     Harris-Foulkes estimate   =    -329.47058725 Ry
     estimated scf accuracy    <          3.3E-09 Ry

     iteration # 14     ecut=    30.00 Ry     beta=0.70
     Davidson diagonalization with overlap
     ethr =  5.92E-12,  avg # of iterations =  2.0

     total cpu time spent up to now is       28.2 secs

     End of self-consistent calculation

          k = 0.0000 0.0000 0.0000 ( 22119 PWs)   bands (ev):

    -8.2563  -7.6233  -7.4252  -7.0530  -7.0128  -6.7510  -6.6091  -6.4125
    -6.2394  -6.0696  -5.8652  -5.7585  -5.6938  -5.5653  -5.4777  -5.3558
    -5.3208  -5.2440  -5.1665  -5.1435  -5.1303  -5.1062  -4.9993  -4.9292
    -4.8217  -4.5598  -4.4923  -3.6732  -2.6006  -2.2804  -0.4653  -0.1364
     0.3513   0.5603

     the Fermi energy is    -3.6324 ev

!    total energy              =    -329.47058722 Ry
     Harris-Foulkes estimate   =    -329.47058721 Ry
     estimated scf accuracy    <          5.2E-10 Ry

     The total energy is the sum of the following terms:

     one-electron contribution =    -600.91362637 Ry
     hartree contribution      =     321.98071981 Ry
     xc contribution           =     -51.37789516 Ry
     ewald contribution        =       0.84648091 Ry
     smearing contrib. (-TS)   =      -0.00626641 Ry

     convergence has been achieved in  14 iterations

     Forces acting on atoms (Ry/au):

     atom    1 type  1   force =    -0.01476556   -0.00693856   -0.02300582
     atom    2 type  1   force =     0.02153230    0.01608899    0.02166586
     atom    3 type  1   force =     0.01997650   -0.00804143    0.02124992
     atom    4 type  1   force =    -0.01419401   -0.01082153   -0.00909688
     atom    5 type  1   force =    -0.01254924    0.00971254   -0.01081308

     Total force =     0.060603     Total SCF correction =     0.000107

     number of scf cycles    =  10
     number of bfgs steps    =   9

     energy   old            =    -329.4676279944 Ry
     energy   new            =    -329.4705872239 Ry

     CASE: energy  _new < energy  _old

     new trust radius        =       0.1420559315 bohr
     new conv_thr            =       0.0000000023 Ry


ATOMIC_POSITIONS (bohr)
Au      -1.915165432   1.306054354  -0.391806160
Au      -0.531196709   3.038247159   4.049558537
Au       3.066569280   2.102870198   0.111400038
Au       4.421814770   4.484289859   5.567057973
Au       7.449308091   1.300837431   2.930084612



     Writing output data file pwscf.save
     Check: negative starting charge=   -0.006272
     NEW-OLD atomic charge density approx. for the potential
     Check: negative starting charge=   -0.006264

     negative rho (up, down):  3.425E-03 0.000E+00

     total cpu time spent up to now is       28.4 secs

     per-process dynamical memory:    50.7 Mb

     Self-consistent Calculation

     iteration #  1     ecut=    30.00 Ry     beta=0.70
     Davidson diagonalization with overlap
     ethr =  1.00E-06,  avg # of iterations = 11.0

     negative rho (up, down):  3.940E-04 0.000E+00

     total cpu time spent up to now is       29.0 secs

     total energy              =    -329.47027272 Ry
     Harris-Foulkes estimate   =    -329.47752828 Ry
     estimated scf accuracy    <       0.00547176 Ry

     iteration #  2     ecut=    30.00 Ry     beta=0.70
     Davidson diagonalization with overlap
     ethr =  9.95E-06,  avg # of iterations =  6.0

     negative rho (up, down):  1.364E-04 0.000E+00

     total cpu time spent up to now is       29.3 secs

     total energy              =    -329.47196700 Ry
     Harris-Foulkes estimate   =    -329.47390333 Ry
     estimated scf accuracy    <       0.00440559 Ry

     iteration #  3     ecut=    30.00 Ry     beta=0.70
     Davidson diagonalization with overlap
     ethr =  8.01E-06,  avg # of iterations =  2.0

     negative rho (up, down):  1.185E-05 0.000E+00

     total cpu time spent up to now is       29.5 secs

     total energy              =    -329.47288866 Ry
     Harris-Foulkes estimate   =    -329.47304328 Ry
     estimated scf accuracy    <       0.00040897 Ry

     iteration #  4     ecut=    30.00 Ry     beta=0.70
     Davidson diagonalization with overlap
     ethr =  7.44E-07,  avg # of iterations =  3.0

     total cpu time spent up to now is       29.7 secs

     total energy              =    -329.47297115 Ry
     Harris-Foulkes estimate   =    -329.47310259 Ry
     estimated scf accuracy    <       0.00037646 Ry

     iteration #  5     ecut=    30.00 Ry     beta=0.70
     Davidson diagonalization with overlap
     ethr =  6.84E-07,  avg # of iterations =  2.0

     total cpu time spent up to now is       29.9 secs

     total energy              =    -329.47303183 Ry
     Harris-Foulkes estimate   =    -329.47305181 Ry
     estimated scf accuracy    <       0.00005220 Ry

     iteration #  6     ecut=    30.00 Ry     beta=0.70
     Davidson diagonalization with overlap
     ethr =  9.49E-08,  avg # of iterations =  2.0

     total cpu time spent up to now is       30.1 secs

     total energy              =    -329.47304138 Ry
     Harris-Foulkes estimate   =    -329.47304252 Ry
     estimated scf accuracy    <       0.00000210 Ry

     iteration #  7     ecut=    30.00 Ry     beta=0.70
     Davidson diagonalization with overlap
     ethr =  3.81E-09,  avg # of iterations =  3.0

     total cpu time spent up to now is       30.4 secs

     total energy              =    -329.47304188 Ry
     Harris-Foulkes estimate   =    -329.47304263 Ry
     estimated scf accuracy    <       0.00000136 Ry

     iteration #  8     ecut=    30.00 Ry     beta=0.70
     Davidson diagonalization with overlap
     ethr =  2.47E-09,  avg # of iterations =  2.0

     total cpu time spent up to now is       30.6 secs

     total energy              =    -329.47304212 Ry
     Harris-Foulkes estimate   =    -329.47304220 Ry
     estimated scf accuracy    <       0.00000016 Ry

     iteration #  9     ecut=    30.00 Ry     beta=0.70
     Davidson diagonalization with overlap
     ethr =  2.97E-10,  avg # of iterations =  2.0

     total cpu time spent up to now is       30.8 secs

     total energy              =    -329.47304211 Ry
     Harris-Foulkes estimate   =    -329.47304215 Ry
     estimated scf accuracy    <          9.4E-09 Ry

     iteration # 10     ecut=    30.00 Ry     beta=0.70
     Davidson diagonalization with overlap
     ethr =  1.71E-11,  avg # of iterations =  3.0

     total cpu time spent up to now is       31.0 secs

     total energy              =    -329.47304209 Ry
     Harris-Foulkes estimate   =    -329.47304212 Ry
     estimated scf accuracy    <          3.1E-09 Ry

     iteration # 11     ecut=    30.00 Ry     beta=0.70
     Davidson diagonalization with overlap
     ethr =  5.62E-12,  avg # of iterations =  3.0

     total cpu time spent up to now is       31.2 secs

     End of self-consistent calculation

          k = 0.0000 0.0000 0.0000 ( 22119 PWs)   bands (ev):

    -8.2153  -7.5966  -7.4106  -7.0220  -6.9953  -6.7050  -6.6069  -6.3901
    -6.2130  -6.0623  -5.8418  -5.7594  -5.6921  -5.5601  -5.4719  -5.3574
    -5.3170  -5.2506  -5.1717  -5.1514  -5.1468  -5.1112  -5.0071  -4.9379
    -4.8696  -4.5816  -4.5048  -3.6929  -2.6219  -2.2832  -0.4715  -0.1501
     0.3764   0.5568

     the Fermi energy is    -3.6523 ev

!    total energy              =    -329.47304207 Ry
     Harris-Foulkes estimate   =    -329.47304209 Ry
     estimated scf accuracy    <          5.8E-10 Ry

     The total energy is the sum of the following terms:

     one-electron contribution =    -598.20878064 Ry
     hartree contribution      =     320.63066221 Ry
     xc contribution           =     -51.36876673 Ry
     ewald contribution        =      -0.51995834 Ry
     smearing contrib. (-TS)   =      -0.00619857 Ry

     convergence has been achieved in  11 iterations

     Forces acting on atoms (Ry/au):

     atom    1 type  1   force =    -0.00788646   -0.00441012   -0.02035857
     atom    2 type  1   force =     0.02308535    0.01289739    0.01836346
     atom    3 type  1   force =     0.01436246   -0.00691983    0.02264844
     atom    4 type  1   force =    -0.01464359   -0.01127884   -0.00956112
     atom    5 type  1   force =    -0.01491776    0.00971140   -0.01109221

     Total force =     0.056327     Total SCF correction =     0.000105

     number of scf cycles    =  11
     number of bfgs steps    =  10

     energy   old            =    -329.4705872239 Ry
     energy   new            =    -329.4730420682 Ry

     CASE: energy  _new < energy  _old

     new trust radius        =       0.1562615247 bohr
     new conv_thr            =       0.0000000023 Ry


ATOMIC_POSITIONS (bohr)
Au      -1.976139663   1.382309283  -0.439740637
Au      -0.554798808   3.074531080   4.056389392
Au       3.087014393   1.958822435   0.168407963
Au       4.388256816   4.423424789   5.570009361
Au       7.546997262   1.393211413   2.911228920



     Writing output data file pwscf.save
     Check: negative starting charge=   -0.006264
     NEW-OLD atomic charge density approx. for the potential
     Check: negative starting charge=   -0.006324

     negative rho (up, down):  3.682E-03 0.000E+00

     total cpu time spent up to now is       31.4 secs

     per-process dynamical memory:    50.7 Mb

     Self-consistent Calculation

     iteration #  1     ecut=    30.00 Ry     beta=0.70
     Davidson diagonalization with overlap
     ethr =  1.00E-06,  avg # of iterations = 12.0

     negative rho (up, down):  4.339E-04 0.000E+00

     total cpu time spent up to now is       32.0 secs

     total energy              =    -329.47422278 Ry
     Harris-Foulkes estimate   =    -329.47459829 Ry
     estimated scf accuracy    <       0.00636711 Ry

     iteration #  2     ecut=    30.00 Ry     beta=0.70
     Davidson diagonalization with overlap
     ethr =  1.16E-05,  avg # of iterations =  6.0

     negative rho (up, down):  1.563E-04 0.000E+00

     total cpu time spent up to now is       32.3 secs

     total energy              =    -329.47556681 Ry
     Harris-Foulkes estimate   =    -329.47792682 Ry
     estimated scf accuracy    <       0.00534591 Ry

     iteration #  3     ecut=    30.00 Ry     beta=0.70
     Davidson diagonalization with overlap
     ethr =  9.72E-06,  avg # of iterations =  2.0

     negative rho (up, down):  2.531E-05 0.000E+00

     total cpu time spent up to now is       32.5 secs

     total energy              =    -329.47661623 Ry
     Harris-Foulkes estimate   =    -329.47687850 Ry
     estimated scf accuracy    <       0.00063281 Ry

     iteration #  4     ecut=    30.00 Ry     beta=0.70
     Davidson diagonalization with overlap
     ethr =  1.15E-06,  avg # of iterations =  4.0

     total cpu time spent up to now is       32.7 secs

     total energy              =    -329.47676212 Ry
     Harris-Foulkes estimate   =    -329.47693215 Ry
     estimated scf accuracy    <       0.00052457 Ry

     iteration #  5     ecut=    30.00 Ry     beta=0.70
     Davidson diagonalization with overlap
     ethr =  9.54E-07,  avg # of iterations =  1.0

     total cpu time spent up to now is       32.9 secs

     total energy              =    -329.47684021 Ry
     Harris-Foulkes estimate   =    -329.47685880 Ry
     estimated scf accuracy    <       0.00004807 Ry

     iteration #  6     ecut=    30.00 Ry     beta=0.70
     Davidson diagonalization with overlap
     ethr =  8.74E-08,  avg # of iterations =  2.0

     total cpu time spent up to now is       33.1 secs

     total energy              =    -329.47685015 Ry
     Harris-Foulkes estimate   =    -329.47685161 Ry
     estimated scf accuracy    <       0.00000190 Ry

     iteration #  7     ecut=    30.00 Ry     beta=0.70
     Davidson diagonalization with overlap
     ethr =  3.45E-09,  avg # of iterations =  3.0

     total cpu time spent up to now is       33.4 secs

     total energy              =    -329.47685050 Ry
     Harris-Foulkes estimate   =    -329.47685109 Ry
     estimated scf accuracy    <       0.00000128 Ry

     iteration #  8     ecut=    30.00 Ry     beta=0.70
     Davidson diagonalization with overlap
     ethr =  2.33E-09,  avg # of iterations =  2.0

     total cpu time spent up to now is       33.6 secs

     total energy              =    -329.47685066 Ry
     Harris-Foulkes estimate   =    -329.47685081 Ry
     estimated scf accuracy    <       0.00000015 Ry

     iteration #  9     ecut=    30.00 Ry     beta=0.70
     Davidson diagonalization with overlap
     ethr =  2.79E-10,  avg # of iterations =  3.0

     total cpu time spent up to now is       33.8 secs

     total energy              =    -329.47685071 Ry
     Harris-Foulkes estimate   =    -329.47685071 Ry
     estimated scf accuracy    <       0.00000002 Ry

     iteration # 10     ecut=    30.00 Ry     beta=0.70
     Davidson diagonalization with overlap
     ethr =  3.01E-11,  avg # of iterations =  3.0

     total cpu time spent up to now is       34.0 secs

     total energy              =    -329.47685072 Ry
     Harris-Foulkes estimate   =    -329.47685072 Ry
     estimated scf accuracy    <          4.4E-09 Ry

     iteration # 11     ecut=    30.00 Ry     beta=0.70
     Davidson diagonalization with overlap
     ethr =  8.00E-12,  avg # of iterations =  2.0

     total cpu time spent up to now is       34.2 secs

     End of self-consistent calculation

          k = 0.0000 0.0000 0.0000 ( 22119 PWs)   bands (ev):

    -8.1586  -7.5707  -7.4052  -7.0213  -6.9758  -6.6506  -6.6176  -6.3718
    -6.1858  -6.0674  -5.8313  -5.7490  -5.6870  -5.5591  -5.4676  -5.3629
    -5.3208  -5.2516  -5.1769  -5.1688  -5.1592  -5.1207  -5.0125  -4.9530
    -4.9054  -4.6037  -4.5100  -3.7190  -2.6418  -2.2768  -0.4777  -0.1658
     0.3952   0.5706

[...]
     Harris-Foulkes estimate   =    -329.49136120 Ry
     estimated scf accuracy    <       0.00004493 Ry

     iteration #  3     ecut=    30.00 Ry     beta=0.70
     Davidson diagonalization with overlap
     ethr =  8.17E-08,  avg # of iterations =  2.0

     total cpu time spent up to now is      126.5 secs

     total energy              =    -329.49134886 Ry
     Harris-Foulkes estimate   =    -329.49135068 Ry
     estimated scf accuracy    <       0.00000308 Ry

     iteration #  4     ecut=    30.00 Ry     beta=0.70
     Davidson diagonalization with overlap
     ethr =  5.61E-09,  avg # of iterations =  3.0

     total cpu time spent up to now is      126.7 secs

     total energy              =    -329.49134943 Ry
     Harris-Foulkes estimate   =    -329.49135078 Ry
     estimated scf accuracy    <       0.00000390 Ry

     iteration #  5     ecut=    30.00 Ry     beta=0.70
     Davidson diagonalization with overlap
     ethr =  5.61E-09,  avg # of iterations =  2.0

     total cpu time spent up to now is      126.9 secs

     total energy              =    -329.49135033 Ry
     Harris-Foulkes estimate   =    -329.49135019 Ry
     estimated scf accuracy    <       0.00000024 Ry

     iteration #  6     ecut=    30.00 Ry     beta=0.70
     Davidson diagonalization with overlap
     ethr =  4.36E-10,  avg # of iterations =  2.0

     total cpu time spent up to now is      127.1 secs

     total energy              =    -329.49135052 Ry
     Harris-Foulkes estimate   =    -329.49135038 Ry
     estimated scf accuracy    <          9.0E-09 Ry

     iteration #  7     ecut=    30.00 Ry     beta=0.70
     Davidson diagonalization with overlap
     ethr =  1.64E-11,  avg # of iterations =  3.0

     total cpu time spent up to now is      127.4 secs

     total energy              =    -329.49135056 Ry
     Harris-Foulkes estimate   =    -329.49135053 Ry
     estimated scf accuracy    <          6.9E-09 Ry

     iteration #  8     ecut=    30.00 Ry     beta=0.70
     Davidson diagonalization with overlap
     ethr =  1.26E-11,  avg # of iterations =  2.0

     total cpu time spent up to now is      127.6 secs

     total energy              =    -329.49135056 Ry
     Harris-Foulkes estimate   =    -329.49135056 Ry
     estimated scf accuracy    <          1.4E-09 Ry

     iteration #  9     ecut=    30.00 Ry     beta=0.70
     Davidson diagonalization with overlap
     ethr =  2.63E-12,  avg # of iterations =  2.0

     total cpu time spent up to now is      127.8 secs

     total energy              =    -329.49135055 Ry
     Harris-Foulkes estimate   =    -329.49135056 Ry
     estimated scf accuracy    <          1.5E-10 Ry

     iteration # 10     ecut=    30.00 Ry     beta=0.70
     Davidson diagonalization with overlap
     ethr =  2.75E-13,  avg # of iterations =  2.0

     total cpu time spent up to now is      128.0 secs

     End of self-consistent calculation

          k = 0.0000 0.0000 0.0000 ( 22119 PWs)   bands (ev):

    -8.5086  -7.7967  -7.6629  -7.2579  -6.8689  -6.8174  -6.6401  -6.4872
    -6.3227  -6.0677  -5.9721  -5.7713  -5.7307  -5.6868  -5.4622  -5.3693
    -5.3165  -5.2433  -5.1965  -5.1848  -5.1771  -5.1258  -5.0053  -4.9114
    -4.8313  -4.7397  -4.4647  -3.7787  -2.5147  -2.1729  -0.5638  -0.1802
     0.5218   0.9035

     the Fermi energy is    -3.7478 ev

!    total energy              =    -329.49135056 Ry
     Harris-Foulkes estimate   =    -329.49135055 Ry
     estimated scf accuracy    <          2.9E-11 Ry

     The total energy is the sum of the following terms:

     one-electron contribution =    -610.06117700 Ry
     hartree contribution      =     326.45729384 Ry
     xc contribution           =     -51.40572752 Ry
     ewald contribution        =       5.52225357 Ry
     smearing contrib. (-TS)   =      -0.00399346 Ry

     convergence has been achieved in  10 iterations

     Forces acting on atoms (Ry/au):

     atom    1 type  1   force =     0.00043608    0.00042115   -0.00121868
     atom    2 type  1   force =    -0.00135179    0.00019673   -0.00081933
     atom    3 type  1   force =    -0.00012657    0.00001417    0.00085175
     atom    4 type  1   force =     0.00085429    0.00016512    0.00137147
     atom    5 type  1   force =     0.00018799   -0.00079716   -0.00018522

     Total force =     0.002911     Total SCF correction =     0.000018

     number of scf cycles    =  48
     number of bfgs steps    =  46

     energy   old            =    -329.4913383053 Ry
     energy   new            =    -329.4913505621 Ry

     CASE: energy  _new < energy  _old

     new trust radius        =       0.0238157125 bohr
     new conv_thr            =            1.0E-10 Ry


ATOMIC_POSITIONS (bohr)
Au      -1.804514600   1.576306884  -0.596797665
Au      -0.732918275   3.661481763   3.978149380
Au       3.062187402   1.469868918   0.776708824
Au       4.182464704   3.828178658   5.542182831
Au       7.784110769   1.696462777   2.566051630



     Writing output data file pwscf.save
     Check: negative starting charge=   -0.006442
     NEW-OLD atomic charge density approx. for the potential
     Check: negative starting charge=   -0.006442

     negative rho (up, down):  1.106E-04 0.000E+00

     total cpu time spent up to now is      128.2 secs

     per-process dynamical memory:    50.7 Mb

     Self-consistent Calculation

     iteration #  1     ecut=    30.00 Ry     beta=0.70
     Davidson diagonalization with overlap
     ethr =  1.00E-06,  avg # of iterations =  4.0

     negative rho (up, down):  9.430E-07 0.000E+00

     total cpu time spent up to now is      128.6 secs

     total energy              =    -329.49132582 Ry
     Harris-Foulkes estimate   =    -329.49135833 Ry
     estimated scf accuracy    <       0.00011151 Ry

     iteration #  2     ecut=    30.00 Ry     beta=0.70
     Davidson diagonalization with overlap
     ethr =  2.03E-07,  avg # of iterations =  3.0

     negative rho (up, down):  5.599E-08 0.000E+00

     total cpu time spent up to now is      128.8 secs

     total energy              =    -329.49134423 Ry
     Harris-Foulkes estimate   =    -329.49139331 Ry
     estimated scf accuracy    <       0.00010389 Ry

     iteration #  3     ecut=    30.00 Ry     beta=0.70
     Davidson diagonalization with overlap
     ethr =  1.89E-07,  avg # of iterations =  2.0

     total cpu time spent up to now is      129.0 secs

     total energy              =    -329.49136541 Ry
     Harris-Foulkes estimate   =    -329.49136826 Ry
     estimated scf accuracy    <       0.00000663 Ry

     iteration #  4     ecut=    30.00 Ry     beta=0.70
     Davidson diagonalization with overlap
     ethr =  1.20E-08,  avg # of iterations =  2.0

     total cpu time spent up to now is      129.2 secs

     total energy              =    -329.49136713 Ry
     Harris-Foulkes estimate   =    -329.49136958 Ry
     estimated scf accuracy    <       0.00000852 Ry

     iteration #  5     ecut=    30.00 Ry     beta=0.70
     Davidson diagonalization with overlap
     ethr =  1.20E-08,  avg # of iterations =  2.0

     total cpu time spent up to now is      129.4 secs

     total energy              =    -329.49136880 Ry
     Harris-Foulkes estimate   =    -329.49136886 Ry
     estimated scf accuracy    <       0.00000060 Ry

     iteration #  6     ecut=    30.00 Ry     beta=0.70
     Davidson diagonalization with overlap
     ethr =  1.09E-09,  avg # of iterations =  2.0

     total cpu time spent up to now is      129.7 secs

     total energy              =    -329.49136881 Ry
     Harris-Foulkes estimate   =    -329.49136893 Ry
     estimated scf accuracy    <       0.00000002 Ry

     iteration #  7     ecut=    30.00 Ry     beta=0.70
     Davidson diagonalization with overlap
     ethr =  4.10E-11,  avg # of iterations =  3.0

     total cpu time spent up to now is      129.9 secs

     total energy              =    -329.49136882 Ry
     Harris-Foulkes estimate   =    -329.49136882 Ry
     estimated scf accuracy    <       0.00000002 Ry

     iteration #  8     ecut=    30.00 Ry     beta=0.70
     Davidson diagonalization with overlap
     ethr =  3.20E-11,  avg # of iterations =  2.0

     total cpu time spent up to now is      130.1 secs

     total energy              =    -329.49136887 Ry
     Harris-Foulkes estimate   =    -329.49136883 Ry
     estimated scf accuracy    <          3.2E-09 Ry

     iteration #  9     ecut=    30.00 Ry     beta=0.70
     Davidson diagonalization with overlap
     ethr =  5.86E-12,  avg # of iterations =  2.0

     total cpu time spent up to now is      130.4 secs

     total energy              =    -329.49136890 Ry
     Harris-Foulkes estimate   =    -329.49136888 Ry
     estimated scf accuracy    <          3.2E-10 Ry

     iteration # 10     ecut=    30.00 Ry     beta=0.70
     Davidson diagonalization with overlap
     ethr =  5.82E-13,  avg # of iterations =  2.0

     total cpu time spent up to now is      130.6 secs

     End of self-consistent calculation

          k = 0.0000 0.0000 0.0000 ( 22119 PWs)   bands (ev):

    -8.5104  -7.8011  -7.6688  -7.2651  -6.8705  -6.8186  -6.6429  -6.4911
    -6.3282  -6.0678  -5.9730  -5.7714  -5.7306  -5.6877  -5.4654  -5.3691
    -5.3165  -5.2437  -5.1957  -5.1853  -5.1775  -5.1253  -5.0072  -4.9088
    -4.8290  -4.7410  -4.4638  -3.7772  -2.5161  -2.1687  -0.5649  -0.1788
     0.5215   0.9029

     the Fermi energy is    -3.7462 ev

!    total energy              =    -329.49136891 Ry
     Harris-Foulkes estimate   =    -329.49136890 Ry
     estimated scf accuracy    <          8.3E-11 Ry

     The total energy is the sum of the following terms:

     one-electron contribution =    -610.29740900 Ry
     hartree contribution      =     326.57334798 Ry
     xc contribution           =     -51.40655001 Ry
     ewald contribution        =       5.64326070 Ry
     smearing contrib. (-TS)   =      -0.00401858 Ry

     convergence has been achieved in  10 iterations

     Forces acting on atoms (Ry/au):

     atom    1 type  1   force =     0.00063859    0.00047243   -0.00150348
     atom    2 type  1   force =    -0.00164570    0.00017748   -0.00056112
     atom    3 type  1   force =    -0.00001321   -0.00010565    0.00060616
     atom    4 type  1   force =     0.00085239    0.00049458    0.00201926
     atom    5 type  1   force =     0.00016793   -0.00103885   -0.00056083

     Total force =     0.003577     Total SCF correction =     0.000031

     number of scf cycles    =  49
     number of bfgs steps    =  47

     energy   old            =    -329.4913505621 Ry
     energy   new            =    -329.4913689140 Ry

     CASE: energy  _new < energy  _old

     new trust radius        =       0.0357235687 bohr
     new conv_thr            =            1.0E-10 Ry


ATOMIC_POSITIONS (bohr)
Au      -1.800375259   1.581919243  -0.605020973
Au      -0.732512385   3.688205871   3.954446413
Au       3.065470738   1.474411951   0.781274473
Au       4.171524782   3.797125450   5.555745955
Au       7.787222123   1.690636485   2.579849132



     Writing output data file pwscf.save
     Check: negative starting charge=   -0.006442
     NEW-OLD atomic charge density approx. for the potential
     Check: negative starting charge=   -0.006445

     negative rho (up, down):  3.122E-04 0.000E+00

     total cpu time spent up to now is      130.8 secs

     per-process dynamical memory:    50.7 Mb

     Self-consistent Calculation

     iteration #  1     ecut=    30.00 Ry     beta=0.70
     Davidson diagonalization with overlap
     ethr =  1.00E-06,  avg # of iterations =  5.0

     negative rho (up, down):  7.659E-06 0.000E+00

     total cpu time spent up to now is      131.2 secs

     total energy              =    -329.49128189 Ry
     Harris-Foulkes estimate   =    -329.49130287 Ry
     estimated scf accuracy    <       0.00026768 Ry

     iteration #  2     ecut=    30.00 Ry     beta=0.70
     Davidson diagonalization with overlap
     ethr =  4.87E-07,  avg # of iterations = 10.0

     negative rho (up, down):  8.905E-07 0.000E+00

     total cpu time spent up to now is      131.5 secs

     total energy              =    -329.49132544 Ry
     Harris-Foulkes estimate   =    -329.49144757 Ry
     estimated scf accuracy    <       0.00026253 Ry

     iteration #  3     ecut=    30.00 Ry     beta=0.70
     Davidson diagonalization with overlap
     ethr =  4.77E-07,  avg # of iterations =  2.0

     total cpu time spent up to now is      131.7 secs

     total energy              =    -329.49137874 Ry
     Harris-Foulkes estimate   =    -329.49138544 Ry
     estimated scf accuracy    <       0.00001557 Ry

     iteration #  4     ecut=    30.00 Ry     beta=0.70
     Davidson diagonalization with overlap
     ethr =  2.83E-08,  avg # of iterations =  2.0

     total cpu time spent up to now is      131.9 secs

     total energy              =    -329.49138207 Ry
     Harris-Foulkes estimate   =    -329.49138850 Ry
     estimated scf accuracy    <       0.00001989 Ry

     iteration #  5     ecut=    30.00 Ry     beta=0.70
     Davidson diagonalization with overlap
     ethr =  2.83E-08,  avg # of iterations =  2.0

     total cpu time spent up to now is      132.1 secs

     total energy              =    -329.49138578 Ry
     Harris-Foulkes estimate   =    -329.49138614 Ry
     estimated scf accuracy    <       0.00000145 Ry

     iteration #  6     ecut=    30.00 Ry     beta=0.70
     Davidson diagonalization with overlap
     ethr =  2.64E-09,  avg # of iterations =  2.0

     total cpu time spent up to now is      132.3 secs

     total energy              =    -329.49138628 Ry
     Harris-Foulkes estimate   =    -329.49138609 Ry
     estimated scf accuracy    <       0.00000006 Ry

     iteration #  7     ecut=    30.00 Ry     beta=0.70
     Davidson diagonalization with overlap
     ethr =  1.07E-10,  avg # of iterations =  3.0

     total cpu time spent up to now is      132.6 secs

     total energy              =    -329.49138637 Ry
     Harris-Foulkes estimate   =    -329.49138631 Ry
     estimated scf accuracy    <       0.00000005 Ry

     iteration #  8     ecut=    30.00 Ry     beta=0.70
     Davidson diagonalization with overlap
     ethr =  8.47E-11,  avg # of iterations =  2.0

     total cpu time spent up to now is      132.8 secs

     total energy              =    -329.49138639 Ry
     Harris-Foulkes estimate   =    -329.49138638 Ry
     estimated scf accuracy    <          7.4E-09 Ry

     iteration #  9     ecut=    30.00 Ry     beta=0.70
     Davidson diagonalization with overlap
     ethr =  1.35E-11,  avg # of iterations =  2.0

     total cpu time spent up to now is      133.0 secs

     total energy              =    -329.49138637 Ry
     Harris-Foulkes estimate   =    -329.49138639 Ry
     estimated scf accuracy    <          8.1E-10 Ry

     iteration # 10     ecut=    30.00 Ry     beta=0.70
     Davidson diagonalization with overlap
     ethr =  1.48E-12,  avg # of iterations =  2.0

     total cpu time spent up to now is      133.2 secs

     total energy              =    -329.49138640 Ry
     Harris-Foulkes estimate   =    -329.49138637 Ry
     estimated scf accuracy    <          1.7E-10 Ry

     iteration # 11     ecut=    30.00 Ry     beta=0.70
     Davidson diagonalization with overlap
     ethr =  3.10E-13,  avg # of iterations =  3.0

     total cpu time spent up to now is      133.5 secs

     End of self-consistent calculation

          k = 0.0000 0.0000 0.0000 ( 22119 PWs)   bands (ev):

    -8.5137  -7.8072  -7.6753  -7.2731  -6.8699  -6.8205  -6.6462  -6.4963
    -6.3334  -6.0691  -5.9735  -5.7714  -5.7307  -5.6885  -5.4708  -5.3681
    -5.3161  -5.2452  -5.1947  -5.1859  -5.1779  -5.1246  -5.0096  -4.9070
    -4.8264  -4.7420  -4.4643  -3.7746  -2.5174  -2.1653  -0.5660  -0.1763
     0.5208   0.8975

     the Fermi energy is    -3.7432 ev

!    total energy              =    -329.49138641 Ry
     Harris-Foulkes estimate   =    -329.49138640 Ry
     estimated scf accuracy    <          2.4E-11 Ry

     The total energy is the sum of the following terms:

     one-electron contribution =    -610.53959297 Ry
     hartree contribution      =     326.69168891 Ry
     xc contribution           =     -51.40721308 Ry
     ewald contribution        =       5.76784806 Ry
     smearing contrib. (-TS)   =      -0.00411732 Ry

     convergence has been achieved in  11 iterations

     Forces acting on atoms (Ry/au):

     atom    1 type  1   force =     0.00093944    0.00028082   -0.00180308
     atom    2 type  1   force =    -0.00185271    0.00019621    0.00019802
     atom    3 type  1   force =     0.00014951   -0.00051831    0.00013891
     atom    4 type  1   force =     0.00081853    0.00153194    0.00252210
     atom    5 type  1   force =    -0.00005477   -0.00149067   -0.00105596

     Total force =     0.004555     Total SCF correction =     0.000020

     number of scf cycles    =  50
     number of bfgs steps    =  48

     energy   old            =    -329.4913689140 Ry
     energy   new            =    -329.4913864099 Ry

     CASE: energy  _new < energy  _old

     new trust radius        =       0.0076979635 bohr
     new conv_thr            =            1.0E-10 Ry


ATOMIC_POSITIONS (bohr)
Au      -1.799032355   1.582357982  -0.609768824
Au      -0.735233815   3.684424402   3.954841490
Au       3.063248898   1.474284083   0.787679076
Au       4.175159052   3.803845868   5.556687604
Au       7.787188220   1.687386665   2.576855655



     Writing output data file pwscf.save
     Check: negative starting charge=   -0.006445
     NEW-OLD atomic charge density approx. for the potential
     Check: negative starting charge=   -0.006450

     negative rho (up, down):  2.844E-06 0.000E+00

     Writing output data file pwscf.save
 
     init_run     :      0.16s CPU      0.18s WALL (       1 calls)
     electrons    :    116.67s CPU    124.59s WALL (      50 calls)
     update_pot   :      3.31s CPU      3.95s WALL (      50 calls)
     forces       :      2.07s CPU      2.11s WALL (      50 calls)

     Called by init_run:
     wfcinit      :      0.07s CPU      0.08s WALL (       1 calls)
     potinit      :      0.03s CPU      0.03s WALL (       1 calls)

     Called by electrons:
     c_bands      :     89.75s CPU     90.74s WALL (     524 calls)
     sum_band     :     12.21s CPU     12.53s WALL (     524 calls)
     v_of_rho     :     10.10s CPU     10.22s WALL (     562 calls)
     mix_rho      :      4.01s CPU      8.90s WALL (     524 calls)

     Called by c_bands:
     init_us_2    :      1.57s CPU      1.65s WALL (    1049 calls)
     cegterg      :     80.23s CPU     80.79s WALL (     524 calls)

     Called by sum_band:

     Called by *egterg:
     h_psi        :     61.97s CPU     62.39s WALL (    1953 calls)
     g_psi        :      0.62s CPU      0.62s WALL (    1428 calls)
     cdiaghg      :      4.54s CPU      4.56s WALL (    1890 calls)

     Called by h_psi:
     h_psi:pot    :     61.01s CPU     61.42s WALL (    1953 calls)
     h_psi:calbec :      3.42s CPU      3.42s WALL (    1953 calls)
     vloc_psi     :     53.69s CPU     54.09s WALL (    1953 calls)
     add_vuspsi   :      3.89s CPU      3.90s WALL (    1953 calls)

     General routines
     calbec       :      4.02s CPU      4.05s WALL (    2153 calls)
     fft          :      5.54s CPU      5.70s WALL (    6308 calls)
     fftw         :     56.13s CPU     56.98s WALL (  118882 calls)
     davcio       :      0.65s CPU      4.55s WALL (    5574 calls)
 
     Parallel routines
     fft_scatter  :     14.38s CPU     13.92s WALL (  125190 calls)
 
     PWSCF        :  2m 3.51s CPU     2m13.75s WALL

 
   This run was terminated on:   1:33: 7   4Aug2017            

=------------------------------------------------------------------------------=
   JOB DONE.
=------------------------------------------------------------------------------=
