
     Program PWSCF v.6.0 (svn rev. 13079) starts on  4Aug2017 at  3:17:49 

     This program is part of the open-source Quantum ESPRESSO suite
     for quantum simulation of materials; please cite
         "P. Giannozzi et al., J. Phys.:Condens. Matter 21 395502 (2009);
          URL http://www.quantum-espresso.org", 
     in publications or presentations arising from this work. More details at
     http://www.quantum-espresso.org/quote

     Parallel version (MPI), running on    10 processors
     R & G space division:  proc/nbgrp/npool/nimage =      10
     Reading input from input/multi/minchecks-Gold5-691.in

     Current dimensions of program PWSCF are:
     Max number of different atomic species (ntypx) = 10
     Max number of k-points (npk) =  40000
     Max angular momentum in pseudopotentials (lmaxx) =  3
     Message from routine iosys:
     pot_extrapolation='second-order' not available, using 'atomic'
     Message from routine iosys:
     wfc_extrapolation='second-order' not available, using 'atomic'

     Subspace diagonalization in iterative solution of the eigenvalue problem:
     a serial algorithm will be used

 
     Parallelization info
     --------------------
     sticks:   dense  smooth     PW     G-vecs:    dense   smooth      PW
     Min         380     380     94                17748    17748    2208
     Max         381     381     95                17753    17753    2213
     Sum        3809    3809    949               177509   177509   22119
 


     bravais-lattice index     =            1
     lattice parameter (alat)  =      20.0000  a.u.
     unit-cell volume          =    8000.0000 (a.u.)^3
     number of atoms/cell      =            5
     number of atomic types    =            1
     number of electrons       =        55.00
     number of Kohn-Sham states=           34
     kinetic-energy cutoff     =      30.0000  Ry
     charge density cutoff     =     120.0000  Ry
     convergence threshold     =      1.0E-08
     mixing beta               =       0.7000
     number of iterations used =            8  plain     mixing
     Exchange-correlation      = BLYP ( 1  3  1  3 0 0)
     nstep                     =           50


     celldm(1)=  20.000000  celldm(2)=   0.000000  celldm(3)=   0.000000
     celldm(4)=   0.000000  celldm(5)=   0.000000  celldm(6)=   0.000000

     crystal axes: (cart. coord. in units of alat)
               a(1) = (   1.000000   0.000000   0.000000 )  
               a(2) = (   0.000000   1.000000   0.000000 )  
               a(3) = (   0.000000   0.000000   1.000000 )  

     reciprocal axes: (cart. coord. in units 2 pi/alat)
               b(1) = (  1.000000  0.000000  0.000000 )  
               b(2) = (  0.000000  1.000000  0.000000 )  
               b(3) = (  0.000000  0.000000  1.000000 )  


     PseudoPot. # 1 for Au read from file:
     ./Au.blyp-d-hgh.UPF
     MD5 check sum: c10d8bae01f806c36a1643a1c69a8479
     Pseudo is Norm-conserving, Zval = 11.0
     Generated in analytical, separable form
     Using radial grid of 1279 points,  6 beta functions with: 
                l(1) =   0
                l(2) =   0
                l(3) =   1
                l(4) =   1
                l(5) =   2
                l(6) =   2

     atomic species   valence    mass     pseudopotential
        Au            11.00    28.08600     Au( 1.00)

     No symmetry found



   Cartesian axes

     site n.     atom                  positions (alat units)
         1           Au  tau(   1) = (  -0.0943786   0.0755089  -0.0174455  )
         2           Au  tau(   2) = (   0.0275086   0.1350304   0.2036942  )
         3           Au  tau(   3) = (   0.1600702   0.1438598  -0.0234980  )
         4           Au  tau(   4) = (   0.2343243   0.2432101   0.2975957  )
         5           Au  tau(   5) = (   0.3188388   0.0440750   0.1425044  )

     number of k points=     1  Marzari-Vanderbilt smearing, width (Ry)=  0.0250
                       cart. coord. in units 2pi/alat
        k(    1) = (   0.0000000   0.0000000   0.0000000), wk =   2.0000000

     Dense  grid:   177509 G-vectors     FFT dimensions: (  72,  72,  72)

     Estimated max dynamical RAM per process >      15.04Mb

     Estimated total allocated dynamical RAM >     150.39Mb

     Initial potential from superposition of free atoms
     Check: negative starting charge=   -0.006169

     starting charge   54.99940, renormalised to   55.00000

     negative rho (up, down):  6.169E-03 0.000E+00
     Starting wfc are   45 randomized atomic wfcs

     total cpu time spent up to now is        0.3 secs

     per-process dynamical memory:    41.0 Mb

     Self-consistent Calculation

     iteration #  1     ecut=    30.00 Ry     beta=0.70
     Davidson diagonalization with overlap
     ethr =  1.00E-02,  avg # of iterations =  3.0

     Threshold (ethr) on eigenvalues was too large:
     Diagonalizing with lowered threshold

     Davidson diagonalization with overlap
     ethr =  3.42E-04,  avg # of iterations =  8.0

     negative rho (up, down):  8.294E-04 0.000E+00

     total cpu time spent up to now is        0.7 secs

     total energy              =    -329.36450050 Ry
     Harris-Foulkes estimate   =    -329.50859383 Ry
     estimated scf accuracy    <       0.24542734 Ry

     iteration #  2     ecut=    30.00 Ry     beta=0.70
     Davidson diagonalization with overlap
     ethr =  4.46E-04,  avg # of iterations =  4.0

     negative rho (up, down):  3.491E-04 0.000E+00

     total cpu time spent up to now is        1.0 secs

     total energy              =    -329.39738212 Ry
     Harris-Foulkes estimate   =    -329.51324470 Ry
     estimated scf accuracy    <       0.23125469 Ry

     iteration #  3     ecut=    30.00 Ry     beta=0.70
     Davidson diagonalization with overlap
     ethr =  4.20E-04,  avg # of iterations =  2.0

     negative rho (up, down):  1.380E-04 0.000E+00

     total cpu time spent up to now is        1.2 secs

     total energy              =    -329.44314227 Ry
     Harris-Foulkes estimate   =    -329.47094726 Ry
     estimated scf accuracy    <       0.07609376 Ry

     iteration #  4     ecut=    30.00 Ry     beta=0.70
     Davidson diagonalization with overlap
     ethr =  1.38E-04,  avg # of iterations =  2.0

     negative rho (up, down):  1.758E-05 0.000E+00

     total cpu time spent up to now is        1.4 secs

     total energy              =    -329.45611308 Ry
     Harris-Foulkes estimate   =    -329.45885342 Ry
     estimated scf accuracy    <       0.00728285 Ry

     iteration #  5     ecut=    30.00 Ry     beta=0.70
     Davidson diagonalization with overlap
     ethr =  1.32E-05,  avg # of iterations =  6.0

     total cpu time spent up to now is        1.7 secs

     total energy              =    -329.45775536 Ry
     Harris-Foulkes estimate   =    -329.45832129 Ry
     estimated scf accuracy    <       0.00167016 Ry

     iteration #  6     ecut=    30.00 Ry     beta=0.70
     Davidson diagonalization with overlap
     ethr =  3.04E-06,  avg # of iterations =  3.0

     total cpu time spent up to now is        1.9 secs

     total energy              =    -329.45801663 Ry
     Harris-Foulkes estimate   =    -329.45807360 Ry
     estimated scf accuracy    <       0.00011190 Ry

     iteration #  7     ecut=    30.00 Ry     beta=0.70
     Davidson diagonalization with overlap
     ethr =  2.03E-07,  avg # of iterations =  3.0

     total cpu time spent up to now is        2.2 secs

     total energy              =    -329.45804552 Ry
     Harris-Foulkes estimate   =    -329.45806088 Ry
     estimated scf accuracy    <       0.00003578 Ry

     iteration #  8     ecut=    30.00 Ry     beta=0.70
     Davidson diagonalization with overlap
     ethr =  6.50E-08,  avg # of iterations =  2.0

     total cpu time spent up to now is        2.4 secs

     total energy              =    -329.45805169 Ry
     Harris-Foulkes estimate   =    -329.45805438 Ry
     estimated scf accuracy    <       0.00000526 Ry

     iteration #  9     ecut=    30.00 Ry     beta=0.70
     Davidson diagonalization with overlap
     ethr =  9.57E-09,  avg # of iterations =  2.0

     total cpu time spent up to now is        2.6 secs

     total energy              =    -329.45805238 Ry
     Harris-Foulkes estimate   =    -329.45805300 Ry
     estimated scf accuracy    <       0.00000043 Ry

     iteration # 10     ecut=    30.00 Ry     beta=0.70
     Davidson diagonalization with overlap
     ethr =  7.88E-10,  avg # of iterations =  2.0

     total cpu time spent up to now is        2.9 secs

     total energy              =    -329.45805246 Ry
     Harris-Foulkes estimate   =    -329.45805251 Ry
     estimated scf accuracy    <       0.00000008 Ry

     iteration # 11     ecut=    30.00 Ry     beta=0.70
     Davidson diagonalization with overlap
     ethr =  1.48E-10,  avg # of iterations =  2.0

     total cpu time spent up to now is        3.1 secs

     total energy              =    -329.45805249 Ry
     Harris-Foulkes estimate   =    -329.45805249 Ry
     estimated scf accuracy    <       0.00000002 Ry

     iteration # 12     ecut=    30.00 Ry     beta=0.70
     Davidson diagonalization with overlap
     ethr =  3.09E-11,  avg # of iterations =  2.0

     total cpu time spent up to now is        3.3 secs

     End of self-consistent calculation

          k = 0.0000 0.0000 0.0000 ( 22119 PWs)   bands (ev):

    -8.1431  -7.6401  -7.4600  -7.2034  -6.8848  -6.7120  -6.5604  -6.4887
    -6.3130  -5.8633  -5.7598  -5.7376  -5.6522  -5.5811  -5.5358  -5.4667
    -5.2980  -5.2004  -5.1548  -5.0994  -5.0795  -5.0127  -4.9630  -4.8918
    -4.8208  -4.4768  -4.3843  -3.6711  -2.5774  -2.3551  -0.2679  -0.1215
     0.3324   0.5118

     the Fermi energy is    -3.6420 ev

!    total energy              =    -329.45805247 Ry
     Harris-Foulkes estimate   =    -329.45805250 Ry
     estimated scf accuracy    <          1.9E-09 Ry

     The total energy is the sum of the following terms:

     one-electron contribution =    -607.35515085 Ry
     hartree contribution      =     325.25415953 Ry
     xc contribution           =     -51.38127670 Ry
     ewald contribution        =       4.02761594 Ry
     smearing contrib. (-TS)   =      -0.00340039 Ry

     convergence has been achieved in  12 iterations

     Forces acting on atoms (Ry/au):

     atom    1 type  1   force =     0.00937185    0.00694395    0.00746707
     atom    2 type  1   force =    -0.00691437    0.00114912   -0.01163938
     atom    3 type  1   force =    -0.01866495   -0.00964973   -0.01169442
     atom    4 type  1   force =     0.00922935   -0.01137584    0.00205697
     atom    5 type  1   force =     0.00697811    0.01293250    0.01380977

     Total force =     0.039751     Total SCF correction =     0.000173

     BFGS Geometry Optimization

     number of scf cycles    =   1
     number of bfgs steps    =   0

     energy   new            =    -329.4580524708 Ry

     new trust radius        =       0.0240469773 bohr
     new conv_thr            =       0.0000000100 Ry


ATOMIC_POSITIONS (bohr)
Au      -1.878200146   1.517121945  -0.341442928
Au       0.543257629   2.701758124   4.062245617
Au       3.182739052   2.867546267  -0.481654421
Au       4.695716354   4.852825162   5.953971968
Au       6.383753111   0.894431502   2.863896765



     Writing output data file pwscf.save
     Check: negative starting charge=   -0.006169
     NEW-OLD atomic charge density approx. for the potential
     Check: negative starting charge=   -0.006178

     negative rho (up, down):  1.169E-04 0.000E+00

     total cpu time spent up to now is        3.5 secs

     per-process dynamical memory:    42.9 Mb

     Self-consistent Calculation

     iteration #  1     ecut=    30.00 Ry     beta=0.70
     Davidson diagonalization with overlap
     ethr =  1.00E-06,  avg # of iterations =  4.0

     negative rho (up, down):  1.368E-06 0.000E+00

     total cpu time spent up to now is        4.0 secs

     total energy              =    -329.45943383 Ry
     Harris-Foulkes estimate   =    -329.45947356 Ry
     estimated scf accuracy    <       0.00014570 Ry

     iteration #  2     ecut=    30.00 Ry     beta=0.70
     Davidson diagonalization with overlap
     ethr =  2.65E-07,  avg # of iterations =  3.0

     negative rho (up, down):  2.506E-07 0.000E+00

     total cpu time spent up to now is        4.2 secs

     total energy              =    -329.45942267 Ry
     Harris-Foulkes estimate   =    -329.45957085 Ry
     estimated scf accuracy    <       0.00036710 Ry

     iteration #  3     ecut=    30.00 Ry     beta=0.70
     Davidson diagonalization with overlap
     ethr =  2.65E-07,  avg # of iterations =  2.0

     total cpu time spent up to now is        4.4 secs

     total energy              =    -329.45949507 Ry
     Harris-Foulkes estimate   =    -329.45950238 Ry
     estimated scf accuracy    <       0.00002256 Ry

     iteration #  4     ecut=    30.00 Ry     beta=0.70
     Davidson diagonalization with overlap
     ethr =  4.10E-08,  avg # of iterations =  2.0

     total cpu time spent up to now is        4.6 secs

     total energy              =    -329.45949992 Ry
     Harris-Foulkes estimate   =    -329.45950141 Ry
     estimated scf accuracy    <       0.00000455 Ry

     iteration #  5     ecut=    30.00 Ry     beta=0.70
     Davidson diagonalization with overlap
     ethr =  8.28E-09,  avg # of iterations =  2.0

     total cpu time spent up to now is        4.9 secs

     total energy              =    -329.45950078 Ry
     Harris-Foulkes estimate   =    -329.45950123 Ry
     estimated scf accuracy    <       0.00000126 Ry

     iteration #  6     ecut=    30.00 Ry     beta=0.70
     Davidson diagonalization with overlap
     ethr =  2.30E-09,  avg # of iterations =  2.0

     total cpu time spent up to now is        5.1 secs

     total energy              =    -329.45950098 Ry
     Harris-Foulkes estimate   =    -329.45950114 Ry
     estimated scf accuracy    <       0.00000030 Ry

     iteration #  7     ecut=    30.00 Ry     beta=0.70
     Davidson diagonalization with overlap
     ethr =  5.50E-10,  avg # of iterations =  2.0

     total cpu time spent up to now is        5.3 secs

     total energy              =    -329.45950097 Ry
     Harris-Foulkes estimate   =    -329.45950106 Ry
     estimated scf accuracy    <       0.00000005 Ry

     iteration #  8     ecut=    30.00 Ry     beta=0.70
     Davidson diagonalization with overlap
     ethr =  9.49E-11,  avg # of iterations =  2.0

     total cpu time spent up to now is        5.4 secs

     End of self-consistent calculation

          k = 0.0000 0.0000 0.0000 ( 22119 PWs)   bands (ev):

    -8.1512  -7.6573  -7.4593  -7.1923  -6.8982  -6.7132  -6.5778  -6.4912
    -6.3175  -5.8718  -5.7687  -5.7482  -5.6494  -5.5869  -5.5402  -5.4829
    -5.2917  -5.2007  -5.1538  -5.1017  -5.0814  -5.0143  -4.9736  -4.8951
    -4.8234  -4.4697  -4.3919  -3.6559  -2.5730  -2.3544  -0.2731  -0.1162
     0.3274   0.5105

     the Fermi energy is    -3.6239 ev

!    total energy              =    -329.45950096 Ry
     Harris-Foulkes estimate   =    -329.45950099 Ry
     estimated scf accuracy    <          4.5E-09 Ry

     The total energy is the sum of the following terms:

     one-electron contribution =    -607.94234270 Ry
     hartree contribution      =     325.54089706 Ry
     xc contribution           =     -51.38283405 Ry
     ewald contribution        =       4.32885967 Ry
     smearing contrib. (-TS)   =      -0.00408093 Ry

     convergence has been achieved in   8 iterations

     Forces acting on atoms (Ry/au):

     atom    1 type  1   force =     0.00635686    0.00628104    0.00564638
     atom    2 type  1   force =    -0.00471451    0.00262957   -0.00815311
     atom    3 type  1   force =    -0.01439088   -0.01047298   -0.01025397
     atom    4 type  1   force =     0.00734468   -0.01147363    0.00224730
     atom    5 type  1   force =     0.00540385    0.01303600    0.01051341

     Total force =     0.033609     Total SCF correction =     0.000284

     number of scf cycles    =   2
     number of bfgs steps    =   1

     energy   old            =    -329.4580524708 Ry
     energy   new            =    -329.4595009601 Ry

     CASE: energy  _new < energy  _old


     WARNING: bfgs curvature condition failed, Theta= 0.958
     new trust radius        =       0.0264516750 bohr
     new conv_thr            =       0.0000000014 Ry


ATOMIC_POSITIONS (bohr)
Au      -1.869711805   1.525156695  -0.334033719
Au       0.536967830   2.704854458   4.051416636
Au       3.163910983   2.854442539  -0.494825877
Au       4.705280509   4.838347101   5.956781696
Au       6.390818483   0.910882206   2.877678264



     Writing output data file pwscf.save
     Check: negative starting charge=   -0.006178
     NEW-OLD atomic charge density approx. for the potential
     Check: negative starting charge=   -0.006191

     negative rho (up, down):  1.487E-04 0.000E+00

     total cpu time spent up to now is        5.7 secs

     per-process dynamical memory:    50.7 Mb

     Self-consistent Calculation

     iteration #  1     ecut=    30.00 Ry     beta=0.70
     Davidson diagonalization with overlap
     ethr =  1.00E-06,  avg # of iterations =  4.0

     negative rho (up, down):  2.159E-06 0.000E+00

     total cpu time spent up to now is        6.1 secs

     total energy              =    -329.46075855 Ry
     Harris-Foulkes estimate   =    -329.46079938 Ry
     estimated scf accuracy    <       0.00016898 Ry

     iteration #  2     ecut=    30.00 Ry     beta=0.70
     Davidson diagonalization with overlap
     ethr =  3.07E-07,  avg # of iterations =  3.0

     negative rho (up, down):  4.096E-07 0.000E+00

     total cpu time spent up to now is        6.3 secs

     total energy              =    -329.46074818 Ry
     Harris-Foulkes estimate   =    -329.46090780 Ry
     estimated scf accuracy    <       0.00038788 Ry

     iteration #  3     ecut=    30.00 Ry     beta=0.70
     Davidson diagonalization with overlap
     ethr =  3.07E-07,  avg # of iterations =  2.0

     total cpu time spent up to now is        6.5 secs

     total energy              =    -329.46082482 Ry
     Harris-Foulkes estimate   =    -329.46083677 Ry
     estimated scf accuracy    <       0.00003390 Ry

     iteration #  4     ecut=    30.00 Ry     beta=0.70
     Davidson diagonalization with overlap
     ethr =  6.16E-08,  avg # of iterations =  2.0

     total cpu time spent up to now is        6.7 secs

     total energy              =    -329.46083197 Ry
     Harris-Foulkes estimate   =    -329.46083415 Ry
     estimated scf accuracy    <       0.00000773 Ry

     iteration #  5     ecut=    30.00 Ry     beta=0.70
     Davidson diagonalization with overlap
     ethr =  1.41E-08,  avg # of iterations =  2.0

     total cpu time spent up to now is        6.9 secs

     total energy              =    -329.46083313 Ry
     Harris-Foulkes estimate   =    -329.46083474 Ry
     estimated scf accuracy    <       0.00000462 Ry

     iteration #  6     ecut=    30.00 Ry     beta=0.70
     Davidson diagonalization with overlap
     ethr =  8.40E-09,  avg # of iterations =  1.0

     total cpu time spent up to now is        7.1 secs

     total energy              =    -329.46083368 Ry
     Harris-Foulkes estimate   =    -329.46083396 Ry
     estimated scf accuracy    <       0.00000017 Ry

     iteration #  7     ecut=    30.00 Ry     beta=0.70
     Davidson diagonalization with overlap
     ethr =  3.06E-10,  avg # of iterations =  3.0

     total cpu time spent up to now is        7.4 secs

     total energy              =    -329.46083371 Ry
     Harris-Foulkes estimate   =    -329.46083377 Ry
     estimated scf accuracy    <       0.00000006 Ry

     iteration #  8     ecut=    30.00 Ry     beta=0.70
     Davidson diagonalization with overlap
     ethr =  1.12E-10,  avg # of iterations =  3.0

     total cpu time spent up to now is        7.6 secs

     total energy              =    -329.46083371 Ry
     Harris-Foulkes estimate   =    -329.46083373 Ry
     estimated scf accuracy    <          7.8E-09 Ry

     iteration #  9     ecut=    30.00 Ry     beta=0.70
     Davidson diagonalization with overlap
     ethr =  1.41E-11,  avg # of iterations =  3.0

     total cpu time spent up to now is        7.8 secs

     End of self-consistent calculation

          k = 0.0000 0.0000 0.0000 ( 22119 PWs)   bands (ev):

    -8.1636  -7.6735  -7.4614  -7.1849  -6.9166  -6.7173  -6.5969  -6.4963
    -6.3223  -5.8833  -5.7812  -5.7589  -5.6449  -5.5954  -5.5456  -5.4933
    -5.2854  -5.2004  -5.1529  -5.1052  -5.0815  -5.0155  -4.9813  -4.8979
    -4.8255  -4.4619  -4.3986  -3.6413  -2.5662  -2.3531  -0.2792  -0.1119
     0.3236   0.5094

     the Fermi energy is    -3.6069 ev

!    total energy              =    -329.46083372 Ry
     Harris-Foulkes estimate   =    -329.46083371 Ry
     estimated scf accuracy    <          1.0E-09 Ry

     The total energy is the sum of the following terms:

     one-electron contribution =    -608.63010095 Ry
     hartree contribution      =     325.87733051 Ry
     xc contribution           =     -51.38524815 Ry
     ewald contribution        =       4.68182074 Ry
     smearing contrib. (-TS)   =      -0.00463586 Ry

     convergence has been achieved in   9 iterations

     Forces acting on atoms (Ry/au):

     atom    1 type  1   force =     0.00322560    0.00556947    0.00370830
     atom    2 type  1   force =    -0.00272592    0.00386549   -0.00503301
     atom    3 type  1   force =    -0.01029889   -0.01104488   -0.00907182
     atom    4 type  1   force =     0.00567463   -0.01122848    0.00272744
     atom    5 type  1   force =     0.00412458    0.01283840    0.00766909

     Total force =     0.028629     Total SCF correction =     0.000161

     number of scf cycles    =   3
     number of bfgs steps    =   2

     energy   old            =    -329.4595009601 Ry
     energy   new            =    -329.4608337154 Ry

     CASE: energy  _new < energy  _old

     new trust radius        =       0.0396775126 bohr
     new conv_thr            =       0.0000000013 Ry


ATOMIC_POSITIONS (bohr)
Au      -1.860132063   1.537521924  -0.324511999
Au       0.529352000   2.711800981   4.037860852
Au       3.138444729   2.831764325  -0.515110687
Au       4.718827056   4.814578863   5.962204598
Au       6.400774278   0.938016907   2.896574237



     Writing output data file pwscf.save
     Check: negative starting charge=   -0.006191
     NEW-OLD atomic charge density approx. for the potential
     Check: negative starting charge=   -0.006209

     negative rho (up, down):  3.740E-04 0.000E+00

     total cpu time spent up to now is        8.0 secs

     per-process dynamical memory:    50.7 Mb

     Self-consistent Calculation

     iteration #  1     ecut=    30.00 Ry     beta=0.70
     Davidson diagonalization with overlap
     ethr =  1.00E-06,  avg # of iterations =  4.0

     negative rho (up, down):  1.198E-05 0.000E+00

     total cpu time spent up to now is        8.4 secs

     total energy              =    -329.46228852 Ry
     Harris-Foulkes estimate   =    -329.46229239 Ry
     estimated scf accuracy    <       0.00036759 Ry

     iteration #  2     ecut=    30.00 Ry     beta=0.70
     Davidson diagonalization with overlap
     ethr =  6.68E-07,  avg # of iterations =  3.0

     negative rho (up, down):  3.053E-06 0.000E+00

     total cpu time spent up to now is        8.6 secs

     total energy              =    -329.46227441 Ry
     Harris-Foulkes estimate   =    -329.46259440 Ry
     estimated scf accuracy    <       0.00076155 Ry

     iteration #  3     ecut=    30.00 Ry     beta=0.70
     Davidson diagonalization with overlap
     ethr =  6.68E-07,  avg # of iterations =  2.0

     negative rho (up, down):  1.083E-07 0.000E+00

     total cpu time spent up to now is        8.8 secs

     total energy              =    -329.46242461 Ry
     Harris-Foulkes estimate   =    -329.46245826 Ry
     estimated scf accuracy    <       0.00009354 Ry

     iteration #  4     ecut=    30.00 Ry     beta=0.70
     Davidson diagonalization with overlap
     ethr =  1.70E-07,  avg # of iterations =  2.0

     total cpu time spent up to now is        9.0 secs

     total energy              =    -329.46244229 Ry
     Harris-Foulkes estimate   =    -329.46244915 Ry
     estimated scf accuracy    <       0.00001961 Ry

     iteration #  5     ecut=    30.00 Ry     beta=0.70
     Davidson diagonalization with overlap
     ethr =  3.57E-08,  avg # of iterations =  2.0

     total cpu time spent up to now is        9.3 secs

     total energy              =    -329.46244538 Ry
     Harris-Foulkes estimate   =    -329.46244951 Ry
     estimated scf accuracy    <       0.00001209 Ry

     iteration #  6     ecut=    30.00 Ry     beta=0.70
     Davidson diagonalization with overlap
     ethr =  2.20E-08,  avg # of iterations =  1.0

     total cpu time spent up to now is        9.4 secs

     total energy              =    -329.46244717 Ry
     Harris-Foulkes estimate   =    -329.46244739 Ry
     estimated scf accuracy    <       0.00000026 Ry

     iteration #  7     ecut=    30.00 Ry     beta=0.70
     Davidson diagonalization with overlap
     ethr =  4.79E-10,  avg # of iterations =  3.0

     total cpu time spent up to now is        9.7 secs

     total energy              =    -329.46244747 Ry
     Harris-Foulkes estimate   =    -329.46244734 Ry
     estimated scf accuracy    <       0.00000011 Ry

     iteration #  8     ecut=    30.00 Ry     beta=0.70
     Davidson diagonalization with overlap
     ethr =  2.01E-10,  avg # of iterations =  3.0

     total cpu time spent up to now is        9.9 secs

     total energy              =    -329.46244749 Ry
     Harris-Foulkes estimate   =    -329.46244750 Ry
     estimated scf accuracy    <       0.00000002 Ry

     iteration #  9     ecut=    30.00 Ry     beta=0.70
     Davidson diagonalization with overlap
     ethr =  3.27E-11,  avg # of iterations =  3.0

     total cpu time spent up to now is       10.1 secs

     total energy              =    -329.46244749 Ry
     Harris-Foulkes estimate   =    -329.46244750 Ry
     estimated scf accuracy    <          1.9E-09 Ry

     iteration # 10     ecut=    30.00 Ry     beta=0.70
     Davidson diagonalization with overlap
     ethr =  3.47E-12,  avg # of iterations =  3.0

     total cpu time spent up to now is       10.3 secs

     End of self-consistent calculation

          k = 0.0000 0.0000 0.0000 ( 22119 PWs)   bands (ev):

    -8.1845  -7.6933  -7.4672  -7.1802  -6.9479  -6.7255  -6.6238  -6.5051
    -6.3294  -5.9027  -5.8066  -5.7684  -5.6375  -5.6086  -5.5572  -5.4969
    -5.2769  -5.1993  -5.1521  -5.1111  -5.0803  -5.0175  -4.9867  -4.9012
    -4.8280  -4.4514  -4.4066  -3.6223  -2.5544  -2.3511  -0.2885  -0.1075
     0.3204   0.5075

     the Fermi energy is    -3.5854 ev

!    total energy              =    -329.46244751 Ry
     Harris-Foulkes estimate   =    -329.46244749 Ry
     estimated scf accuracy    <          4.2E-10 Ry

     The total energy is the sum of the following terms:

     one-electron contribution =    -609.62372908 Ry
     hartree contribution      =     326.36313261 Ry
     xc contribution           =     -51.38952191 Ry
     ewald contribution        =       5.19290738 Ry
     smearing contrib. (-TS)   =      -0.00523651 Ry

     convergence has been achieved in  10 iterations

     Forces acting on atoms (Ry/au):

     atom    1 type  1   force =    -0.00130387    0.00437322    0.00097932
     atom    2 type  1   force =    -0.00045873    0.00503013   -0.00142501
     atom    3 type  1   force =    -0.00442706   -0.01123597   -0.00748678
     atom    4 type  1   force =     0.00338434   -0.01036507    0.00378966
     atom    5 type  1   force =     0.00280532    0.01219769    0.00414282

     Total force =     0.023628     Total SCF correction =     0.000101

     number of scf cycles    =   4
     number of bfgs steps    =   3

     energy   old            =    -329.4608337154 Ry
     energy   new            =    -329.4624475119 Ry

     CASE: energy  _new < energy  _old

     new trust radius        =       0.0595162688 bohr
     new conv_thr            =       0.0000000012 Ry


ATOMIC_POSITIONS (bohr)
Au      -1.851298733   1.556247981  -0.312921695
Au       0.520083746   2.725103121   4.020720426
Au       3.105155396   2.793732048  -0.546536034
Au       4.737881884   4.776381166   5.973035234
Au       6.415443706   0.982218684   2.922719069



     Writing output data file pwscf.save
     Check: negative starting charge=   -0.006209
     NEW-OLD atomic charge density approx. for the potential
     Check: negative starting charge=   -0.006228

     negative rho (up, down):  8.309E-04 0.000E+00

     total cpu time spent up to now is       10.6 secs

     per-process dynamical memory:    50.7 Mb

     Self-consistent Calculation

     iteration #  1     ecut=    30.00 Ry     beta=0.70
     Davidson diagonalization with overlap
     ethr =  1.00E-06,  avg # of iterations =  6.0

     negative rho (up, down):  4.676E-05 0.000E+00

     total cpu time spent up to now is       11.0 secs

     total energy              =    -329.46376878 Ry
     Harris-Foulkes estimate   =    -329.46349082 Ry
     estimated scf accuracy    <       0.00083414 Ry

     iteration #  2     ecut=    30.00 Ry     beta=0.70
     Davidson diagonalization with overlap
     ethr =  1.52E-06,  avg # of iterations =  5.0

     negative rho (up, down):  1.550E-05 0.000E+00

     total cpu time spent up to now is       11.3 secs

     total energy              =    -329.46374668 Ry
     Harris-Foulkes estimate   =    -329.46443254 Ry
     estimated scf accuracy    <       0.00162157 Ry

     iteration #  3     ecut=    30.00 Ry     beta=0.70
     Davidson diagonalization with overlap
     ethr =  1.52E-06,  avg # of iterations =  2.0

     negative rho (up, down):  1.342E-06 0.000E+00

     total cpu time spent up to now is       11.5 secs

     total energy              =    -329.46406391 Ry
     Harris-Foulkes estimate   =    -329.46415538 Ry
     estimated scf accuracy    <       0.00025745 Ry

     iteration #  4     ecut=    30.00 Ry     beta=0.70
     Davidson diagonalization with overlap
     ethr =  4.68E-07,  avg # of iterations =  2.0

     total cpu time spent up to now is       11.7 secs

     total energy              =    -329.46411212 Ry
     Harris-Foulkes estimate   =    -329.46412748 Ry
     estimated scf accuracy    <       0.00004554 Ry

     iteration #  5     ecut=    30.00 Ry     beta=0.70
     Davidson diagonalization with overlap
     ethr =  8.28E-08,  avg # of iterations =  2.0

     total cpu time spent up to now is       11.9 secs

     total energy              =    -329.46411997 Ry
     Harris-Foulkes estimate   =    -329.46412959 Ry
     estimated scf accuracy    <       0.00002885 Ry

     iteration #  6     ecut=    30.00 Ry     beta=0.70
     Davidson diagonalization with overlap
     ethr =  5.24E-08,  avg # of iterations =  1.0

     total cpu time spent up to now is       12.1 secs

     total energy              =    -329.46412440 Ry
     Harris-Foulkes estimate   =    -329.46412468 Ry
     estimated scf accuracy    <       0.00000057 Ry

     iteration #  7     ecut=    30.00 Ry     beta=0.70
     Davidson diagonalization with overlap
     ethr =  1.03E-09,  avg # of iterations =  3.0

     total cpu time spent up to now is       12.3 secs

     total energy              =    -329.46412457 Ry
     Harris-Foulkes estimate   =    -329.46412477 Ry
     estimated scf accuracy    <       0.00000024 Ry

     iteration #  8     ecut=    30.00 Ry     beta=0.70
     Davidson diagonalization with overlap
     ethr =  4.35E-10,  avg # of iterations =  2.0

     total cpu time spent up to now is       12.6 secs

     total energy              =    -329.46412447 Ry
     Harris-Foulkes estimate   =    -329.46412464 Ry
     estimated scf accuracy    <       0.00000004 Ry

     iteration #  9     ecut=    30.00 Ry     beta=0.70
     Davidson diagonalization with overlap
     ethr =  7.13E-11,  avg # of iterations =  2.0

     total cpu time spent up to now is       12.8 secs

     total energy              =    -329.46412437 Ry
     Harris-Foulkes estimate   =    -329.46412448 Ry
     estimated scf accuracy    <          4.9E-09 Ry

     iteration # 10     ecut=    30.00 Ry     beta=0.70
     Davidson diagonalization with overlap
     ethr =  8.97E-12,  avg # of iterations =  3.0

     total cpu time spent up to now is       13.1 secs

     total energy              =    -329.46412436 Ry
     Harris-Foulkes estimate   =    -329.46412437 Ry
     estimated scf accuracy    <          1.3E-09 Ry

     iteration # 11     ecut=    30.00 Ry     beta=0.70
     Davidson diagonalization with overlap
     ethr =  2.28E-12,  avg # of iterations =  3.0

     total cpu time spent up to now is       13.3 secs

     End of self-consistent calculation

          k = 0.0000 0.0000 0.0000 ( 22119 PWs)   bands (ev):

    -8.2159  -7.7169  -7.4784  -7.1858  -6.9967  -6.7385  -6.6602  -6.5165
    -6.3409  -5.9350  -5.8491  -5.7748  -5.6382  -5.6188  -5.5731  -5.4913
    -5.2655  -5.1972  -5.1518  -5.1186  -5.0780  -5.0218  -4.9864  -4.9055
    -4.8318  -4.4389  -4.4159  -3.5983  -2.5356  -2.3481  -0.3025  -0.1036
     0.3188   0.5039

     the Fermi energy is    -3.5590 ev

!    total energy              =    -329.46412436 Ry
     Harris-Foulkes estimate   =    -329.46412436 Ry
     estimated scf accuracy    <          1.0E-10 Ry

     The total energy is the sum of the following terms:

     one-electron contribution =    -610.93263855 Ry
     hartree contribution      =     327.00198067 Ry
     xc contribution           =     -51.39636551 Ry
     ewald contribution        =       5.86875519 Ry
     smearing contrib. (-TS)   =      -0.00585615 Ry

     convergence has been achieved in  11 iterations

     Forces acting on atoms (Ry/au):

     atom    1 type  1   force =    -0.00797242    0.00231780   -0.00263046
     atom    2 type  1   force =     0.00196935    0.00577639    0.00261637
     atom    3 type  1   force =     0.00470839   -0.01068009   -0.00520609
     atom    4 type  1   force =    -0.00029024   -0.00770402    0.00617599
     atom    5 type  1   force =     0.00158492    0.01028992   -0.00095581

     Total force =     0.022140     Total SCF correction =     0.000045

     number of scf cycles    =   5
     number of bfgs steps    =   4

     energy   old            =    -329.4624475119 Ry
     energy   new            =    -329.4641243555 Ry

     CASE: energy  _new < energy  _old

     new trust radius        =       0.0865292006 bohr
     new conv_thr            =       0.0000000011 Ry


ATOMIC_POSITIONS (bohr)
Au      -1.850976209   1.583160505  -0.301311521
Au       0.509621948   2.748855031   4.000454832
Au       3.069089972   2.731311492  -0.594392716
Au       4.761942853   4.718245945   5.996531806
Au       6.437587437   1.052110027   2.955734599



     Writing output data file pwscf.save
     Check: negative starting charge=   -0.006228
     NEW-OLD atomic charge density approx. for the potential
     Check: negative starting charge=   -0.006229

     negative rho (up, down):  1.620E-03 0.000E+00

     total cpu time spent up to now is       13.6 secs

     per-process dynamical memory:    50.7 Mb

     Self-consistent Calculation

     iteration #  1     ecut=    30.00 Ry     beta=0.70
     Davidson diagonalization with overlap
     ethr =  1.00E-06,  avg # of iterations =  8.0

     negative rho (up, down):  1.342E-04 0.000E+00

     total cpu time spent up to now is       14.0 secs

     total energy              =    -329.46474716 Ry
     Harris-Foulkes estimate   =    -329.46403816 Ry
     estimated scf accuracy    <       0.00185694 Ry

     iteration #  2     ecut=    30.00 Ry     beta=0.70
     Davidson diagonalization with overlap
     ethr =  3.38E-06,  avg # of iterations =  5.0

     negative rho (up, down):  5.250E-05 0.000E+00

     total cpu time spent up to now is       14.3 secs

     total energy              =    -329.46473341 Ry
     Harris-Foulkes estimate   =    -329.46615384 Ry
     estimated scf accuracy    <       0.00334340 Ry

     iteration #  3     ecut=    30.00 Ry     beta=0.70
     Davidson diagonalization with overlap
     ethr =  3.38E-06,  avg # of iterations =  3.0

     negative rho (up, down):  9.234E-06 0.000E+00

     total cpu time spent up to now is       14.6 secs

     total energy              =    -329.46537797 Ry
     Harris-Foulkes estimate   =    -329.46562757 Ry
     estimated scf accuracy    <       0.00071880 Ry

     iteration #  4     ecut=    30.00 Ry     beta=0.70
     Davidson diagonalization with overlap
     ethr =  1.31E-06,  avg # of iterations =  2.0

     total cpu time spent up to now is       14.8 secs

     total energy              =    -329.46550918 Ry
     Harris-Foulkes estimate   =    -329.46553744 Ry
     estimated scf accuracy    <       0.00008643 Ry

     iteration #  5     ecut=    30.00 Ry     beta=0.70
     Davidson diagonalization with overlap
     ethr =  1.57E-07,  avg # of iterations =  2.0

     total cpu time spent up to now is       15.0 secs

     total energy              =    -329.46552493 Ry
     Harris-Foulkes estimate   =    -329.46554424 Ry
     estimated scf accuracy    <       0.00005600 Ry

     iteration #  6     ecut=    30.00 Ry     beta=0.70
     Davidson diagonalization with overlap
     ethr =  1.02E-07,  avg # of iterations =  1.0

     total cpu time spent up to now is       15.2 secs

     total energy              =    -329.46553380 Ry
     Harris-Foulkes estimate   =    -329.46553437 Ry
     estimated scf accuracy    <       0.00000150 Ry

     iteration #  7     ecut=    30.00 Ry     beta=0.70
     Davidson diagonalization with overlap
     ethr =  2.73E-09,  avg # of iterations =  3.0

     total cpu time spent up to now is       15.4 secs

     total energy              =    -329.46553440 Ry
     Harris-Foulkes estimate   =    -329.46553455 Ry
     estimated scf accuracy    <       0.00000041 Ry

     iteration #  8     ecut=    30.00 Ry     beta=0.70
     Davidson diagonalization with overlap
     ethr =  7.43E-10,  avg # of iterations =  3.0

     total cpu time spent up to now is       15.7 secs

     total energy              =    -329.46553447 Ry
     Harris-Foulkes estimate   =    -329.46553453 Ry
     estimated scf accuracy    <       0.00000009 Ry

     iteration #  9     ecut=    30.00 Ry     beta=0.70
     Davidson diagonalization with overlap
     ethr =  1.64E-10,  avg # of iterations =  3.0

     total cpu time spent up to now is       15.9 secs

     total energy              =    -329.46553453 Ry
     Harris-Foulkes estimate   =    -329.46553449 Ry
     estimated scf accuracy    <       0.00000002 Ry

     iteration # 10     ecut=    30.00 Ry     beta=0.70
     Davidson diagonalization with overlap
     ethr =  3.09E-11,  avg # of iterations =  3.0

     total cpu time spent up to now is       16.1 secs

     total energy              =    -329.46553455 Ry
     Harris-Foulkes estimate   =    -329.46553454 Ry
     estimated scf accuracy    <          3.9E-09 Ry

     iteration # 11     ecut=    30.00 Ry     beta=0.70
     Davidson diagonalization with overlap
     ethr =  7.17E-12,  avg # of iterations =  2.0

     total cpu time spent up to now is       16.4 secs

     End of self-consistent calculation

          k = 0.0000 0.0000 0.0000 ( 22119 PWs)   bands (ev):

    -8.2486  -7.7432  -7.4950  -7.2218  -7.0500  -6.7547  -6.7002  -6.5267
    -6.3570  -5.9835  -5.9040  -5.7766  -5.6642  -5.6187  -5.5724  -5.4806
    -5.2531  -5.1944  -5.1519  -5.1254  -5.0760  -5.0260  -4.9799  -4.9114
    -4.8389  -4.4349  -4.4204  -3.5736  -2.5111  -2.3443  -0.3232  -0.1036
     0.3225   0.4957

     the Fermi energy is    -3.5323 ev

!    total energy              =    -329.46553458 Ry
     Harris-Foulkes estimate   =    -329.46553455 Ry
     estimated scf accuracy    <          2.0E-10 Ry

     The total energy is the sum of the following terms:

     one-electron contribution =    -612.15323530 Ry
     hartree contribution      =     327.59273206 Ry
     xc contribution           =     -51.40535244 Ry
     ewald contribution        =       6.50671643 Ry
     smearing contrib. (-TS)   =      -0.00639532 Ry

     convergence has been achieved in  11 iterations

     Forces acting on atoms (Ry/au):

     atom    1 type  1   force =    -0.01488535    0.00025350   -0.00593175
     atom    2 type  1   force =     0.00527639    0.00628762    0.00646877
     atom    3 type  1   force =     0.01257530   -0.01125781   -0.00350831
     atom    4 type  1   force =    -0.00496409   -0.00006170    0.01162476
     atom    5 type  1   force =     0.00199775    0.00477838   -0.00865347

     Total force =     0.030409     Total SCF correction =     0.000066

     number of scf cycles    =   6
     number of bfgs steps    =   5

     energy   old            =    -329.4641243555 Ry
     energy   new            =    -329.4655345776 Ry

     CASE: energy  _new < energy  _old

     new trust radius        =       0.0591622490 bohr
     new conv_thr            =       0.0000000014 Ry


ATOMIC_POSITIONS (bohr)
Au      -1.864395249   1.599568487  -0.299290909
Au       0.507667102   2.768124653   3.992776267
Au       3.058041135   2.683311211  -0.627165691
Au       4.771667215   4.685948757   6.023372440
Au       6.454285797   1.096729892   2.967324893



     Writing output data file pwscf.save
     Check: negative starting charge=   -0.006229
     NEW-OLD atomic charge density approx. for the potential
     Check: negative starting charge=   -0.006214

     negative rho (up, down):  8.044E-04 0.000E+00

     total cpu time spent up to now is       16.6 secs

     per-process dynamical memory:    50.7 Mb

     Self-consistent Calculation

     iteration #  1     ecut=    30.00 Ry     beta=0.70
     Davidson diagonalization with overlap
     ethr =  1.00E-06,  avg # of iterations =  6.0

     negative rho (up, down):  4.450E-05 0.000E+00

     total cpu time spent up to now is       17.0 secs

     total energy              =    -329.46609541 Ry
     Harris-Foulkes estimate   =    -329.46592584 Ry
     estimated scf accuracy    <       0.00086032 Ry

     iteration #  2     ecut=    30.00 Ry     beta=0.70
     Davidson diagonalization with overlap
     ethr =  1.56E-06,  avg # of iterations =  5.0

     negative rho (up, down):  1.257E-05 0.000E+00

     total cpu time spent up to now is       17.3 secs

     total energy              =    -329.46613285 Ry
     Harris-Foulkes estimate   =    -329.46671615 Ry
     estimated scf accuracy    <       0.00132564 Ry

     iteration #  3     ecut=    30.00 Ry     beta=0.70
     Davidson diagonalization with overlap
     ethr =  1.56E-06,  avg # of iterations =  3.0

     negative rho (up, down):  1.709E-06 0.000E+00

     total cpu time spent up to now is       17.5 secs

     total energy              =    -329.46637753 Ry
     Harris-Foulkes estimate   =    -329.46650438 Ry
     estimated scf accuracy    <       0.00035960 Ry

     iteration #  4     ecut=    30.00 Ry     beta=0.70
     Davidson diagonalization with overlap
     ethr =  6.54E-07,  avg # of iterations =  2.0

     total cpu time spent up to now is       17.7 secs

     total energy              =    -329.46644610 Ry
     Harris-Foulkes estimate   =    -329.46645492 Ry
     estimated scf accuracy    <       0.00003294 Ry

     iteration #  5     ecut=    30.00 Ry     beta=0.70
     Davidson diagonalization with overlap
     ethr =  5.99E-08,  avg # of iterations =  3.0

     total cpu time spent up to now is       17.9 secs

     total energy              =    -329.46645163 Ry
     Harris-Foulkes estimate   =    -329.46645734 Ry
     estimated scf accuracy    <       0.00001489 Ry

     iteration #  6     ecut=    30.00 Ry     beta=0.70
     Davidson diagonalization with overlap
     ethr =  2.71E-08,  avg # of iterations =  2.0

     total cpu time spent up to now is       18.1 secs

     total energy              =    -329.46645443 Ry
     Harris-Foulkes estimate   =    -329.46645442 Ry
     estimated scf accuracy    <       0.00000075 Ry

     iteration #  7     ecut=    30.00 Ry     beta=0.70
     Davidson diagonalization with overlap
     ethr =  1.36E-09,  avg # of iterations =  3.0

     total cpu time spent up to now is       18.4 secs

     total energy              =    -329.46645446 Ry
     Harris-Foulkes estimate   =    -329.46645467 Ry
     estimated scf accuracy    <       0.00000012 Ry

     iteration #  8     ecut=    30.00 Ry     beta=0.70
     Davidson diagonalization with overlap
     ethr =  2.27E-10,  avg # of iterations =  2.0

     total cpu time spent up to now is       18.6 secs

     total energy              =    -329.46645440 Ry
     Harris-Foulkes estimate   =    -329.46645451 Ry
     estimated scf accuracy    <       0.00000004 Ry

     iteration #  9     ecut=    30.00 Ry     beta=0.70
     Davidson diagonalization with overlap
     ethr =  6.76E-11,  avg # of iterations =  2.0

     total cpu time spent up to now is       18.8 secs

     total energy              =    -329.46645441 Ry
     Harris-Foulkes estimate   =    -329.46645441 Ry
     estimated scf accuracy    <          6.0E-09 Ry

     iteration # 10     ecut=    30.00 Ry     beta=0.70
     Davidson diagonalization with overlap
     ethr =  1.09E-11,  avg # of iterations =  2.0

     total cpu time spent up to now is       19.1 secs

     total energy              =    -329.46645442 Ry
     Harris-Foulkes estimate   =    -329.46645441 Ry
     estimated scf accuracy    <          1.4E-09 Ry

     iteration # 11     ecut=    30.00 Ry     beta=0.70
     Davidson diagonalization with overlap
     ethr =  2.61E-12,  avg # of iterations =  2.0

     total cpu time spent up to now is       19.2 secs

     End of self-consistent calculation

          k = 0.0000 0.0000 0.0000 ( 22119 PWs)   bands (ev):

    -8.2451  -7.7450  -7.4978  -7.2479  -7.0576  -6.7612  -6.7055  -6.5244
    -6.3568  -6.0065  -5.9224  -5.7721  -5.6746  -5.6204  -5.5630  -5.4752
    -5.2492  -5.1916  -5.1519  -5.1301  -5.0779  -5.0267  -4.9787  -4.9158
    -4.8467  -4.4414  -4.4227  -3.5717  -2.5008  -2.3439  -0.3357  -0.1095
     0.3297   0.4868

     the Fermi energy is    -3.5300 ev

!    total energy              =    -329.46645440 Ry
     Harris-Foulkes estimate   =    -329.46645442 Ry
     estimated scf accuracy    <          5.4E-11 Ry

     The total energy is the sum of the following terms:

     one-electron contribution =    -611.78074990 Ry
     hartree contribution      =     327.40038439 Ry
     xc contribution           =     -51.40680335 Ry
     ewald contribution        =       6.32722313 Ry
     smearing contrib. (-TS)   =      -0.00650866 Ry

     convergence has been achieved in  11 iterations

     Forces acting on atoms (Ry/au):

     atom    1 type  1   force =    -0.01557639   -0.00031497   -0.00629667
     atom    2 type  1   force =     0.00624462    0.00566681    0.00562464
     atom    3 type  1   force =     0.01396624   -0.00984039   -0.00048634
     atom    4 type  1   force =    -0.00712789    0.00410657    0.01438558
     atom    5 type  1   force =     0.00249341    0.00038198   -0.01322721

     Total force =     0.033663     Total SCF correction =     0.000032

     number of scf cycles    =   7
     number of bfgs steps    =   6

     energy   old            =    -329.4655345776 Ry
     energy   new            =    -329.4664543970 Ry

     CASE: energy  _new < energy  _old

     new trust radius        =       0.0650784740 bohr
     new conv_thr            =       0.0000000009 Ry


ATOMIC_POSITIONS (bohr)
Au      -1.891454858   1.615653091  -0.302533387
Au       0.510862964   2.791723712   3.988596407
Au       3.059000128   2.627109777  -0.659963358
Au       4.774696267   4.659131458   6.064519623
Au       6.474161499   1.140064961   2.966397716



     Writing output data file pwscf.save
     Check: negative starting charge=   -0.006214
     NEW-OLD atomic charge density approx. for the potential
     Check: negative starting charge=   -0.006187

     negative rho (up, down):  9.600E-04 0.000E+00

     total cpu time spent up to now is       19.5 secs

     per-process dynamical memory:    50.7 Mb

     Self-consistent Calculation

     iteration #  1     ecut=    30.00 Ry     beta=0.70
     Davidson diagonalization with overlap
     ethr =  1.00E-06,  avg # of iterations =  6.0

     negative rho (up, down):  5.982E-05 0.000E+00

     total cpu time spent up to now is       19.9 secs

     total energy              =    -329.46757629 Ry
     Harris-Foulkes estimate   =    -329.46734371 Ry
     estimated scf accuracy    <       0.00108238 Ry

     iteration #  2     ecut=    30.00 Ry     beta=0.70
     Davidson diagonalization with overlap
     ethr =  1.97E-06,  avg # of iterations =  5.0

     negative rho (up, down):  1.642E-05 0.000E+00

     total cpu time spent up to now is       20.1 secs

     total energy              =    -329.46768478 Ry
     Harris-Foulkes estimate   =    -329.46831146 Ry
     estimated scf accuracy    <       0.00138799 Ry

     iteration #  3     ecut=    30.00 Ry     beta=0.70
     Davidson diagonalization with overlap
     ethr =  1.97E-06,  avg # of iterations =  2.0

     negative rho (up, down):  2.672E-06 0.000E+00

     total cpu time spent up to now is       20.3 secs

     total energy              =    -329.46793572 Ry
     Harris-Foulkes estimate   =    -329.46807350 Ry
     estimated scf accuracy    <       0.00037664 Ry

     iteration #  4     ecut=    30.00 Ry     beta=0.70
     Davidson diagonalization with overlap
     ethr =  6.85E-07,  avg # of iterations =  2.0

     total cpu time spent up to now is       20.5 secs

     total energy              =    -329.46801459 Ry
     Harris-Foulkes estimate   =    -329.46802734 Ry
     estimated scf accuracy    <       0.00005153 Ry

     iteration #  5     ecut=    30.00 Ry     beta=0.70
     Davidson diagonalization with overlap
     ethr =  9.37E-08,  avg # of iterations =  2.0

     total cpu time spent up to now is       20.7 secs

     total energy              =    -329.46802303 Ry
     Harris-Foulkes estimate   =    -329.46802663 Ry
     estimated scf accuracy    <       0.00000770 Ry

     iteration #  6     ecut=    30.00 Ry     beta=0.70
     Davidson diagonalization with overlap
     ethr =  1.40E-08,  avg # of iterations =  2.0

     total cpu time spent up to now is       21.0 secs

     total energy              =    -329.46802454 Ry
     Harris-Foulkes estimate   =    -329.46802466 Ry
     estimated scf accuracy    <       0.00000038 Ry

     iteration #  7     ecut=    30.00 Ry     beta=0.70
     Davidson diagonalization with overlap
     ethr =  7.00E-10,  avg # of iterations =  2.0

     total cpu time spent up to now is       21.2 secs

     total energy              =    -329.46802441 Ry
     Harris-Foulkes estimate   =    -329.46802468 Ry
     estimated scf accuracy    <       0.00000015 Ry

     iteration #  8     ecut=    30.00 Ry     beta=0.70
     Davidson diagonalization with overlap
     ethr =  2.75E-10,  avg # of iterations =  2.0

     total cpu time spent up to now is       21.4 secs

     total energy              =    -329.46802446 Ry
     Harris-Foulkes estimate   =    -329.46802446 Ry
     estimated scf accuracy    <       0.00000005 Ry

     iteration #  9     ecut=    30.00 Ry     beta=0.70
     Davidson diagonalization with overlap
     ethr =  9.84E-11,  avg # of iterations =  2.0

     total cpu time spent up to now is       21.6 secs

     total energy              =    -329.46802447 Ry
     Harris-Foulkes estimate   =    -329.46802447 Ry
     estimated scf accuracy    <          2.2E-09 Ry

     iteration # 10     ecut=    30.00 Ry     beta=0.70
     Davidson diagonalization with overlap
     ethr =  4.08E-12,  avg # of iterations =  3.0

     total cpu time spent up to now is       21.8 secs

     End of self-consistent calculation

          k = 0.0000 0.0000 0.0000 ( 22119 PWs)   bands (ev):

    -8.2188  -7.7276  -7.4898  -7.2604  -7.0487  -6.7618  -6.6916  -6.5102
    -6.3437  -6.0199  -5.9220  -5.7625  -5.6768  -5.6171  -5.5562  -5.4712
    -5.2474  -5.1889  -5.1534  -5.1375  -5.0841  -5.0259  -4.9820  -4.9213
    -4.8582  -4.4490  -4.4316  -3.5847  -2.4967  -2.3448  -0.3473  -0.1215
     0.3418   0.4745

     the Fermi energy is    -3.5433 ev

!    total energy              =    -329.46802448 Ry
     Harris-Foulkes estimate   =    -329.46802447 Ry
     estimated scf accuracy    <          7.2E-10 Ry

     The total energy is the sum of the following terms:

     one-electron contribution =    -610.24075299 Ry
     hartree contribution      =     326.63104466 Ry
     xc contribution           =     -51.40318622 Ry
     ewald contribution        =       5.55129391 Ry
     smearing contrib. (-TS)   =      -0.00642385 Ry

     convergence has been achieved in  10 iterations

     Forces acting on atoms (Ry/au):

     atom    1 type  1   force =    -0.01160843    0.00043580   -0.00456821
     atom    2 type  1   force =     0.00610470    0.00514596    0.00246216
     atom    3 type  1   force =     0.01132789   -0.01073792    0.00142694
     atom    4 type  1   force =    -0.00804468    0.00651194    0.01544835
     atom    5 type  1   force =     0.00222053   -0.00135578   -0.01476924

     Total force =     0.032279     Total SCF correction =     0.000094

     number of scf cycles    =   8
     number of bfgs steps    =   7

     energy   old            =    -329.4664543970 Ry
     energy   new            =    -329.4680244838 Ry

     CASE: energy  _new < energy  _old

     new trust radius        =       0.0976177109 bohr
     new conv_thr            =       0.0000000015 Ry


ATOMIC_POSITIONS (bohr)
Au      -1.930012745   1.640058281  -0.306755071
Au       0.517077710   2.827152816   3.979988124
Au       3.060917327   2.540854584  -0.705631547
Au       4.775938282   4.624105514   6.129838476
Au       6.503345426   1.201511805   2.959577018



     Writing output data file pwscf.save
     Check: negative starting charge=   -0.006187
     NEW-OLD atomic charge density approx. for the potential
     Check: negative starting charge=   -0.006175

     negative rho (up, down):  1.843E-03 0.000E+00

     total cpu time spent up to now is       22.0 secs

     per-process dynamical memory:    50.7 Mb

     Self-consistent Calculation

     iteration #  1     ecut=    30.00 Ry     beta=0.70
     Davidson diagonalization with overlap
     ethr =  1.00E-06,  avg # of iterations =  9.0

     negative rho (up, down):  1.634E-04 0.000E+00

     total cpu time spent up to now is       22.5 secs

     total energy              =    -329.46928686 Ry
     Harris-Foulkes estimate   =    -329.46868725 Ry
     estimated scf accuracy    <       0.00238092 Ry

     iteration #  2     ecut=    30.00 Ry     beta=0.70
     Davidson diagonalization with overlap
     ethr =  4.33E-06,  avg # of iterations =  5.0

     negative rho (up, down):  5.308E-05 0.000E+00

     total cpu time spent up to now is       22.8 secs

     total energy              =    -329.46963237 Ry
     Harris-Foulkes estimate   =    -329.47082568 Ry
     estimated scf accuracy    <       0.00264362 Ry

     iteration #  3     ecut=    30.00 Ry     beta=0.70
     Davidson diagonalization with overlap
     ethr =  4.33E-06,  avg # of iterations =  2.0

     negative rho (up, down):  1.155E-05 0.000E+00

     total cpu time spent up to now is       23.0 secs

     total energy              =    -329.47011315 Ry
     Harris-Foulkes estimate   =    -329.47034966 Ry
     estimated scf accuracy    <       0.00062004 Ry

     iteration #  4     ecut=    30.00 Ry     beta=0.70
     Davidson diagonalization with overlap
     ethr =  1.13E-06,  avg # of iterations =  2.0

     total cpu time spent up to now is       23.2 secs

     total energy              =    -329.47025007 Ry
     Harris-Foulkes estimate   =    -329.47029363 Ry
     estimated scf accuracy    <       0.00015290 Ry

     iteration #  5     ecut=    30.00 Ry     beta=0.70
     Davidson diagonalization with overlap
     ethr =  2.78E-07,  avg # of iterations =  2.0

     total cpu time spent up to now is       23.4 secs

     total energy              =    -329.47027387 Ry
     Harris-Foulkes estimate   =    -329.47028006 Ry
     estimated scf accuracy    <       0.00001394 Ry

     iteration #  6     ecut=    30.00 Ry     beta=0.70
     Davidson diagonalization with overlap
     ethr =  2.53E-08,  avg # of iterations =  2.0

     total cpu time spent up to now is       23.6 secs

     total energy              =    -329.47027715 Ry
     Harris-Foulkes estimate   =    -329.47027741 Ry
     estimated scf accuracy    <       0.00000050 Ry

     iteration #  7     ecut=    30.00 Ry     beta=0.70
     Davidson diagonalization with overlap
     ethr =  9.05E-10,  avg # of iterations =  3.0

     total cpu time spent up to now is       23.8 secs

     total energy              =    -329.47027719 Ry
     Harris-Foulkes estimate   =    -329.47027739 Ry
     estimated scf accuracy    <       0.00000031 Ry

     iteration #  8     ecut=    30.00 Ry     beta=0.70
     Davidson diagonalization with overlap
     ethr =  5.58E-10,  avg # of iterations =  2.0

     total cpu time spent up to now is       24.1 secs

     total energy              =    -329.47027722 Ry
     Harris-Foulkes estimate   =    -329.47027729 Ry
     estimated scf accuracy    <       0.00000009 Ry

     iteration #  9     ecut=    30.00 Ry     beta=0.70
     Davidson diagonalization with overlap
     ethr =  1.62E-10,  avg # of iterations =  2.0

     total cpu time spent up to now is       24.3 secs

     total energy              =    -329.47027729 Ry
     Harris-Foulkes estimate   =    -329.47027724 Ry
     estimated scf accuracy    <          4.7E-09 Ry

     iteration # 10     ecut=    30.00 Ry     beta=0.70
     Davidson diagonalization with overlap
     ethr =  8.63E-12,  avg # of iterations =  3.0

     total cpu time spent up to now is       24.5 secs

     End of self-consistent calculation

          k = 0.0000 0.0000 0.0000 ( 22119 PWs)   bands (ev):

    -8.1844  -7.6991  -7.4795  -7.2644  -7.0358  -6.7581  -6.6706  -6.4877
    -6.3164  -6.0350  -5.9184  -5.7483  -5.6787  -5.6125  -5.5463  -5.4644
    -5.2441  -5.1887  -5.1559  -5.1482  -5.0953  -5.0259  -4.9881  -4.9278
    -4.8753  -4.4600  -4.4463  -3.6072  -2.4966  -2.3421  -0.3637  -0.1403
     0.3606   0.4584

     the Fermi energy is    -3.5665 ev

!    total energy              =    -329.47027729 Ry
     Harris-Foulkes estimate   =    -329.47027729 Ry
     estimated scf accuracy    <          7.9E-10 Ry

     The total energy is the sum of the following terms:

     one-electron contribution =    -607.81739615 Ry
     hartree contribution      =     325.42159494 Ry
     xc contribution           =     -51.39712244 Ry
     ewald contribution        =       4.32888248 Ry
     smearing contrib. (-TS)   =      -0.00623613 Ry

     convergence has been achieved in  10 iterations

     Forces acting on atoms (Ry/au):

     atom    1 type  1   force =    -0.00671711    0.00134020   -0.00205883
     atom    2 type  1   force =     0.00647632    0.00387874   -0.00121057
     atom    3 type  1   force =     0.00776258   -0.01101239    0.00358470
     atom    4 type  1   force =    -0.00964789    0.00804170    0.01561373
     atom    5 type  1   force =     0.00212610   -0.00224825   -0.01592903

     Total force =     0.031126     Total SCF correction =     0.000111

     number of scf cycles    =   9
     number of bfgs steps    =   8

     energy   old            =    -329.4680244838 Ry
     energy   new            =    -329.4702772893 Ry

     CASE: energy  _new < energy  _old

     new trust radius        =       0.1464265664 bohr
     new conv_thr            =       0.0000000016 Ry


ATOMIC_POSITIONS (bohr)
Au      -1.984732989   1.677430656  -0.311279432
Au       0.528812470   2.879548885   3.963771291
Au       3.062942589   2.409546037  -0.770398076
Au       4.773214158   4.575394804   6.230941472
Au       6.547029772   1.291762618   2.943981744



     Writing output data file pwscf.save
     Check: negative starting charge=   -0.006175
     NEW-OLD atomic charge density approx. for the potential
     Check: negative starting charge=   -0.006231

     negative rho (up, down):  3.322E-03 0.000E+00

     total cpu time spent up to now is       24.7 secs

     per-process dynamical memory:    50.7 Mb

     Self-consistent Calculation

     iteration #  1     ecut=    30.00 Ry     beta=0.70
     Davidson diagonalization with overlap
     ethr =  1.00E-06,  avg # of iterations =  9.0

     negative rho (up, down):  3.715E-04 0.000E+00

     total cpu time spent up to now is       25.3 secs

     total energy              =    -329.47097287 Ry
     Harris-Foulkes estimate   =    -329.47109707 Ry
     estimated scf accuracy    <       0.00524408 Ry

     iteration #  2     ecut=    30.00 Ry     beta=0.70
     Davidson diagonalization with overlap
     ethr =  9.53E-06,  avg # of iterations =  5.0

     negative rho (up, down):  1.376E-04 0.000E+00

     total cpu time spent up to now is       25.5 secs

     total energy              =    -329.47190417 Ry
     Harris-Foulkes estimate   =    -329.47420063 Ry
     estimated scf accuracy    <       0.00511290 Ry

     iteration #  3     ecut=    30.00 Ry     beta=0.70
     Davidson diagonalization with overlap
     ethr =  9.30E-06,  avg # of iterations =  2.0

     negative rho (up, down):  3.396E-05 0.000E+00

     total cpu time spent up to now is       25.7 secs

     total energy              =    -329.47285460 Ry
     Harris-Foulkes estimate   =    -329.47324313 Ry
     estimated scf accuracy    <       0.00097359 Ry

     iteration #  4     ecut=    30.00 Ry     beta=0.70
     Davidson diagonalization with overlap
     ethr =  1.77E-06,  avg # of iterations =  3.0

     negative rho (up, down):  1.099E-08 0.000E+00

     total cpu time spent up to now is       26.0 secs

     total energy              =    -329.47307468 Ry
     Harris-Foulkes estimate   =    -329.47320609 Ry
     estimated scf accuracy    <       0.00043742 Ry

     iteration #  5     ecut=    30.00 Ry     beta=0.70
     Davidson diagonalization with overlap
     ethr =  7.95E-07,  avg # of iterations =  1.0

     total cpu time spent up to now is       26.1 secs

     total energy              =    -329.47313962 Ry
     Harris-Foulkes estimate   =    -329.47315491 Ry
     estimated scf accuracy    <       0.00003643 Ry

     iteration #  6     ecut=    30.00 Ry     beta=0.70
     Davidson diagonalization with overlap
     ethr =  6.62E-08,  avg # of iterations =  2.0

     total cpu time spent up to now is       26.4 secs

     total energy              =    -329.47314850 Ry
     Harris-Foulkes estimate   =    -329.47314884 Ry
     estimated scf accuracy    <       0.00000117 Ry

     iteration #  7     ecut=    30.00 Ry     beta=0.70
     Davidson diagonalization with overlap
     ethr =  2.12E-09,  avg # of iterations =  3.0

     total cpu time spent up to now is       26.6 secs

     total energy              =    -329.47314853 Ry
     Harris-Foulkes estimate   =    -329.47314904 Ry
     estimated scf accuracy    <       0.00000066 Ry

     iteration #  8     ecut=    30.00 Ry     beta=0.70
     Davidson diagonalization with overlap
     ethr =  1.20E-09,  avg # of iterations =  2.0

     total cpu time spent up to now is       26.8 secs

     total energy              =    -329.47314868 Ry
     Harris-Foulkes estimate   =    -329.47314874 Ry
     estimated scf accuracy    <       0.00000017 Ry

     iteration #  9     ecut=    30.00 Ry     beta=0.70
     Davidson diagonalization with overlap
     ethr =  3.10E-10,  avg # of iterations =  2.0

     total cpu time spent up to now is       27.0 secs

     total energy              =    -329.47314866 Ry
     Harris-Foulkes estimate   =    -329.47314872 Ry
     estimated scf accuracy    <          8.7E-09 Ry

     iteration # 10     ecut=    30.00 Ry     beta=0.70
     Davidson diagonalization with overlap
     ethr =  1.58E-11,  avg # of iterations =  3.0

     total cpu time spent up to now is       27.3 secs

     total energy              =    -329.47314868 Ry
     Harris-Foulkes estimate   =    -329.47314866 Ry
     estimated scf accuracy    <          2.7E-09 Ry

     iteration # 11     ecut=    30.00 Ry     beta=0.70
     Davidson diagonalization with overlap
     ethr =  4.96E-12,  avg # of iterations =  3.0

     total cpu time spent up to now is       27.5 secs

     End of self-consistent calculation

          k = 0.0000 0.0000 0.0000 ( 22119 PWs)   bands (ev):

    -8.1402  -7.6539  -7.4654  -7.2478  -7.0147  -6.7423  -6.6370  -6.4523
    -6.2696  -6.0518  -5.9113  -5.7303  -5.6794  -5.6054  -5.5321  -5.4511
    -5.2381  -5.1922  -5.1631  -5.1584  -5.1131  -5.0340  -4.9933  -4.9353
    -4.8992  -4.4770  -4.4705  -3.6433  -2.5072  -2.3330  -0.3863  -0.1687
     0.3855   0.4430

     the Fermi energy is    -3.6039 ev

!    total energy              =    -329.47314873 Ry
     Harris-Foulkes estimate   =    -329.47314869 Ry
     estimated scf accuracy    <          4.8E-10 Ry

     The total energy is the sum of the following terms:

     one-electron contribution =    -604.04329009 Ry
     hartree contribution      =     323.54014113 Ry
     xc contribution           =     -51.38703705 Ry
     ewald contribution        =       2.42293695 Ry
     smearing contrib. (-TS)   =      -0.00589967 Ry

     convergence has been achieved in  11 iterations

     Forces acting on atoms (Ry/au):

     atom    1 type  1   force =    -0.00127429    0.00234802    0.00125844
     atom    2 type  1   force =     0.00748845    0.00184960   -0.00656069
     atom    3 type  1   force =     0.00324401   -0.00884306    0.00717537
     atom    4 type  1   force =    -0.01047745    0.00575900    0.01503549
     atom    5 type  1   force =     0.00101929   -0.00111355   -0.01690860

     Total force =     0.030144     Total SCF correction =     0.000083

     number of scf cycles    =  10
     number of bfgs steps    =   9

     energy   old            =    -329.4702772893 Ry
     energy   new            =    -329.4731487262 Ry

     CASE: energy  _new < energy  _old

     new trust radius        =       0.2196398496 bohr
     new conv_thr            =       0.0000000017 Ry


ATOMIC_POSITIONS (bohr)
Au      -2.063233247   1.735937190  -0.314389362
Au       0.550309954   2.957574727   3.931795046
Au       3.062500469   2.210356234  -0.862944769
Au       4.765445255   4.498634918   6.387917232
Au       6.612243570   1.431179931   2.914638852



     Writing output data file pwscf.save
     Check: negative starting charge=   -0.006231
     NEW-OLD atomic charge density approx. for the potential
     Check: negative starting charge=   -0.006272

     negative rho (up, down):  5.560E-03 0.000E+00

     total cpu time spent up to now is       27.7 secs

     per-process dynamical memory:    50.7 Mb

     Self-consistent Calculation

     iteration #  1     ecut=    30.00 Ry     beta=0.70
     Davidson diagonalization with overlap
     ethr =  1.00E-06,  avg # of iterations = 16.0

     negative rho (up, down):  7.422E-04 0.000E+00

     total cpu time spent up to now is       28.3 secs

     total energy              =    -329.46756027 Ry
     Harris-Foulkes estimate   =    -329.51287294 Ry
     estimated scf accuracy    <       0.01098753 Ry

     iteration #  2     ecut=    30.00 Ry     beta=0.70
     Davidson diagonalization with overlap
     ethr =  2.00E-05,  avg # of iterations =  5.0

     negative rho (up, down):  3.031E-04 0.000E+00

     total cpu time spent up to now is       28.6 secs

     total energy              =    -329.47411699 Ry
     Harris-Foulkes estimate   =    -329.47836662 Ry
     estimated scf accuracy    <       0.00972261 Ry

     iteration #  3     ecut=    30.00 Ry     beta=0.70
     Davidson diagonalization with overlap
     ethr =  1.77E-05,  avg # of iterations =  2.0

     negative rho (up, down):  8.552E-05 0.000E+00

     total cpu time spent up to now is       28.8 secs

     total energy              =    -329.47600484 Ry
     Harris-Foulkes estimate   =    -329.47680384 Ry
     estimated scf accuracy    <       0.00218380 Ry

     iteration #  4     ecut=    30.00 Ry     beta=0.70
     Davidson diagonalization with overlap
     ethr =  3.97E-06,  avg # of iterations =  3.0

     negative rho (up, down):  8.342E-08 0.000E+00

     total cpu time spent up to now is       29.0 secs

     total energy              =    -329.47648701 Ry
     Harris-Foulkes estimate   =    -329.47677655 Ry
     estimated scf accuracy    <       0.00097496 Ry

     iteration #  5     ecut=    30.00 Ry     beta=0.70
     Davidson diagonalization with overlap
     ethr =  1.77E-06,  avg # of iterations =  2.0

     total cpu time spent up to now is       29.2 secs

     total energy              =    -329.47663536 Ry
     Harris-Foulkes estimate   =    -329.47667315 Ry
     estimated scf accuracy    <       0.00008921 Ry

     iteration #  6     ecut=    30.00 Ry     beta=0.70
     Davidson diagonalization with overlap
     ethr =  1.62E-07,  avg # of iterations =  3.0

     total cpu time spent up to now is       29.4 secs

     total energy              =    -329.47665698 Ry
     Harris-Foulkes estimate   =    -329.47666023 Ry
     estimated scf accuracy    <       0.00000553 Ry

     iteration #  7     ecut=    30.00 Ry     beta=0.70
     Davidson diagonalization with overlap
     ethr =  1.01E-08,  avg # of iterations =  3.0

     total cpu time spent up to now is       29.7 secs

     total energy              =    -329.47665801 Ry
     Harris-Foulkes estimate   =    -329.47665900 Ry
     estimated scf accuracy    <       0.00000212 Ry

     iteration #  8     ecut=    30.00 Ry     beta=0.70
     Davidson diagonalization with overlap
     ethr =  3.85E-09,  avg # of iterations =  2.0

     total cpu time spent up to now is       29.9 secs

     total energy              =    -329.47665842 Ry
     Harris-Foulkes estimate   =    -329.47665860 Ry
     estimated scf accuracy    <       0.00000034 Ry

     iteration #  9     ecut=    30.00 Ry     beta=0.70
     Davidson diagonalization with overlap
     ethr =  6.16E-10,  avg # of iterations =  2.0

     total cpu time spent up to now is       30.1 secs

     total energy              =    -329.47665840 Ry
     Harris-Foulkes estimate   =    -329.47665851 Ry
     estimated scf accuracy    <       0.00000005 Ry

     iteration # 10     ecut=    30.00 Ry     beta=0.70
     Davidson diagonalization with overlap
     ethr =  9.73E-11,  avg # of iterations =  2.0

     total cpu time spent up to now is       30.3 secs

     total energy              =    -329.47665838 Ry
     Harris-Foulkes estimate   =    -329.47665842 Ry
     estimated scf accuracy    <       0.00000001 Ry

     iteration # 11     ecut=    30.00 Ry     beta=0.70
     Davidson diagonalization with overlap
     ethr =  2.21E-11,  avg # of iterations =  2.0

     total cpu time spent up to now is       30.5 secs

     End of self-consistent calculation

          k = 0.0000 0.0000 0.0000 ( 22119 PWs)   bands (ev):

    -8.0836  -7.5849  -7.4392  -7.1876  -6.9671  -6.7032  -6.5840  -6.4032
    -6.1970  -6.0672  -5.9028  -5.7033  -5.6734  -5.5936  -5.5085  -5.4246
    -5.2317  -5.2049  -5.1737  -5.1668  -5.1358  -5.0641  -4.9936  -4.9444
    -4.9317  -4.5162  -4.4958  -3.6962  -2.5356  -2.3210  -0.4152  -0.2095
     0.3850   0.4676

     the Fermi energy is    -3.6588 ev

!    total energy              =    -329.47665841 Ry
     Harris-Foulkes estimate   =    -329.47665838 Ry
     estimated scf accuracy    <          6.7E-10 Ry

     The total energy is the sum of the following terms:

     one-electron contribution =    -598.15512622 Ry
     hartree contribution      =     320.61010071 Ry
     xc contribution           =     -51.37124736 Ry
     ewald contribution        =      -0.55502463 Ry
     smearing contrib. (-TS)   =      -0.00536091 Ry

     convergence has been achieved in  11 iterations

     Forces acting on atoms (Ry/au):

     atom    1 type  1   force =     0.00778261    0.00233522    0.00551778
     atom    2 type  1   force =     0.00909433    0.00210799   -0.01261045
     atom    3 type  1   force =    -0.00246908   -0.00732483    0.01383648
     atom    4 type  1   force =    -0.01095472    0.00402821    0.01097453
     atom    5 type  1   force =    -0.00345314   -0.00114659   -0.01771834

     Total force =     0.034318     Total SCF correction =     0.000117

     number of scf cycles    =  11
     number of bfgs steps    =  10

     energy   old            =    -329.4731487262 Ry
     energy   new            =    -329.4766584057 Ry

     CASE: energy  _new < energy  _old

     new trust radius        =       0.2366933705 bohr
     new conv_thr            =       0.0000000018 Ry


ATOMIC_POSITIONS (bohr)
Au      -2.142992312   1.799153439  -0.313728966
Au       0.586728398   3.046540694   3.886357930
Au       3.065178908   1.988031997  -0.944114415
Au       4.743213344   4.419977787   6.568119421
Au       6.675137662   1.579979083   2.860383030



     Writing output data file pwscf.save
     Check: negative starting charge=   -0.006272
     NEW-OLD atomic charge density approx. for the potential
     Check: negative starting charge=   -0.006323

     negative rho (up, down):  6.552E-03 0.000E+00

     total cpu time spent up to now is       30.7 secs

     per-process dynamical memory:    50.7 Mb

     Self-consistent Calculation

     iteration #  1     ecut=    30.00 Ry     beta=0.70
     Davidson diagonalization with overlap
     ethr =  1.00E-06,  avg # of iterations = 17.0

     negative rho (up, down):  8.970E-04 0.000E+00

     total cpu time spent up to now is       31.3 secs

     total energy              =    -329.47526538 Ry
     Harris-Foulkes estimate   =    -329.48260466 Ry
     estimated scf accuracy    <       0.01386864 Ry

     iteration #  2     ecut=    30.00 Ry     beta=0.70
     Davidson diagonalization with overlap
     ethr =  2.52E-05,  avg # of iterations =  5.0

     negative rho (up, down):  3.524E-04 0.000E+00

     total cpu time spent up to now is       31.6 secs

     total energy              =    -329.47601300 Ry
     Harris-Foulkes estimate   =    -329.48346988 Ry
     estimated scf accuracy    <       0.01038305 Ry

     iteration #  3     ecut=    30.00 Ry     beta=0.70
     Davidson diagonalization with overlap
     ethr =  1.89E-05,  avg # of iterations =  2.0

     negative rho (up, down):  1.594E-05 0.000E+00

     total cpu time spent up to now is       31.8 secs

     total energy              =    -329.47851681 Ry
     Harris-Foulkes estimate   =    -329.47863129 Ry
     estimated scf accuracy    <       0.00050189 Ry

     iteration #  4     ecut=    30.00 Ry     beta=0.70
     Davidson diagonalization with overlap
     ethr =  9.13E-07,  avg # of iterations =  4.0

     total cpu time spent up to now is       32.1 secs

     total energy              =    -329.47862058 Ry
     Harris-Foulkes estimate   =    -329.47880962 Ry
     estimated scf accuracy    <       0.00047149 Ry

     iteration #  5     ecut=    30.00 Ry     beta=0.70
     Davidson diagonalization with overlap
     ethr =  8.57E-07,  avg # of iterations =  2.0

     total cpu time spent up to now is       32.3 secs

     total energy              =    -329.47870056 Ry
     Harris-Foulkes estimate   =    -329.47872089 Ry
     estimated scf accuracy    <       0.00005289 Ry

     iteration #  6     ecut=    30.00 Ry     beta=0.70
     Davidson diagonalization with overlap
     ethr =  9.62E-08,  avg # of iterations =  2.0

     total cpu time spent up to now is       32.5 secs

     total energy              =    -329.47871117 Ry
     Harris-Foulkes estimate   =    -329.47871363 Ry
     estimated scf accuracy    <       0.00000609 Ry

     iteration #  7     ecut=    30.00 Ry     beta=0.70
     Davidson diagonalization with overlap
     ethr =  1.11E-08,  avg # of iterations =  3.0

     total cpu time spent up to now is       32.7 secs

     total energy              =    -329.47871216 Ry
     Harris-Foulkes estimate   =    -329.47871311 Ry
     estimated scf accuracy    <       0.00000194 Ry

     iteration #  8     ecut=    30.00 Ry     beta=0.70
     Davidson diagonalization with overlap
     ethr =  3.53E-09,  avg # of iterations =  2.0

     total cpu time spent up to now is       32.9 secs

     total energy              =    -329.47871239 Ry
     Harris-Foulkes estimate   =    -329.47871268 Ry
     estimated scf accuracy    <       0.00000029 Ry

     iteration #  9     ecut=    30.00 Ry     beta=0.70
     Davidson diagonalization with overlap
     ethr =  5.26E-10,  avg # of iterations =  2.0

     total cpu time spent up to now is       33.1 secs

     total energy              =    -329.47871241 Ry
     Harris-Foulkes estimate   =    -329.47871246 Ry
     estimated scf accuracy    <       0.00000003 Ry

     iteration # 10     ecut=    30.00 Ry     beta=0.70
     Davidson diagonalization with overlap
     ethr =  4.60E-11,  avg # of iterations =  2.0

     total cpu time spent up to now is       33.3 secs

     total energy              =    -329.47871241 Ry
     Harris-Foulkes estimate   =    -329.47871242 Ry
     estimated scf accuracy    <       0.00000001 Ry

     iteration # 11     ecut=    30.00 Ry     beta=0.70
     Davidson diagonalization with overlap
     ethr =  2.45E-11,  avg # of iterations =  2.0

     total cpu time spent up to now is       33.5 secs

     End of self-consistent calculation

          k = 0.0000 0.0000 0.0000 ( 22119 PWs)   bands (ev):

    -8.0310  -7.4878  -7.3913  -7.0959  -6.8989  -6.6353  -6.5360  -6.3441
    -6.1119  -6.0688  -5.8904  -5.6742  -5.6483  -5.5759  -5.4844  -5.3933
    -5.2398  -5.2098  -5.1863  -5.1720  -5.1531  -5.1064  -4.9927  -4.9642
    -4.9490  -4.5657  -4.5113  -3.7597  -2.5636  -2.3217  -0.4375  -0.2509
     0.3663   0.5322

     the Fermi energy is    -3.7267 ev

!    total energy              =    -329.47871240 Ry
     Harris-Foulkes estimate   =    -329.47871241 Ry
     estimated scf accuracy    <          1.1E-09 Ry

     The total energy is the sum of the following terms:

     one-electron contribution =    -591.70673756 Ry
     hartree contribution      =     317.41125569 Ry
     xc contribution           =     -51.35284014 Ry
     ewald contribution        =      -3.82609164 Ry
     smearing contrib. (-TS)   =      -0.00429875 Ry

     convergence has been achieved in  11 iterations

     Forces acting on atoms (Ry/au):

     atom    1 type  1   force =     0.01482627    0.00385945    0.00787914
     atom    2 type  1   force =     0.01317219   -0.00166986   -0.01672908
     atom    3 type  1   force =    -0.00801399   -0.00485664    0.02026520
     atom    4 type  1   force =    -0.00943840   -0.00187036    0.00156498
     atom    5 type  1   force =    -0.01054607    0.00453742   -0.01298025

     Total force =     0.040580     Total SCF correction =     0.000136

     number of scf cycles    =  12
     number of bfgs steps    =  11

     energy   old            =    -329.4766584057 Ry
     energy   new            =    -329.4787123954 Ry

     CASE: energy  _new < energy  _old

     new trust radius        =       0.1113849096 bohr
     new conv_thr            =       0.0000000020 Ry


ATOMIC_POSITIONS (bohr)
[...]



     Writing output data file pwscf.save
     Check: negative starting charge=   -0.006365
     NEW-OLD atomic charge density approx. for the potential
     Check: negative starting charge=   -0.006364

     negative rho (up, down):  1.318E-05 0.000E+00

     total cpu time spent up to now is      117.0 secs

     per-process dynamical memory:    50.7 Mb

     Self-consistent Calculation

     iteration #  1     ecut=    30.00 Ry     beta=0.70
     Davidson diagonalization with overlap
     ethr =  1.00E-06,  avg # of iterations =  4.0

     Threshold (ethr) on eigenvalues was too large:
     Diagonalizing with lowered threshold

     Davidson diagonalization with overlap
     ethr =  3.56E-08,  avg # of iterations =  1.0

     negative rho (up, down):  1.366E-08 0.000E+00

     total cpu time spent up to now is      117.5 secs

     total energy              =    -329.49271003 Ry
     Harris-Foulkes estimate   =    -329.49271132 Ry
     estimated scf accuracy    <       0.00001999 Ry

     iteration #  2     ecut=    30.00 Ry     beta=0.70
     Davidson diagonalization with overlap
     ethr =  3.63E-08,  avg # of iterations =  3.0

     total cpu time spent up to now is      117.7 secs

     total energy              =    -329.49271195 Ry
     Harris-Foulkes estimate   =    -329.49271952 Ry
     estimated scf accuracy    <       0.00001481 Ry

     iteration #  3     ecut=    30.00 Ry     beta=0.70
     Davidson diagonalization with overlap
     ethr =  2.69E-08,  avg # of iterations =  2.0

     total cpu time spent up to now is      117.9 secs

     total energy              =    -329.49271486 Ry
     Harris-Foulkes estimate   =    -329.49271678 Ry
     estimated scf accuracy    <       0.00000480 Ry

     iteration #  4     ecut=    30.00 Ry     beta=0.70
     Davidson diagonalization with overlap
     ethr =  8.72E-09,  avg # of iterations =  2.0

     total cpu time spent up to now is      118.1 secs

     total energy              =    -329.49271586 Ry
     Harris-Foulkes estimate   =    -329.49271640 Ry
     estimated scf accuracy    <       0.00000144 Ry

     iteration #  5     ecut=    30.00 Ry     beta=0.70
     Davidson diagonalization with overlap
     ethr =  2.63E-09,  avg # of iterations =  2.0

     total cpu time spent up to now is      118.3 secs

     total energy              =    -329.49271610 Ry
     Harris-Foulkes estimate   =    -329.49271618 Ry
     estimated scf accuracy    <       0.00000017 Ry

     iteration #  6     ecut=    30.00 Ry     beta=0.70
     Davidson diagonalization with overlap
     ethr =  3.18E-10,  avg # of iterations =  2.0

     total cpu time spent up to now is      118.5 secs

     total energy              =    -329.49271625 Ry
     Harris-Foulkes estimate   =    -329.49271614 Ry
     estimated scf accuracy    <       0.00000001 Ry

     iteration #  7     ecut=    30.00 Ry     beta=0.70
     Davidson diagonalization with overlap
     ethr =  2.72E-11,  avg # of iterations =  2.0

     total cpu time spent up to now is      118.7 secs

     total energy              =    -329.49271626 Ry
     Harris-Foulkes estimate   =    -329.49271626 Ry
     estimated scf accuracy    <          2.2E-09 Ry

     iteration #  8     ecut=    30.00 Ry     beta=0.70
     Davidson diagonalization with overlap
     ethr =  4.09E-12,  avg # of iterations =  2.0

     total cpu time spent up to now is      119.0 secs

     total energy              =    -329.49271626 Ry
     Harris-Foulkes estimate   =    -329.49271626 Ry
     estimated scf accuracy    <          2.8E-10 Ry

     iteration #  9     ecut=    30.00 Ry     beta=0.70
     Davidson diagonalization with overlap
     ethr =  5.07E-13,  avg # of iterations =  2.0

     total cpu time spent up to now is      119.2 secs

     total energy              =    -329.49271626 Ry
     Harris-Foulkes estimate   =    -329.49271626 Ry
     estimated scf accuracy    <          1.5E-10 Ry

     iteration # 10     ecut=    30.00 Ry     beta=0.70
     Davidson diagonalization with overlap
     ethr =  2.66E-13,  avg # of iterations =  2.0

     total cpu time spent up to now is      119.4 secs

     End of self-consistent calculation

          k = 0.0000 0.0000 0.0000 ( 22119 PWs)   bands (ev):

    -8.4850  -7.7703  -7.6469  -7.2410  -6.8610  -6.7979  -6.6190  -6.4714
    -6.3181  -6.0621  -5.9600  -5.7630  -5.7230  -5.6760  -5.4545  -5.3595
    -5.3129  -5.2421  -5.1969  -5.1838  -5.1691  -5.1252  -5.0006  -4.9192
    -4.8458  -4.7370  -4.4772  -3.7499  -2.4144  -2.2512  -0.5416  -0.2146
     0.4123   0.7980

     the Fermi energy is    -3.7139 ev

!    total energy              =    -329.49271626 Ry
     Harris-Foulkes estimate   =    -329.49271626 Ry
     estimated scf accuracy    <          1.4E-11 Ry

     The total energy is the sum of the following terms:

     one-electron contribution =    -605.96558204 Ry
     hartree contribution      =     324.42049571 Ry
     xc contribution           =     -51.39818396 Ry
     ewald contribution        =       3.45571152 Ry
     smearing contrib. (-TS)   =      -0.00515749 Ry

     convergence has been achieved in  10 iterations

     Forces acting on atoms (Ry/au):

     atom    1 type  1   force =    -0.00006318    0.00022334    0.00077266
     atom    2 type  1   force =    -0.00020180    0.00071540    0.00021866
     atom    3 type  1   force =     0.00144054   -0.00063127    0.00045271
     atom    4 type  1   force =    -0.00114758    0.00012608   -0.00098835
     atom    5 type  1   force =    -0.00002798   -0.00043354   -0.00045567

     Total force =     0.002576     Total SCF correction =     0.000014

     number of scf cycles    =  44
     number of bfgs steps    =  43

     energy   old            =    -329.4926932619 Ry
     energy   new            =    -329.4927162593 Ry

     CASE: energy  _new < energy  _old

     new trust radius        =       0.0104991471 bohr
     new conv_thr            =            1.0E-10 Ry


ATOMIC_POSITIONS (bohr)
Au      -1.951814918   2.072565877  -0.338768225
Au       1.068336416   3.277861651   3.538624767
Au       3.040917535   1.060477108  -1.072985773
Au       4.469966049   4.217600232   7.162841654
Au       6.299860917   2.205178132   2.767304577



     Writing output data file pwscf.save
     Check: negative starting charge=   -0.006364
     NEW-OLD atomic charge density approx. for the potential
     Check: negative starting charge=   -0.006364

     negative rho (up, down):  6.111E-06 0.000E+00

     total cpu time spent up to now is      119.6 secs

     per-process dynamical memory:    50.7 Mb

     Self-consistent Calculation

     iteration #  1     ecut=    30.00 Ry     beta=0.70
     Davidson diagonalization with overlap
     ethr =  1.00E-06,  avg # of iterations =  4.0

     Threshold (ethr) on eigenvalues was too large:
     Diagonalizing with lowered threshold

     Davidson diagonalization with overlap
     ethr =  2.07E-08,  avg # of iterations =  2.0

     total cpu time spent up to now is      120.1 secs

     total energy              =    -329.49272499 Ry
     Harris-Foulkes estimate   =    -329.49272489 Ry
     estimated scf accuracy    <       0.00001205 Ry

     iteration #  2     ecut=    30.00 Ry     beta=0.70
     Davidson diagonalization with overlap
     ethr =  2.19E-08,  avg # of iterations =  3.0

     total cpu time spent up to now is      120.3 secs

     total energy              =    -329.49272547 Ry
     Harris-Foulkes estimate   =    -329.49273105 Ry
     estimated scf accuracy    <       0.00001240 Ry

     iteration #  3     ecut=    30.00 Ry     beta=0.70
     Davidson diagonalization with overlap
     ethr =  2.19E-08,  avg # of iterations =  2.0

     total cpu time spent up to now is      120.5 secs

     total energy              =    -329.49272817 Ry
     Harris-Foulkes estimate   =    -329.49272970 Ry
     estimated scf accuracy    <       0.00000428 Ry

     iteration #  4     ecut=    30.00 Ry     beta=0.70
     Davidson diagonalization with overlap
     ethr =  7.78E-09,  avg # of iterations =  2.0

     total cpu time spent up to now is      120.7 secs

     total energy              =    -329.49272877 Ry
     Harris-Foulkes estimate   =    -329.49272925 Ry
     estimated scf accuracy    <       0.00000067 Ry

     iteration #  5     ecut=    30.00 Ry     beta=0.70
     Davidson diagonalization with overlap
     ethr =  1.21E-09,  avg # of iterations =  2.0

     total cpu time spent up to now is      120.9 secs

     total energy              =    -329.49272870 Ry
     Harris-Foulkes estimate   =    -329.49272895 Ry
     estimated scf accuracy    <       0.00000011 Ry

     iteration #  6     ecut=    30.00 Ry     beta=0.70
     Davidson diagonalization with overlap
     ethr =  2.05E-10,  avg # of iterations =  2.0

     total cpu time spent up to now is      121.1 secs

     total energy              =    -329.49272867 Ry
     Harris-Foulkes estimate   =    -329.49272874 Ry
     estimated scf accuracy    <       0.00000002 Ry

     iteration #  7     ecut=    30.00 Ry     beta=0.70
     Davidson diagonalization with overlap
     ethr =  3.61E-11,  avg # of iterations =  2.0

     total cpu time spent up to now is      121.3 secs

     total energy              =    -329.49272866 Ry
     Harris-Foulkes estimate   =    -329.49272867 Ry
     estimated scf accuracy    <          1.7E-09 Ry

     iteration #  8     ecut=    30.00 Ry     beta=0.70
     Davidson diagonalization with overlap
     ethr =  3.12E-12,  avg # of iterations =  3.0

     total cpu time spent up to now is      121.6 secs

     total energy              =    -329.49272865 Ry
     Harris-Foulkes estimate   =    -329.49272866 Ry
     estimated scf accuracy    <          6.9E-10 Ry

     iteration #  9     ecut=    30.00 Ry     beta=0.70
     Davidson diagonalization with overlap
     ethr =  1.25E-12,  avg # of iterations =  2.0

     total cpu time spent up to now is      121.7 secs

     End of self-consistent calculation

          k = 0.0000 0.0000 0.0000 ( 22119 PWs)   bands (ev):

    -8.4869  -7.7693  -7.6540  -7.2420  -6.8648  -6.7992  -6.6126  -6.4725
    -6.3219  -6.0627  -5.9562  -5.7641  -5.7229  -5.6773  -5.4528  -5.3605
    -5.3144  -5.2417  -5.1985  -5.1824  -5.1692  -5.1249  -4.9994  -4.9181
    -4.8434  -4.7387  -4.4757  -3.7528  -2.4123  -2.2494  -0.5420  -0.2157
     0.4139   0.7994

     the Fermi energy is    -3.7173 ev

!    total energy              =    -329.49272865 Ry
     Harris-Foulkes estimate   =    -329.49272865 Ry
     estimated scf accuracy    <          6.5E-11 Ry

     The total energy is the sum of the following terms:

     one-electron contribution =    -606.09143918 Ry
     hartree contribution      =     324.48310311 Ry
     xc contribution           =     -51.39872522 Ry
     ewald contribution        =       3.51938301 Ry
     smearing contrib. (-TS)   =      -0.00505037 Ry

     convergence has been achieved in   9 iterations

     Forces acting on atoms (Ry/au):

     atom    1 type  1   force =     0.00024710    0.00013644    0.00089170
     atom    2 type  1   force =    -0.00075159    0.00057107   -0.00023199
     atom    3 type  1   force =     0.00063792   -0.00082174   -0.00002037
     atom    4 type  1   force =    -0.00056476    0.00019778   -0.00104273
     atom    5 type  1   force =     0.00043132   -0.00008355    0.00040339

     Total force =     0.002169     Total SCF correction =     0.000027

     number of scf cycles    =  45
     number of bfgs steps    =  44

     energy   old            =    -329.4927162593 Ry
     energy   new            =    -329.4927286519 Ry

     CASE: energy  _new < energy  _old

     new trust radius        =       0.0058763134 bohr
     new conv_thr            =            1.0E-10 Ry


ATOMIC_POSITIONS (bohr)
Au      -1.950832835   2.071600729  -0.339018667
Au       1.065968581   3.277934555   3.539504476
Au       3.045509094   1.062751642  -1.072329982
Au       4.465438318   4.220467359   7.160431200
Au       6.301182843   2.200928715   2.768429973



     Writing output data file pwscf.save
     Check: negative starting charge=   -0.006364
     NEW-OLD atomic charge density approx. for the potential
     Check: negative starting charge=   -0.006365

     negative rho (up, down):  5.237E-07 0.000E+00

     total cpu time spent up to now is      121.9 secs

     per-process dynamical memory:    50.7 Mb

     Self-consistent Calculation

     iteration #  1     ecut=    30.00 Ry     beta=0.70
     Davidson diagonalization with overlap
     ethr =  1.00E-06,  avg # of iterations =  3.0

     Threshold (ethr) on eigenvalues was too large:
     Diagonalizing with lowered threshold

     Davidson diagonalization with overlap
     ethr =  9.73E-09,  avg # of iterations =  2.0

     total cpu time spent up to now is      122.4 secs

     total energy              =    -329.49273492 Ry
     Harris-Foulkes estimate   =    -329.49273822 Ry
     estimated scf accuracy    <       0.00000578 Ry

     iteration #  2     ecut=    30.00 Ry     beta=0.70
     Davidson diagonalization with overlap
     ethr =  1.05E-08,  avg # of iterations =  2.0

     total cpu time spent up to now is      122.6 secs

     total energy              =    -329.49273546 Ry
     Harris-Foulkes estimate   =    -329.49273803 Ry
     estimated scf accuracy    <       0.00000507 Ry

     iteration #  3     ecut=    30.00 Ry     beta=0.70
     Davidson diagonalization with overlap
     ethr =  9.21E-09,  avg # of iterations =  2.0

     total cpu time spent up to now is      122.9 secs

     total energy              =    -329.49273574 Ry
     Harris-Foulkes estimate   =    -329.49273699 Ry
     estimated scf accuracy    <       0.00000138 Ry

     iteration #  4     ecut=    30.00 Ry     beta=0.70
     Davidson diagonalization with overlap
     ethr =  2.51E-09,  avg # of iterations =  2.0

     total cpu time spent up to now is      123.0 secs

     total energy              =    -329.49273578 Ry
     Harris-Foulkes estimate   =    -329.49273619 Ry
     estimated scf accuracy    <       0.00000041 Ry

     iteration #  5     ecut=    30.00 Ry     beta=0.70
     Davidson diagonalization with overlap
     ethr =  7.38E-10,  avg # of iterations =  2.0

     total cpu time spent up to now is      123.2 secs

     total energy              =    -329.49273575 Ry
     Harris-Foulkes estimate   =    -329.49273586 Ry
     estimated scf accuracy    <       0.00000003 Ry

     iteration #  6     ecut=    30.00 Ry     beta=0.70
     Davidson diagonalization with overlap
     ethr =  5.13E-11,  avg # of iterations =  3.0

     total cpu time spent up to now is      123.5 secs

     total energy              =    -329.49273571 Ry
     Harris-Foulkes estimate   =    -329.49273576 Ry
     estimated scf accuracy    <          3.2E-09 Ry

     iteration #  7     ecut=    30.00 Ry     beta=0.70
     Davidson diagonalization with overlap
     ethr =  5.89E-12,  avg # of iterations =  3.0

     total cpu time spent up to now is      123.7 secs

     total energy              =    -329.49273571 Ry
     Harris-Foulkes estimate   =    -329.49273571 Ry
     estimated scf accuracy    <          7.8E-10 Ry

     iteration #  8     ecut=    30.00 Ry     beta=0.70
     Davidson diagonalization with overlap
     ethr =  1.42E-12,  avg # of iterations =  2.0

     total cpu time spent up to now is      123.9 secs

     total energy              =    -329.49273569 Ry
     Harris-Foulkes estimate   =    -329.49273571 Ry
     estimated scf accuracy    <          1.7E-10 Ry

     iteration #  9     ecut=    30.00 Ry     beta=0.70
     Davidson diagonalization with overlap
     ethr =  3.02E-13,  avg # of iterations =  3.0

     total cpu time spent up to now is      124.1 secs

     End of self-consistent calculation

          k = 0.0000 0.0000 0.0000 ( 22119 PWs)   bands (ev):

    -8.4869  -7.7670  -7.6542  -7.2395  -6.8667  -6.7997  -6.6098  -6.4708
    -6.3219  -6.0625  -5.9552  -5.7648  -5.7231  -5.6775  -5.4500  -5.3613
    -5.3152  -5.2408  -5.1994  -5.1816  -5.1694  -5.1253  -4.9979  -4.9175
    -4.8436  -4.7394  -4.4746  -3.7550  -2.4104  -2.2496  -0.5418  -0.2172
     0.4151   0.7999

     the Fermi energy is    -3.7199 ev

!    total energy              =    -329.49273569 Ry
     Harris-Foulkes estimate   =    -329.49273569 Ry
     estimated scf accuracy    <          4.7E-11 Ry

     The total energy is the sum of the following terms:

     one-electron contribution =    -606.07270641 Ry
     hartree contribution      =     324.47440472 Ry
     xc contribution           =     -51.39879677 Ry
     ewald contribution        =       3.50933031 Ry
     smearing contrib. (-TS)   =      -0.00496753 Ry

     convergence has been achieved in   9 iterations

     Forces acting on atoms (Ry/au):

     atom    1 type  1   force =     0.00040433    0.00004583    0.00074363
     atom    2 type  1   force =    -0.00068653    0.00048219   -0.00059278
     atom    3 type  1   force =     0.00016328   -0.00081983   -0.00002076
     atom    4 type  1   force =    -0.00027077    0.00012170   -0.00082550
     atom    5 type  1   force =     0.00038969    0.00017011    0.00069542

     Total force =     0.001977     Total SCF correction =     0.000027

     bfgs converged in  46 scf cycles and  45 bfgs steps
     (criteria: energy <  1.0E-04, force <  1.0E-03)

     End of BFGS Geometry Optimization

     Final energy   =    -329.4927356859 Ry
Begin final coordinates

ATOMIC_POSITIONS (bohr)
Au      -1.950832835   2.071600729  -0.339018667
Au       1.065968581   3.277934555   3.539504476
Au       3.045509094   1.062751642  -1.072329982
Au       4.465438318   4.220467359   7.160431200
Au       6.301182843   2.200928715   2.768429973
End final coordinates



     Writing output data file pwscf.save
 
     init_run     :      0.16s CPU      0.19s WALL (       1 calls)
     electrons    :    108.14s CPU    115.61s WALL (      46 calls)
     update_pot   :      2.98s CPU      3.65s WALL (      45 calls)
     forces       :      1.90s CPU      1.93s WALL (      46 calls)

     Called by init_run:
     wfcinit      :      0.07s CPU      0.09s WALL (       1 calls)
     potinit      :      0.03s CPU      0.03s WALL (       1 calls)

     Called by electrons:
     c_bands      :     82.97s CPU     83.88s WALL (     483 calls)
     sum_band     :     11.30s CPU     11.57s WALL (     483 calls)
     v_of_rho     :      9.10s CPU      9.23s WALL (     516 calls)
     mix_rho      :      3.71s CPU      8.10s WALL (     483 calls)

     Called by c_bands:
     init_us_2    :      1.45s CPU      1.51s WALL (     967 calls)
     cegterg      :     74.30s CPU     74.87s WALL (     483 calls)

     Called by sum_band:

     Called by *egterg:
     h_psi        :     57.13s CPU     57.55s WALL (    1871 calls)
     g_psi        :      0.57s CPU      0.57s WALL (    1387 calls)
     cdiaghg      :      4.43s CPU      4.46s WALL (    1812 calls)

     Called by h_psi:
     h_psi:pot    :     56.24s CPU     56.65s WALL (    1871 calls)
     h_psi:calbec :      3.20s CPU      3.21s WALL (    1871 calls)
     vloc_psi     :     49.45s CPU     49.84s WALL (    1871 calls)
     add_vuspsi   :      3.58s CPU      3.60s WALL (    1871 calls)

     General routines
     calbec       :      3.76s CPU      3.79s WALL (    2055 calls)
     fft          :      4.97s CPU      5.09s WALL (    5793 calls)
     fftw         :     51.75s CPU     52.54s WALL (  109420 calls)
     davcio       :      0.61s CPU      4.12s WALL (    5125 calls)
 
     Parallel routines
     fft_scatter  :     13.30s CPU     12.83s WALL (  115213 calls)
 
     PWSCF        :  1m54.42s CPU     2m 4.41s WALL

 
   This run was terminated on:   3:19:53   4Aug2017            

=------------------------------------------------------------------------------=
   JOB DONE.
=------------------------------------------------------------------------------=
