
     Program PWSCF v.6.0 (svn rev. 13079) starts on  3Aug2017 at 10:47:21 

     This program is part of the open-source Quantum ESPRESSO suite
     for quantum simulation of materials; please cite
         "P. Giannozzi et al., J. Phys.:Condens. Matter 21 395502 (2009);
          URL http://www.quantum-espresso.org", 
     in publications or presentations arising from this work. More details at
     http://www.quantum-espresso.org/quote

     Parallel version (MPI), running on    10 processors
     R & G space division:  proc/nbgrp/npool/nimage =      10
     Reading input from input/multi/minchecks-Gold5-21.in

     Current dimensions of program PWSCF are:
     Max number of different atomic species (ntypx) = 10
     Max number of k-points (npk) =  40000
     Max angular momentum in pseudopotentials (lmaxx) =  3
     Message from routine iosys:
     pot_extrapolation='second-order' not available, using 'atomic'
     Message from routine iosys:
     wfc_extrapolation='second-order' not available, using 'atomic'

     Subspace diagonalization in iterative solution of the eigenvalue problem:
     a serial algorithm will be used

 
     Parallelization info
     --------------------
     sticks:   dense  smooth     PW     G-vecs:    dense   smooth      PW
     Min         380     380     94                17748    17748    2208
     Max         381     381     95                17753    17753    2213
     Sum        3809    3809    949               177509   177509   22119
 


     bravais-lattice index     =            1
     lattice parameter (alat)  =      20.0000  a.u.
     unit-cell volume          =    8000.0000 (a.u.)^3
     number of atoms/cell      =            5
     number of atomic types    =            1
     number of electrons       =        55.00
     number of Kohn-Sham states=           34
     kinetic-energy cutoff     =      30.0000  Ry
     charge density cutoff     =     120.0000  Ry
     convergence threshold     =      1.0E-08
     mixing beta               =       0.7000
     number of iterations used =            8  plain     mixing
     Exchange-correlation      = BLYP ( 1  3  1  3 0 0)
     nstep                     =           50


     celldm(1)=  20.000000  celldm(2)=   0.000000  celldm(3)=   0.000000
     celldm(4)=   0.000000  celldm(5)=   0.000000  celldm(6)=   0.000000

     crystal axes: (cart. coord. in units of alat)
               a(1) = (   1.000000   0.000000   0.000000 )  
               a(2) = (   0.000000   1.000000   0.000000 )  
               a(3) = (   0.000000   0.000000   1.000000 )  

     reciprocal axes: (cart. coord. in units 2 pi/alat)
               b(1) = (  1.000000  0.000000  0.000000 )  
               b(2) = (  0.000000  1.000000  0.000000 )  
               b(3) = (  0.000000  0.000000  1.000000 )  


     PseudoPot. # 1 for Au read from file:
     ./Au.blyp-d-hgh.UPF
     MD5 check sum: c10d8bae01f806c36a1643a1c69a8479
     Pseudo is Norm-conserving, Zval = 11.0
     Generated in analytical, separable form
     Using radial grid of 1279 points,  6 beta functions with: 
                l(1) =   0
                l(2) =   0
                l(3) =   1
                l(4) =   1
                l(5) =   2
                l(6) =   2

     atomic species   valence    mass     pseudopotential
        Au            11.00    28.08600     Au( 1.00)

     No symmetry found



   Cartesian axes

     site n.     atom                  positions (alat units)
         1           Au  tau(   1) = (  -0.0839791   0.1077621  -0.0585689  )
         2           Au  tau(   2) = (  -0.0257896   0.1937992   0.1782024  )
         3           Au  tau(   3) = (   0.1555241   0.0907524   0.0311055  )
         4           Au  tau(   4) = (   0.1906692   0.1782028   0.2978589  )
         5           Au  tau(   5) = (   0.3802539   0.0604679   0.1522165  )

     number of k points=     1  Marzari-Vanderbilt smearing, width (Ry)=  0.0250
                       cart. coord. in units 2pi/alat
        k(    1) = (   0.0000000   0.0000000   0.0000000), wk =   2.0000000

     Dense  grid:   177509 G-vectors     FFT dimensions: (  72,  72,  72)

     Estimated max dynamical RAM per process >      15.04Mb

     Estimated total allocated dynamical RAM >     150.39Mb

     Initial potential from superposition of free atoms
     Check: negative starting charge=   -0.006356

     starting charge   54.99940, renormalised to   55.00000

     negative rho (up, down):  6.356E-03 0.000E+00
     Starting wfc are   45 randomized atomic wfcs

     total cpu time spent up to now is        0.4 secs

     per-process dynamical memory:    41.0 Mb

     Self-consistent Calculation

     iteration #  1     ecut=    30.00 Ry     beta=0.70
     Davidson diagonalization with overlap
     ethr =  1.00E-02,  avg # of iterations =  3.0

     Threshold (ethr) on eigenvalues was too large:
     Diagonalizing with lowered threshold

     Davidson diagonalization with overlap
     ethr =  4.34E-04,  avg # of iterations =  5.0

     negative rho (up, down):  8.763E-04 0.000E+00

     total cpu time spent up to now is        0.8 secs

     total energy              =    -329.36839724 Ry
     Harris-Foulkes estimate   =    -329.54526807 Ry
     estimated scf accuracy    <       0.29289168 Ry

     iteration #  2     ecut=    30.00 Ry     beta=0.70
     Davidson diagonalization with overlap
     ethr =  5.33E-04,  avg # of iterations =  4.0

     negative rho (up, down):  3.833E-04 0.000E+00

     total cpu time spent up to now is        1.1 secs

     total energy              =    -329.41823031 Ry
     Harris-Foulkes estimate   =    -329.56228576 Ry
     estimated scf accuracy    <       0.29214468 Ry

     iteration #  3     ecut=    30.00 Ry     beta=0.70
     Davidson diagonalization with overlap
     ethr =  5.31E-04,  avg # of iterations =  2.0

     negative rho (up, down):  1.338E-04 0.000E+00

     total cpu time spent up to now is        1.3 secs

     total energy              =    -329.47635020 Ry
     Harris-Foulkes estimate   =    -329.49446284 Ry
     estimated scf accuracy    <       0.04121917 Ry

     iteration #  4     ecut=    30.00 Ry     beta=0.70
     Davidson diagonalization with overlap
     ethr =  7.49E-05,  avg # of iterations =  3.0

     negative rho (up, down):  3.000E-06 0.000E+00

     total cpu time spent up to now is        1.5 secs

     total energy              =    -329.48529473 Ry
     Harris-Foulkes estimate   =    -329.48650082 Ry
     estimated scf accuracy    <       0.00326934 Ry

     iteration #  5     ecut=    30.00 Ry     beta=0.70
     Davidson diagonalization with overlap
     ethr =  5.94E-06,  avg # of iterations =  8.0

     total cpu time spent up to now is        1.8 secs

     total energy              =    -329.48589071 Ry
     Harris-Foulkes estimate   =    -329.48663023 Ry
     estimated scf accuracy    <       0.00188952 Ry

     iteration #  6     ecut=    30.00 Ry     beta=0.70
     Davidson diagonalization with overlap
     ethr =  3.44E-06,  avg # of iterations =  2.0

     total cpu time spent up to now is        2.1 secs

     total energy              =    -329.48619562 Ry
     Harris-Foulkes estimate   =    -329.48633457 Ry
     estimated scf accuracy    <       0.00034178 Ry

     iteration #  7     ecut=    30.00 Ry     beta=0.70
     Davidson diagonalization with overlap
     ethr =  6.21E-07,  avg # of iterations =  2.0

     total cpu time spent up to now is        2.3 secs

     total energy              =    -329.48626644 Ry
     Harris-Foulkes estimate   =    -329.48628487 Ry
     estimated scf accuracy    <       0.00005073 Ry

     iteration #  8     ecut=    30.00 Ry     beta=0.70
     Davidson diagonalization with overlap
     ethr =  9.22E-08,  avg # of iterations =  2.0

     total cpu time spent up to now is        2.5 secs

     total energy              =    -329.48627622 Ry
     Harris-Foulkes estimate   =    -329.48627909 Ry
     estimated scf accuracy    <       0.00000660 Ry

     iteration #  9     ecut=    30.00 Ry     beta=0.70
     Davidson diagonalization with overlap
     ethr =  1.20E-08,  avg # of iterations =  2.0

     total cpu time spent up to now is        2.8 secs

     total energy              =    -329.48627733 Ry
     Harris-Foulkes estimate   =    -329.48627801 Ry
     estimated scf accuracy    <       0.00000091 Ry

     iteration # 10     ecut=    30.00 Ry     beta=0.70
     Davidson diagonalization with overlap
     ethr =  1.65E-09,  avg # of iterations =  2.0

     total cpu time spent up to now is        3.0 secs

     total energy              =    -329.48627734 Ry
     Harris-Foulkes estimate   =    -329.48627768 Ry
     estimated scf accuracy    <       0.00000043 Ry

     iteration # 11     ecut=    30.00 Ry     beta=0.70
     Davidson diagonalization with overlap
     ethr =  7.75E-10,  avg # of iterations =  2.0

     total cpu time spent up to now is        3.2 secs

     total energy              =    -329.48627739 Ry
     Harris-Foulkes estimate   =    -329.48627743 Ry
     estimated scf accuracy    <       0.00000003 Ry

     iteration # 12     ecut=    30.00 Ry     beta=0.70
     Davidson diagonalization with overlap
     ethr =  4.92E-11,  avg # of iterations =  3.0

     total cpu time spent up to now is        3.5 secs

     total energy              =    -329.48627741 Ry
     Harris-Foulkes estimate   =    -329.48627741 Ry
     estimated scf accuracy    <       0.00000002 Ry

     iteration # 13     ecut=    30.00 Ry     beta=0.70
     Davidson diagonalization with overlap
     ethr =  3.68E-11,  avg # of iterations =  2.0

     total cpu time spent up to now is        3.7 secs

     End of self-consistent calculation

          k = 0.0000 0.0000 0.0000 ( 22119 PWs)   bands (ev):

    -8.4818  -7.8523  -7.7030  -7.4002  -6.9104  -6.8000  -6.5854  -6.4174
    -6.3731  -6.0100  -5.8462  -5.7803  -5.6799  -5.6489  -5.4356  -5.3970
    -5.3485  -5.2371  -5.2154  -5.2004  -5.1434  -5.1210  -5.0224  -4.9200
    -4.8617  -4.6084  -4.4811  -3.8146  -2.4949  -2.1253  -0.5507  -0.1919
     0.4111   0.8465

     the Fermi energy is    -3.7930 ev

!    total energy              =    -329.48627741 Ry
     Harris-Foulkes estimate   =    -329.48627741 Ry
     estimated scf accuracy    <          1.4E-09 Ry

     The total energy is the sum of the following terms:

     one-electron contribution =    -607.69257991 Ry
     hartree contribution      =     325.28215476 Ry
     xc contribution           =     -51.40826905 Ry
     ewald contribution        =       4.33411210 Ry
     smearing contrib. (-TS)   =      -0.00169531 Ry

     convergence has been achieved in  13 iterations

     Forces acting on atoms (Ry/au):

     atom    1 type  1   force =     0.00519534    0.00164209    0.00104773
     atom    2 type  1   force =    -0.03097192    0.00712502   -0.00460127
     atom    3 type  1   force =     0.01288695   -0.00862368   -0.00254657
     atom    4 type  1   force =     0.03290179   -0.00621216    0.00449982
     atom    5 type  1   force =    -0.02001216    0.00606874    0.00160029

     Total force =     0.053760     Total SCF correction =     0.000178

     BFGS Geometry Optimization

     number of scf cycles    =   1
     number of bfgs steps    =   0

     energy   new            =    -329.4862774115 Ry

     new trust radius        =       0.0337841292 bohr
     new conv_thr            =       0.0000000100 Ry


ATOMIC_POSITIONS (bohr)
Au      -1.674386657   2.156883087  -1.170331269
Au      -0.546763921   3.883109017   3.559445734
Au       3.123369947   1.806425316   0.619563428
Au       3.846285793   3.557844835   5.961677820
Au       7.585064838   1.215425745   3.045929287



     Writing output data file pwscf.save
     Check: negative starting charge=   -0.006356
     NEW-OLD atomic charge density approx. for the potential
     Check: negative starting charge=   -0.006356

     negative rho (up, down):  2.327E-04 0.000E+00

     total cpu time spent up to now is        3.9 secs

     per-process dynamical memory:    42.9 Mb

     Self-consistent Calculation

     iteration #  1     ecut=    30.00 Ry     beta=0.70
     Davidson diagonalization with overlap
     ethr =  1.00E-06,  avg # of iterations =  4.0

     negative rho (up, down):  4.811E-06 0.000E+00

     total cpu time spent up to now is        4.3 secs

     total energy              =    -329.48859064 Ry
     Harris-Foulkes estimate   =    -329.48861408 Ry
     estimated scf accuracy    <       0.00025191 Ry

     iteration #  2     ecut=    30.00 Ry     beta=0.70
     Davidson diagonalization with overlap
     ethr =  4.58E-07,  avg # of iterations =  3.0

     negative rho (up, down):  1.465E-06 0.000E+00

     total cpu time spent up to now is        4.6 secs

     total energy              =    -329.48852501 Ry
     Harris-Foulkes estimate   =    -329.48888282 Ry
     estimated scf accuracy    <       0.00101002 Ry

     iteration #  3     ecut=    30.00 Ry     beta=0.70
     Davidson diagonalization with overlap
     ethr =  4.58E-07,  avg # of iterations =  3.0

     total cpu time spent up to now is        4.8 secs

     total energy              =    -329.48870603 Ry
     Harris-Foulkes estimate   =    -329.48871497 Ry
     estimated scf accuracy    <       0.00003962 Ry

     iteration #  4     ecut=    30.00 Ry     beta=0.70
     Davidson diagonalization with overlap
     ethr =  7.20E-08,  avg # of iterations =  2.0

     total cpu time spent up to now is        5.1 secs

     total energy              =    -329.48871393 Ry
     Harris-Foulkes estimate   =    -329.48871751 Ry
     estimated scf accuracy    <       0.00001189 Ry

     iteration #  5     ecut=    30.00 Ry     beta=0.70
     Davidson diagonalization with overlap
     ethr =  2.16E-08,  avg # of iterations =  2.0

     total cpu time spent up to now is        5.3 secs

     total energy              =    -329.48871657 Ry
     Harris-Foulkes estimate   =    -329.48871745 Ry
     estimated scf accuracy    <       0.00000296 Ry

     iteration #  6     ecut=    30.00 Ry     beta=0.70
     Davidson diagonalization with overlap
     ethr =  5.39E-09,  avg # of iterations =  2.0

     total cpu time spent up to now is        5.5 secs

     total energy              =    -329.48871709 Ry
     Harris-Foulkes estimate   =    -329.48871722 Ry
     estimated scf accuracy    <       0.00000018 Ry

     iteration #  7     ecut=    30.00 Ry     beta=0.70
     Davidson diagonalization with overlap
     ethr =  3.24E-10,  avg # of iterations =  3.0

     total cpu time spent up to now is        5.7 secs

     total energy              =    -329.48871714 Ry
     Harris-Foulkes estimate   =    -329.48871716 Ry
     estimated scf accuracy    <       0.00000005 Ry

     iteration #  8     ecut=    30.00 Ry     beta=0.70
     Davidson diagonalization with overlap
     ethr =  8.55E-11,  avg # of iterations =  2.0

     total cpu time spent up to now is        5.9 secs

     End of self-consistent calculation

          k = 0.0000 0.0000 0.0000 ( 22119 PWs)   bands (ev):

    -8.4699  -7.7894  -7.7130  -7.3502  -6.9304  -6.7916  -6.5465  -6.4487
    -6.3782  -6.0196  -5.8793  -5.7696  -5.6868  -5.6530  -5.4404  -5.3971
    -5.3434  -5.2350  -5.2144  -5.2011  -5.1546  -5.1257  -5.0223  -4.9218
    -4.8818  -4.6243  -4.4936  -3.8025  -2.4941  -2.1470  -0.5476  -0.1913
     0.4080   0.8372

     the Fermi energy is    -3.7753 ev

!    total energy              =    -329.48871714 Ry
     Harris-Foulkes estimate   =    -329.48871716 Ry
     estimated scf accuracy    <          8.6E-09 Ry

     The total energy is the sum of the following terms:

     one-electron contribution =    -606.96741459 Ry
     hartree contribution      =     324.91650012 Ry
     xc contribution           =     -51.40169649 Ry
     ewald contribution        =       3.96684873 Ry
     smearing contrib. (-TS)   =      -0.00295492 Ry

     convergence has been achieved in   8 iterations

     Forces acting on atoms (Ry/au):

     atom    1 type  1   force =     0.00600757    0.00124560    0.00085405
     atom    2 type  1   force =    -0.02043471    0.00562425   -0.00136508
     atom    3 type  1   force =     0.00776907   -0.00698626   -0.00153431
     atom    4 type  1   force =     0.02258922   -0.00472463    0.00040309
     atom    5 type  1   force =    -0.01593114    0.00484104    0.00164225

     Total force =     0.037599     Total SCF correction =     0.000305

     number of scf cycles    =   2
     number of bfgs steps    =   1

     energy   old            =    -329.4862774115 Ry
     energy   new            =    -329.4887171418 Ry

     CASE: energy  _new < energy  _old

     new trust radius        =       0.0371625421 bohr
     new conv_thr            =       0.0000000023 Ry


ATOMIC_POSITIONS (bohr)
Au      -1.664872173   2.158881024  -1.168964862
Au      -0.579721207   3.892117383   3.557131065
Au       3.135949604   1.795245544   0.617079012
Au       3.882658262   3.550267268   5.962501549
Au       7.559555513   1.223176781   3.048538237



     Writing output data file pwscf.save
     Check: negative starting charge=   -0.006356
     NEW-OLD atomic charge density approx. for the potential
     Check: negative starting charge=   -0.006363

     negative rho (up, down):  3.014E-04 0.000E+00

     total cpu time spent up to now is        6.2 secs

     per-process dynamical memory:    50.7 Mb

     Self-consistent Calculation

     iteration #  1     ecut=    30.00 Ry     beta=0.70
     Davidson diagonalization with overlap
     ethr =  1.00E-06,  avg # of iterations =  5.0

     negative rho (up, down):  7.792E-06 0.000E+00

     total cpu time spent up to now is        6.7 secs

     total energy              =    -329.49035202 Ry
     Harris-Foulkes estimate   =    -329.49037357 Ry
     estimated scf accuracy    <       0.00032499 Ry

     iteration #  2     ecut=    30.00 Ry     beta=0.70
     Davidson diagonalization with overlap
     ethr =  5.91E-07,  avg # of iterations =  5.0

     negative rho (up, down):  2.490E-06 0.000E+00

     total cpu time spent up to now is        7.0 secs

     total energy              =    -329.49027273 Ry
     Harris-Foulkes estimate   =    -329.49072524 Ry
     estimated scf accuracy    <       0.00125995 Ry

     iteration #  3     ecut=    30.00 Ry     beta=0.70
     Davidson diagonalization with overlap
     ethr =  5.91E-07,  avg # of iterations =  3.0

     negative rho (up, down):  1.752E-08 0.000E+00

     total cpu time spent up to now is        7.2 secs

     total energy              =    -329.49050008 Ry
     Harris-Foulkes estimate   =    -329.49051225 Ry
     estimated scf accuracy    <       0.00005073 Ry

     iteration #  4     ecut=    30.00 Ry     beta=0.70
     Davidson diagonalization with overlap
     ethr =  9.22E-08,  avg # of iterations =  2.0

     total cpu time spent up to now is        7.4 secs

     total energy              =    -329.49051069 Ry
     Harris-Foulkes estimate   =    -329.49051482 Ry
     estimated scf accuracy    <       0.00001419 Ry

     iteration #  5     ecut=    30.00 Ry     beta=0.70
     Davidson diagonalization with overlap
     ethr =  2.58E-08,  avg # of iterations =  2.0

     total cpu time spent up to now is        7.7 secs

     total energy              =    -329.49051355 Ry
     Harris-Foulkes estimate   =    -329.49051484 Ry
     estimated scf accuracy    <       0.00000348 Ry

     iteration #  6     ecut=    30.00 Ry     beta=0.70
     Davidson diagonalization with overlap
     ethr =  6.33E-09,  avg # of iterations =  2.0

     total cpu time spent up to now is        7.9 secs

     total energy              =    -329.49051419 Ry
     Harris-Foulkes estimate   =    -329.49051432 Ry
     estimated scf accuracy    <       0.00000021 Ry

     iteration #  7     ecut=    30.00 Ry     beta=0.70
     Davidson diagonalization with overlap
     ethr =  3.87E-10,  avg # of iterations =  3.0

     total cpu time spent up to now is        8.1 secs

     total energy              =    -329.49051423 Ry
     Harris-Foulkes estimate   =    -329.49051428 Ry
     estimated scf accuracy    <       0.00000007 Ry

     iteration #  8     ecut=    30.00 Ry     beta=0.70
     Davidson diagonalization with overlap
     ethr =  1.30E-10,  avg # of iterations =  2.0

     total cpu time spent up to now is        8.3 secs

     total energy              =    -329.49051434 Ry
     Harris-Foulkes estimate   =    -329.49051425 Ry
     estimated scf accuracy    <          8.5E-09 Ry

     iteration #  9     ecut=    30.00 Ry     beta=0.70
     Davidson diagonalization with overlap
     ethr =  1.54E-11,  avg # of iterations =  3.0

     total cpu time spent up to now is        8.5 secs

     End of self-consistent calculation

          k = 0.0000 0.0000 0.0000 ( 22119 PWs)   bands (ev):

    -8.4643  -7.7332  -7.7225  -7.3040  -6.9500  -6.7887  -6.5231  -6.4890
    -6.3656  -6.0309  -5.9167  -5.7603  -5.6941  -5.6565  -5.4423  -5.3939
    -5.3361  -5.2320  -5.2116  -5.2008  -5.1627  -5.1291  -5.0193  -4.9227
    -4.8965  -4.6367  -4.5007  -3.7881  -2.4898  -2.1662  -0.5448  -0.1908
     0.4064   0.8286

     the Fermi energy is    -3.7569 ev

!    total energy              =    -329.49051436 Ry
     Harris-Foulkes estimate   =    -329.49051434 Ry
     estimated scf accuracy    <          6.6E-10 Ry

     The total energy is the sum of the following terms:

     one-electron contribution =    -606.54531206 Ry
     hartree contribution      =     324.70330461 Ry
     xc contribution           =     -51.39764042 Ry
     ewald contribution        =       3.75304572 Ry
     smearing contrib. (-TS)   =      -0.00391220 Ry

     convergence has been achieved in   9 iterations

     Forces acting on atoms (Ry/au):

     atom    1 type  1   force =     0.00650900    0.00083899    0.00045710
     atom    2 type  1   force =    -0.01133820    0.00429595    0.00146574
     atom    3 type  1   force =     0.00241865   -0.00538595   -0.00105526
     atom    4 type  1   force =     0.01249554   -0.00296756   -0.00239749
     atom    5 type  1   force =    -0.01008500    0.00321857    0.00152991

     Total force =     0.022661     Total SCF correction =     0.000135

     number of scf cycles    =   3
     number of bfgs steps    =   2

     energy   old            =    -329.4887171418 Ry
     energy   new            =    -329.4905143582 Ry

     CASE: energy  _new < energy  _old

     new trust radius        =       0.0536053219 bohr
     new conv_thr            =       0.0000000012 Ry


ATOMIC_POSITIONS (bohr)
Au      -1.643834575   2.162091204  -1.167058213
Au      -0.627093719   3.907793752   3.558971652
Au       3.149561239   1.775683779   0.613002441
Au       3.934755634   3.538609263   5.957655388
Au       7.520181420   1.235510003   3.053713732



     Writing output data file pwscf.save
     Check: negative starting charge=   -0.006363
     NEW-OLD atomic charge density approx. for the potential
     Check: negative starting charge=   -0.006372

     negative rho (up, down):  6.694E-04 0.000E+00

     total cpu time spent up to now is        8.9 secs

     per-process dynamical memory:    50.7 Mb

     Self-consistent Calculation

     iteration #  1     ecut=    30.00 Ry     beta=0.70
     Davidson diagonalization with overlap
     ethr =  1.00E-06,  avg # of iterations =  5.0

     negative rho (up, down):  3.362E-05 0.000E+00

     total cpu time spent up to now is        9.3 secs

     total energy              =    -329.49127925 Ry
     Harris-Foulkes estimate   =    -329.49114807 Ry
     estimated scf accuracy    <       0.00072416 Ry

     iteration #  2     ecut=    30.00 Ry     beta=0.70
     Davidson diagonalization with overlap
     ethr =  1.32E-06,  avg # of iterations =  6.0

     negative rho (up, down):  1.338E-05 0.000E+00

     total cpu time spent up to now is        9.6 secs

     total energy              =    -329.49112363 Ry
     Harris-Foulkes estimate   =    -329.49208264 Ry
     estimated scf accuracy    <       0.00262101 Ry

     iteration #  3     ecut=    30.00 Ry     beta=0.70
     Davidson diagonalization with overlap
     ethr =  1.32E-06,  avg # of iterations =  3.0

     negative rho (up, down):  3.293E-07 0.000E+00

     total cpu time spent up to now is        9.8 secs

     total energy              =    -329.49160045 Ry
     Harris-Foulkes estimate   =    -329.49163493 Ry
     estimated scf accuracy    <       0.00011797 Ry

     iteration #  4     ecut=    30.00 Ry     beta=0.70
     Davidson diagonalization with overlap
     ethr =  2.14E-07,  avg # of iterations =  2.0

     total cpu time spent up to now is       10.1 secs

     total energy              =    -329.49162555 Ry
     Harris-Foulkes estimate   =    -329.49163386 Ry
     estimated scf accuracy    <       0.00003004 Ry

     iteration #  5     ecut=    30.00 Ry     beta=0.70
     Davidson diagonalization with overlap
     ethr =  5.46E-08,  avg # of iterations =  2.0

     total cpu time spent up to now is       10.3 secs

     total energy              =    -329.49163168 Ry
     Harris-Foulkes estimate   =    -329.49163462 Ry
     estimated scf accuracy    <       0.00000826 Ry

     iteration #  6     ecut=    30.00 Ry     beta=0.70
     Davidson diagonalization with overlap
     ethr =  1.50E-08,  avg # of iterations =  2.0

     total cpu time spent up to now is       10.5 secs

     total energy              =    -329.49163316 Ry
     Harris-Foulkes estimate   =    -329.49163344 Ry
     estimated scf accuracy    <       0.00000043 Ry

     iteration #  7     ecut=    30.00 Ry     beta=0.70
     Davidson diagonalization with overlap
     ethr =  7.73E-10,  avg # of iterations =  3.0

     total cpu time spent up to now is       10.7 secs

     total energy              =    -329.49163322 Ry
     Harris-Foulkes estimate   =    -329.49163336 Ry
     estimated scf accuracy    <       0.00000017 Ry

     iteration #  8     ecut=    30.00 Ry     beta=0.70
     Davidson diagonalization with overlap
     ethr =  3.01E-10,  avg # of iterations =  2.0

     total cpu time spent up to now is       10.9 secs

     total energy              =    -329.49163329 Ry
     Harris-Foulkes estimate   =    -329.49163326 Ry
     estimated scf accuracy    <       0.00000002 Ry

     iteration #  9     ecut=    30.00 Ry     beta=0.70
     Davidson diagonalization with overlap
     ethr =  3.36E-11,  avg # of iterations =  2.0

     total cpu time spent up to now is       11.2 secs

     total energy              =    -329.49163334 Ry
     Harris-Foulkes estimate   =    -329.49163330 Ry
     estimated scf accuracy    <          1.4E-09 Ry

     iteration # 10     ecut=    30.00 Ry     beta=0.70
     Davidson diagonalization with overlap
     ethr =  2.51E-12,  avg # of iterations =  3.0

     total cpu time spent up to now is       11.4 secs

     End of self-consistent calculation

          k = 0.0000 0.0000 0.0000 ( 22119 PWs)   bands (ev):

    -8.4692  -7.7601  -7.6482  -7.2579  -6.9595  -6.7962  -6.5835  -6.4837
    -6.3282  -6.0492  -5.9696  -5.7518  -5.7054  -5.6607  -5.4392  -5.3850
    -5.3251  -5.2288  -5.2098  -5.1985  -5.1661  -5.1333  -5.0115  -4.9264
    -4.9091  -4.6478  -4.5038  -3.7670  -2.4793  -2.1894  -0.5413  -0.1902
     0.4067   0.8175

     the Fermi energy is    -3.7320 ev

!    total energy              =    -329.49163334 Ry
     Harris-Foulkes estimate   =    -329.49163334 Ry
     estimated scf accuracy    <          3.4E-10 Ry

     The total energy is the sum of the following terms:

     one-electron contribution =    -606.36160230 Ry
     hartree contribution      =     324.60950664 Ry
     xc contribution           =     -51.39595039 Ry
     ewald contribution        =       3.66123588 Ry
     smearing contrib. (-TS)   =      -0.00482317 Ry

     convergence has been achieved in  10 iterations

     Forces acting on atoms (Ry/au):

     atom    1 type  1   force =     0.00594413    0.00063306   -0.00027939
     atom    2 type  1   force =    -0.00067170    0.00235007    0.00479875
     atom    3 type  1   force =    -0.00476371   -0.00333281   -0.00112752
     atom    4 type  1   force =    -0.00053120   -0.00003623   -0.00406614
     atom    5 type  1   force =     0.00002247    0.00038591    0.00067430

     Total force =     0.010831     Total SCF correction =     0.000087

     number of scf cycles    =   4
     number of bfgs steps    =   3

     energy   old            =    -329.4905143582 Ry
     energy   new            =    -329.4916333379 Ry

     CASE: energy  _new < energy  _old

     new trust radius        =       0.0101499946 bohr
     new conv_thr            =       0.0000000006 Ry


ATOMIC_POSITIONS (bohr)
Au      -1.634856070   2.163216700  -1.167111727
Au      -0.634500464   3.912395380   3.564166605
Au       3.146463897   1.769511925   0.611188105
Au       3.941424317   3.537022085   5.952973175
Au       7.515038319   1.237541911   3.055068842



     Writing output data file pwscf.save
     Check: negative starting charge=   -0.006372
     NEW-OLD atomic charge density approx. for the potential
     Check: negative starting charge=   -0.006372

     negative rho (up, down):  9.668E-06 0.000E+00

     total cpu time spent up to now is       11.7 secs

     per-process dynamical memory:    50.7 Mb

     Self-consistent Calculation

     iteration #  1     ecut=    30.00 Ry     beta=0.70
     Davidson diagonalization with overlap
     ethr =  1.00E-06,  avg # of iterations =  4.0

     Threshold (ethr) on eigenvalues was too large:
     Diagonalizing with lowered threshold

     Davidson diagonalization with overlap
     ethr =  4.36E-08,  avg # of iterations =  1.0

     total cpu time spent up to now is       12.2 secs

     total energy              =    -329.49175330 Ry
     Harris-Foulkes estimate   =    -329.49175641 Ry
     estimated scf accuracy    <       0.00002462 Ry

     iteration #  2     ecut=    30.00 Ry     beta=0.70
     Davidson diagonalization with overlap
     ethr =  4.48E-08,  avg # of iterations =  3.0

     total cpu time spent up to now is       12.5 secs

     total energy              =    -329.49175141 Ry
     Harris-Foulkes estimate   =    -329.49177268 Ry
     estimated scf accuracy    <       0.00005166 Ry

     iteration #  3     ecut=    30.00 Ry     beta=0.70
     Davidson diagonalization with overlap
     ethr =  4.48E-08,  avg # of iterations =  2.0

     total cpu time spent up to now is       12.7 secs

     total energy              =    -329.49176159 Ry
     Harris-Foulkes estimate   =    -329.49176429 Ry
     estimated scf accuracy    <       0.00000685 Ry

     iteration #  4     ecut=    30.00 Ry     beta=0.70
     Davidson diagonalization with overlap
     ethr =  1.25E-08,  avg # of iterations =  2.0

     total cpu time spent up to now is       12.9 secs

     total energy              =    -329.49176250 Ry
     Harris-Foulkes estimate   =    -329.49176327 Ry
     estimated scf accuracy    <       0.00000106 Ry

     iteration #  5     ecut=    30.00 Ry     beta=0.70
     Davidson diagonalization with overlap
     ethr =  1.92E-09,  avg # of iterations =  2.0

     total cpu time spent up to now is       13.1 secs

     total energy              =    -329.49176260 Ry
     Harris-Foulkes estimate   =    -329.49176286 Ry
     estimated scf accuracy    <       0.00000040 Ry

     iteration #  6     ecut=    30.00 Ry     beta=0.70
     Davidson diagonalization with overlap
     ethr =  7.34E-10,  avg # of iterations =  2.0

     total cpu time spent up to now is       13.3 secs

     total energy              =    -329.49176270 Ry
     Harris-Foulkes estimate   =    -329.49176268 Ry
     estimated scf accuracy    <       0.00000002 Ry

     iteration #  7     ecut=    30.00 Ry     beta=0.70
     Davidson diagonalization with overlap
     ethr =  2.98E-11,  avg # of iterations =  3.0

     total cpu time spent up to now is       13.6 secs

     total energy              =    -329.49176263 Ry
     Harris-Foulkes estimate   =    -329.49176271 Ry
     estimated scf accuracy    <          7.5E-09 Ry

     iteration #  8     ecut=    30.00 Ry     beta=0.70
     Davidson diagonalization with overlap
     ethr =  1.36E-11,  avg # of iterations =  2.0

     total cpu time spent up to now is       13.8 secs

     total energy              =    -329.49176263 Ry
     Harris-Foulkes estimate   =    -329.49176263 Ry
     estimated scf accuracy    <          6.0E-10 Ry

     iteration #  9     ecut=    30.00 Ry     beta=0.70
     Davidson diagonalization with overlap
     ethr =  1.09E-12,  avg # of iterations =  3.0

     total cpu time spent up to now is       14.0 secs

     End of self-consistent calculation

          k = 0.0000 0.0000 0.0000 ( 22119 PWs)   bands (ev):

    -8.4725  -7.7647  -7.6409  -7.2530  -6.9582  -6.7991  -6.5940  -6.4825
    -6.3224  -6.0525  -5.9758  -5.7527  -5.7099  -5.6629  -5.4364  -5.3831
    -5.3237  -5.2286  -5.2098  -5.1971  -5.1668  -5.1339  -5.0093  -4.9264
    -4.9100  -4.6499  -4.5020  -3.7650  -2.4752  -2.1925  -0.5410  -0.1908
     0.4081   0.8167

     the Fermi energy is    -3.7299 ev

!    total energy              =    -329.49176266 Ry
     Harris-Foulkes estimate   =    -329.49176263 Ry
     estimated scf accuracy    <          7.6E-11 Ry

     The total energy is the sum of the following terms:

     one-electron contribution =    -606.44457247 Ry
     hartree contribution      =     324.65071355 Ry
     xc contribution           =     -51.39637851 Ry
     ewald contribution        =       3.70333946 Ry
     smearing contrib. (-TS)   =      -0.00486468 Ry

     convergence has been achieved in   9 iterations

     Forces acting on atoms (Ry/au):

     atom    1 type  1   force =     0.00493952    0.00083225   -0.00038378
     atom    2 type  1   force =     0.00040936    0.00195135    0.00473509
     atom    3 type  1   force =    -0.00456728   -0.00315610   -0.00055179
     atom    4 type  1   force =    -0.00193692    0.00042203   -0.00400797
     atom    5 type  1   force =     0.00115532   -0.00004954    0.00020845

     Total force =     0.010205     Total SCF correction =     0.000045

     number of scf cycles    =   5
     number of bfgs steps    =   4

     energy   old            =    -329.4916333379 Ry
     energy   new            =    -329.4917626598 Ry

     CASE: energy  _new < energy  _old

     new trust radius        =       0.0111649941 bohr
     new conv_thr            =       0.0000000001 Ry


ATOMIC_POSITIONS (bohr)
Au      -1.623871754   2.164905035  -1.167495598
Au      -0.640293051   3.917674071   3.572118865
Au       3.140497776   1.761879453   0.609415438
Au       3.945251699   3.536164090   5.946065652
Au       7.511985331   1.239065351   3.056180643



     Writing output data file pwscf.save
     Check: negative starting charge=   -0.006372
     NEW-OLD atomic charge density approx. for the potential
     Check: negative starting charge=   -0.006373

     negative rho (up, down):  1.561E-05 0.000E+00

     total cpu time spent up to now is       14.3 secs

     per-process dynamical memory:    50.7 Mb

     Self-consistent Calculation

     iteration #  1     ecut=    30.00 Ry     beta=0.70
     Davidson diagonalization with overlap
     ethr =  1.00E-06,  avg # of iterations =  4.0

     Threshold (ethr) on eigenvalues was too large:
     Diagonalizing with lowered threshold

     Davidson diagonalization with overlap
     ethr =  4.85E-08,  avg # of iterations =  1.0

     negative rho (up, down):  2.161E-08 0.000E+00

     total cpu time spent up to now is       14.8 secs

     total energy              =    -329.49190414 Ry
     Harris-Foulkes estimate   =    -329.49190608 Ry
     estimated scf accuracy    <       0.00002710 Ry

     iteration #  2     ecut=    30.00 Ry     beta=0.70
     Davidson diagonalization with overlap
     ethr =  4.93E-08,  avg # of iterations =  2.0

     total cpu time spent up to now is       15.0 secs

     total energy              =    -329.49190514 Ry
     Harris-Foulkes estimate   =    -329.49192032 Ry
     estimated scf accuracy    <       0.00003332 Ry

     iteration #  3     ecut=    30.00 Ry     beta=0.70
     Davidson diagonalization with overlap
     ethr =  4.93E-08,  avg # of iterations =  2.0

     total cpu time spent up to now is       15.2 secs

     total energy              =    -329.49191189 Ry
     Harris-Foulkes estimate   =    -329.49191502 Ry
     estimated scf accuracy    <       0.00000753 Ry

     iteration #  4     ecut=    30.00 Ry     beta=0.70
     Davidson diagonalization with overlap
     ethr =  1.37E-08,  avg # of iterations =  2.0

     total cpu time spent up to now is       15.4 secs

     total energy              =    -329.49191318 Ry
     Harris-Foulkes estimate   =    -329.49191389 Ry
     estimated scf accuracy    <       0.00000134 Ry

     iteration #  5     ecut=    30.00 Ry     beta=0.70
     Davidson diagonalization with overlap
     ethr =  2.44E-09,  avg # of iterations =  2.0

     total cpu time spent up to now is       15.7 secs

     total energy              =    -329.49191331 Ry
     Harris-Foulkes estimate   =    -329.49191354 Ry
     estimated scf accuracy    <       0.00000029 Ry

     iteration #  6     ecut=    30.00 Ry     beta=0.70
     Davidson diagonalization with overlap
     ethr =  5.22E-10,  avg # of iterations =  2.0

     total cpu time spent up to now is       15.9 secs

     total energy              =    -329.49191333 Ry
     Harris-Foulkes estimate   =    -329.49191337 Ry
     estimated scf accuracy    <       0.00000002 Ry

     iteration #  7     ecut=    30.00 Ry     beta=0.70
     Davidson diagonalization with overlap
     ethr =  3.02E-11,  avg # of iterations =  3.0

     total cpu time spent up to now is       16.1 secs

     total energy              =    -329.49191330 Ry
     Harris-Foulkes estimate   =    -329.49191334 Ry
     estimated scf accuracy    <          9.0E-09 Ry

     iteration #  8     ecut=    30.00 Ry     beta=0.70
     Davidson diagonalization with overlap
     ethr =  1.65E-11,  avg # of iterations =  2.0

     total cpu time spent up to now is       16.3 secs

     total energy              =    -329.49191326 Ry
     Harris-Foulkes estimate   =    -329.49191330 Ry
     estimated scf accuracy    <          7.6E-10 Ry

     iteration #  9     ecut=    30.00 Ry     beta=0.70
     Davidson diagonalization with overlap
     ethr =  1.38E-12,  avg # of iterations =  3.0

     total cpu time spent up to now is       16.5 secs

     End of self-consistent calculation

          k = 0.0000 0.0000 0.0000 ( 22119 PWs)   bands (ev):

    -8.4764  -7.7678  -7.6380  -7.2497  -6.9567  -6.8019  -6.6006  -6.4817
    -6.3192  -6.0550  -5.9792  -5.7547  -5.7152  -5.6656  -5.4329  -5.3815
    -5.3230  -5.2285  -5.2093  -5.1960  -5.1678  -5.1342  -5.0069  -4.9254
    -4.9099  -4.6527  -4.4990  -3.7647  -2.4704  -2.1946  -0.5409  -0.1921
     0.4103   0.8169

     the Fermi energy is    -3.7298 ev

!    total energy              =    -329.49191324 Ry
     Harris-Foulkes estimate   =    -329.49191326 Ry
     estimated scf accuracy    <          8.2E-11 Ry

     The total energy is the sum of the following terms:

     one-electron contribution =    -606.58100943 Ry
     hartree contribution      =     324.71862268 Ry
     xc contribution           =     -51.39707864 Ry
     ewald contribution        =       3.77238233 Ry
     smearing contrib. (-TS)   =      -0.00483016 Ry

     convergence has been achieved in   9 iterations

     Forces acting on atoms (Ry/au):

     atom    1 type  1   force =     0.00351551    0.00115331   -0.00041730
     atom    2 type  1   force =     0.00091302    0.00155337    0.00423646
     atom    3 type  1   force =    -0.00345646   -0.00308750    0.00034922
     atom    4 type  1   force =    -0.00262680    0.00074047   -0.00384026
     atom    5 type  1   force =     0.00165473   -0.00035964   -0.00032812

     Total force =     0.009046     Total SCF correction =     0.000045

     number of scf cycles    =   6
     number of bfgs steps    =   5

     energy   old            =    -329.4917626598 Ry
     energy   new            =    -329.4919132361 Ry

     CASE: energy  _new < energy  _old

     new trust radius        =       0.0167474911 bohr
     new conv_thr            =       0.0000000002 Ry


ATOMIC_POSITIONS (bohr)
Au      -1.607778725   2.168239292  -1.168358921
Au      -0.646593005   3.925469481   3.585536042
Au       3.130611966   1.749581007   0.607991976
Au       3.947431913   3.535908520   5.934124558
Au       7.509897850   1.240489701   3.056991345



     Writing output data file pwscf.save
     Check: negative starting charge=   -0.006373
     NEW-OLD atomic charge density approx. for the potential
     Check: negative starting charge=   -0.006373

     negative rho (up, down):  6.264E-05 0.000E+00

     total cpu time spent up to now is       16.9 secs

     per-process dynamical memory:    50.7 Mb

     Self-consistent Calculation

     iteration #  1     ecut=    30.00 Ry     beta=0.70
     Davidson diagonalization with overlap
     ethr =  1.00E-06,  avg # of iterations =  4.0

     negative rho (up, down):  3.328E-07 0.000E+00

     total cpu time spent up to now is       17.3 secs

     total energy              =    -329.49208151 Ry
     Harris-Foulkes estimate   =    -329.49208387 Ry
     estimated scf accuracy    <       0.00006017 Ry

     iteration #  2     ecut=    30.00 Ry     beta=0.70
     Davidson diagonalization with overlap
     ethr =  1.09E-07,  avg # of iterations =  2.0

     negative rho (up, down):  1.385E-08 0.000E+00

     total cpu time spent up to now is       17.5 secs

     total energy              =    -329.49208841 Ry
     Harris-Foulkes estimate   =    -329.49211315 Ry
     estimated scf accuracy    <       0.00005213 Ry

     iteration #  3     ecut=    30.00 Ry     beta=0.70
     Davidson diagonalization with overlap
     ethr =  9.48E-08,  avg # of iterations =  2.0

     total cpu time spent up to now is       17.7 secs

     total energy              =    -329.49209894 Ry
     Harris-Foulkes estimate   =    -329.49210424 Ry
     estimated scf accuracy    <       0.00001211 Ry

     iteration #  4     ecut=    30.00 Ry     beta=0.70
     Davidson diagonalization with overlap
     ethr =  2.20E-08,  avg # of iterations =  2.0

     total cpu time spent up to now is       17.9 secs

     total energy              =    -329.49210121 Ry
     Harris-Foulkes estimate   =    -329.49210295 Ry
     estimated scf accuracy    <       0.00000386 Ry

     iteration #  5     ecut=    30.00 Ry     beta=0.70
     Davidson diagonalization with overlap
     ethr =  7.01E-09,  avg # of iterations =  2.0

     total cpu time spent up to now is       18.1 secs

     total energy              =    -329.49210172 Ry
     Harris-Foulkes estimate   =    -329.49210198 Ry
     estimated scf accuracy    <       0.00000025 Ry

     iteration #  6     ecut=    30.00 Ry     beta=0.70
     Davidson diagonalization with overlap
     ethr =  4.48E-10,  avg # of iterations =  2.0

     total cpu time spent up to now is       18.4 secs

     total energy              =    -329.49210170 Ry
     Harris-Foulkes estimate   =    -329.49210180 Ry
     estimated scf accuracy    <       0.00000002 Ry

     iteration #  7     ecut=    30.00 Ry     beta=0.70
     Davidson diagonalization with overlap
     ethr =  3.69E-11,  avg # of iterations =  3.0

     total cpu time spent up to now is       18.6 secs

     total energy              =    -329.49210165 Ry
     Harris-Foulkes estimate   =    -329.49210171 Ry
     estimated scf accuracy    <          9.2E-09 Ry

     iteration #  8     ecut=    30.00 Ry     beta=0.70
     Davidson diagonalization with overlap
     ethr =  1.67E-11,  avg # of iterations =  2.0

     total cpu time spent up to now is       18.9 secs

     total energy              =    -329.49210165 Ry
     Harris-Foulkes estimate   =    -329.49210165 Ry
     estimated scf accuracy    <          6.9E-10 Ry

     iteration #  9     ecut=    30.00 Ry     beta=0.70
     Davidson diagonalization with overlap
     ethr =  1.25E-12,  avg # of iterations =  3.0

     total cpu time spent up to now is       19.1 secs

     total energy              =    -329.49210166 Ry
     Harris-Foulkes estimate   =    -329.49210165 Ry
     estimated scf accuracy    <          3.5E-10 Ry

     iteration # 10     ecut=    30.00 Ry     beta=0.70
     Davidson diagonalization with overlap
     ethr =  6.37E-13,  avg # of iterations =  2.0

     total cpu time spent up to now is       19.3 secs

     End of self-consistent calculation

          k = 0.0000 0.0000 0.0000 ( 22119 PWs)   bands (ev):

    -8.4820  -7.7707  -7.6389  -7.2471  -6.9547  -6.8059  -6.6055  -6.4809
    -6.3180  -6.0573  -5.9811  -5.7581  -5.7224  -5.6697  -5.4278  -5.3795
    -5.3227  -5.2286  -5.2077  -5.1953  -5.1690  -5.1343  -5.0032  -4.9229
    -4.9084  -4.6575  -4.4937  -3.7662  -2.4630  -2.1960  -0.5409  -0.1942
     0.4143   0.8181

     the Fermi energy is    -3.7319 ev

!    total energy              =    -329.49210166 Ry
     Harris-Foulkes estimate   =    -329.49210166 Ry
     estimated scf accuracy    <          2.5E-11 Ry

     The total energy is the sum of the following terms:

     one-electron contribution =    -606.82018933 Ry
     hartree contribution      =     324.83789312 Ry
     xc contribution           =     -51.39835142 Ry
     ewald contribution        =       3.89324701 Ry
     smearing contrib. (-TS)   =      -0.00470103 Ry

     convergence has been achieved in  10 iterations

     Forces acting on atoms (Ry/au):

     atom    1 type  1   force =     0.00128042    0.00165366   -0.00037172
     atom    2 type  1   force =     0.00104162    0.00098731    0.00307846
     atom    3 type  1   force =    -0.00128592   -0.00297852    0.00176681
     atom    4 type  1   force =    -0.00287747    0.00102804   -0.00346028
     atom    5 type  1   force =     0.00184135   -0.00069049   -0.00101327

     Total force =     0.007477     Total SCF correction =     0.000020

     number of scf cycles    =   7
     number of bfgs steps    =   6

     energy   old            =    -329.4919132361 Ry
     energy   new            =    -329.4921016577 Ry

     CASE: energy  _new < energy  _old

     new trust radius        =       0.0251212367 bohr
     new conv_thr            =       0.0000000002 Ry


ATOMIC_POSITIONS (bohr)
Au      -1.585564737   2.174971111  -1.169943901
Au      -0.653440404   3.936840356   3.606864260
Au       3.116477829   1.729537874   0.608878821
Au       3.946352827   3.537015990   5.913908697
Au       7.509744485   1.241322668   3.056577123



     Writing output data file pwscf.save
     Check: negative starting charge=   -0.006373
     NEW-OLD atomic charge density approx. for the potential
     Check: negative starting charge=   -0.006377

     negative rho (up, down):  1.917E-04 0.000E+00

     total cpu time spent up to now is       19.6 secs

     per-process dynamical memory:    50.7 Mb

     Self-consistent Calculation

     iteration #  1     ecut=    30.00 Ry     beta=0.70
     Davidson diagonalization with overlap
     ethr =  1.00E-06,  avg # of iterations =  4.0

     negative rho (up, down):  3.203E-06 0.000E+00

     total cpu time spent up to now is       20.0 secs

     total energy              =    -329.49221868 Ry
     Harris-Foulkes estimate   =    -329.49221275 Ry
     estimated scf accuracy    <       0.00014423 Ry

     iteration #  2     ecut=    30.00 Ry     beta=0.70
     Davidson diagonalization with overlap
     ethr =  2.62E-07,  avg # of iterations =  2.0

     negative rho (up, down):  2.094E-07 0.000E+00

     total cpu time spent up to now is       20.2 secs

     total energy              =    -329.49224191 Ry
     Harris-Foulkes estimate   =    -329.49229209 Ry
     estimated scf accuracy    <       0.00010632 Ry

     iteration #  3     ecut=    30.00 Ry     beta=0.70
     Davidson diagonalization with overlap
     ethr =  1.93E-07,  avg # of iterations =  2.0

     total cpu time spent up to now is       20.4 secs

     total energy              =    -329.49226426 Ry
     Harris-Foulkes estimate   =    -329.49227232 Ry
     estimated scf accuracy    <       0.00001995 Ry

     iteration #  4     ecut=    30.00 Ry     beta=0.70
     Davidson diagonalization with overlap
     ethr =  3.63E-08,  avg # of iterations =  2.0

     total cpu time spent up to now is       20.6 secs

     total energy              =    -329.49226738 Ry
     Harris-Foulkes estimate   =    -329.49227293 Ry
     estimated scf accuracy    <       0.00001254 Ry

     iteration #  5     ecut=    30.00 Ry     beta=0.70
     Davidson diagonalization with overlap
     ethr =  2.28E-08,  avg # of iterations =  2.0

     total cpu time spent up to now is       20.8 secs

     total energy              =    -329.49226920 Ry
     Harris-Foulkes estimate   =    -329.49226973 Ry
     estimated scf accuracy    <       0.00000080 Ry

     iteration #  6     ecut=    30.00 Ry     beta=0.70
     Davidson diagonalization with overlap
     ethr =  1.45E-09,  avg # of iterations =  3.0

     total cpu time spent up to now is       21.1 secs

     total energy              =    -329.49226922 Ry
     Harris-Foulkes estimate   =    -329.49226944 Ry
     estimated scf accuracy    <       0.00000010 Ry

     iteration #  7     ecut=    30.00 Ry     beta=0.70
     Davidson diagonalization with overlap
     ethr =  1.81E-10,  avg # of iterations =  2.0

     total cpu time spent up to now is       21.3 secs

     total energy              =    -329.49226930 Ry
     Harris-Foulkes estimate   =    -329.49226925 Ry
     estimated scf accuracy    <       0.00000004 Ry

     iteration #  8     ecut=    30.00 Ry     beta=0.70
     Davidson diagonalization with overlap
     ethr =  7.25E-11,  avg # of iterations =  2.0

     total cpu time spent up to now is       21.6 secs

     total energy              =    -329.49226927 Ry
     Harris-Foulkes estimate   =    -329.49226931 Ry
     estimated scf accuracy    <          4.7E-09 Ry

     iteration #  9     ecut=    30.00 Ry     beta=0.70
     Davidson diagonalization with overlap
     ethr =  8.48E-12,  avg # of iterations =  2.0

     total cpu time spent up to now is       21.8 secs

     total energy              =    -329.49226927 Ry
     Harris-Foulkes estimate   =    -329.49226927 Ry
     estimated scf accuracy    <          7.5E-10 Ry

     iteration # 10     ecut=    30.00 Ry     beta=0.70
     Davidson diagonalization with overlap
     ethr =  1.36E-12,  avg # of iterations =  2.0

     total cpu time spent up to now is       22.0 secs

     End of self-consistent calculation

          k = 0.0000 0.0000 0.0000 ( 22119 PWs)   bands (ev):

    -8.4902  -7.7732  -7.6462  -7.2463  -6.9527  -6.8115  -6.6065  -6.4803
    -6.3209  -6.0589  -5.9799  -5.7636  -5.7302  -5.6757  -5.4209  -5.3771
    -5.3236  -5.2290  -5.2046  -5.1956  -5.1696  -5.1339  -4.9980  -4.9177
    -4.9034  -4.6662  -4.4848  -3.7709  -2.4525  -2.1957  -0.5414  -0.1974
     0.4213   0.8209

     the Fermi energy is    -3.7378 ev

!    total energy              =    -329.49226925 Ry
     Harris-Foulkes estimate   =    -329.49226927 Ry
     estimated scf accuracy    <          4.9E-11 Ry

     The total energy is the sum of the following terms:

     one-electron contribution =    -607.21556127 Ry
     hartree contribution      =     325.03555112 Ry
     xc contribution           =     -51.40058342 Ry
     ewald contribution        =       4.09273004 Ry
     smearing contrib. (-TS)   =      -0.00440572 Ry

     convergence has been achieved in  10 iterations

     Forces acting on atoms (Ry/au):

     atom    1 type  1   force =    -0.00184885    0.00224814   -0.00025200
     atom    2 type  1   force =     0.00043785    0.00017504    0.00078972
     atom    3 type  1   force =     0.00212784   -0.00250804    0.00380268
     atom    4 type  1   force =    -0.00235026    0.00116595   -0.00258846
     atom    5 type  1   force =     0.00163343   -0.00108109   -0.00175193

     Total force =     0.007426     Total SCF correction =     0.000032

     number of scf cycles    =   8
     number of bfgs steps    =   7

     energy   old            =    -329.4921016577 Ry
     energy   new            =    -329.4922692486 Ry

     CASE: energy  _new < energy  _old

     new trust radius        =       0.0128293663 bohr
     new conv_thr            =       0.0000000002 Ry


ATOMIC_POSITIONS (bohr)
Au      -1.577877528   2.180277966  -1.170938036
Au      -0.655089800   3.941790696   3.617139199
Au       3.112003488   1.718398714   0.613405633
Au       3.942310227   3.538938321   5.902136528
Au       7.512223613   1.240282304   3.054541676



     Writing output data file pwscf.save
     Check: negative starting charge=   -0.006377
     NEW-OLD atomic charge density approx. for the potential
     Check: negative starting charge=   -0.006381

     negative rho (up, down):  2.823E-05 0.000E+00

     total cpu time spent up to now is       22.4 secs

     per-process dynamical memory:    50.7 Mb

     Self-consistent Calculation

     iteration #  1     ecut=    30.00 Ry     beta=0.70
     Davidson diagonalization with overlap
     ethr =  1.00E-06,  avg # of iterations =  4.0

     Threshold (ethr) on eigenvalues was too large:
     Diagonalizing with lowered threshold

     Davidson diagonalization with overlap
     ethr =  7.66E-08,  avg # of iterations =  1.0

     negative rho (up, down):  5.749E-08 0.000E+00

     total cpu time spent up to now is       22.9 secs

     total energy              =    -329.49232883 Ry
     Harris-Foulkes estimate   =    -329.49233914 Ry
     estimated scf accuracy    <       0.00004213 Ry

     iteration #  2     ecut=    30.00 Ry     beta=0.70
     Davidson diagonalization with overlap
     ethr =  7.66E-08,  avg # of iterations =  2.0

     total cpu time spent up to now is       23.2 secs

     total energy              =    -329.49233483 Ry
     Harris-Foulkes estimate   =    -329.49235066 Ry
     estimated scf accuracy    <       0.00003204 Ry

     iteration #  3     ecut=    30.00 Ry     beta=0.70
     Davidson diagonalization with overlap
     ethr =  5.83E-08,  avg # of iterations =  2.0

     total cpu time spent up to now is       23.4 secs

     total energy              =    -329.49234080 Ry
     Harris-Foulkes estimate   =    -329.49234395 Ry
     estimated scf accuracy    <       0.00000686 Ry

     iteration #  4     ecut=    30.00 Ry     beta=0.70
     Davidson diagonalization with overlap
     ethr =  1.25E-08,  avg # of iterations =  2.0

     total cpu time spent up to now is       23.6 secs

     total energy              =    -329.49234185 Ry
     Harris-Foulkes estimate   =    -329.49234362 Ry
     estimated scf accuracy    <       0.00000395 Ry

     iteration #  5     ecut=    30.00 Ry     beta=0.70
     Davidson diagonalization with overlap
     ethr =  7.18E-09,  avg # of iterations =  2.0

     total cpu time spent up to now is       23.8 secs

     total energy              =    -329.49234235 Ry
     Harris-Foulkes estimate   =    -329.49234254 Ry
     estimated scf accuracy    <       0.00000019 Ry

     iteration #  6     ecut=    30.00 Ry     beta=0.70
     Davidson diagonalization with overlap
     ethr =  3.48E-10,  avg # of iterations =  3.0

     total cpu time spent up to now is       24.1 secs

     total energy              =    -329.49234228 Ry
     Harris-Foulkes estimate   =    -329.49234242 Ry
     estimated scf accuracy    <       0.00000002 Ry

     iteration #  7     ecut=    30.00 Ry     beta=0.70
     Davidson diagonalization with overlap
     ethr =  3.28E-11,  avg # of iterations =  2.0

     total cpu time spent up to now is       24.3 secs

     total energy              =    -329.49234224 Ry
     Harris-Foulkes estimate   =    -329.49234229 Ry
     estimated scf accuracy    <          6.8E-09 Ry

     iteration #  8     ecut=    30.00 Ry     beta=0.70
     Davidson diagonalization with overlap
     ethr =  1.25E-11,  avg # of iterations =  2.0

     total cpu time spent up to now is       24.5 secs

     total energy              =    -329.49234225 Ry
     Harris-Foulkes estimate   =    -329.49234225 Ry
     estimated scf accuracy    <          9.3E-10 Ry

     iteration #  9     ecut=    30.00 Ry     beta=0.70
     Davidson diagonalization with overlap
     ethr =  1.69E-12,  avg # of iterations =  2.0

     total cpu time spent up to now is       24.8 secs

     total energy              =    -329.49234224 Ry
     Harris-Foulkes estimate   =    -329.49234225 Ry
     estimated scf accuracy    <          1.7E-10 Ry

     iteration # 10     ecut=    30.00 Ry     beta=0.70
     Davidson diagonalization with overlap
     ethr =  3.15E-13,  avg # of iterations =  2.0

     total cpu time spent up to now is       25.0 secs

     End of self-consistent calculation

          k = 0.0000 0.0000 0.0000 ( 22119 PWs)   bands (ev):

    -8.4929  -7.7731  -7.6541  -7.2480  -6.9520  -6.8130  -6.6026  -6.4806
    -6.3258  -6.0586  -5.9763  -5.7655  -5.7313  -5.6787  -5.4193  -5.3764
    -5.3249  -5.2292  -5.2028  -5.1968  -5.1683  -5.1334  -4.9963  -4.9141
    -4.8987  -4.6719  -4.4798  -3.7747  -2.4485  -2.1935  -0.5419  -0.1988
     0.4253   0.8229

     the Fermi energy is    -3.7426 ev

!    total energy              =    -329.49234224 Ry
     Harris-Foulkes estimate   =    -329.49234224 Ry
     estimated scf accuracy    <          1.1E-11 Ry

     The total energy is the sum of the following terms:

     one-electron contribution =    -607.42667215 Ry
     hartree contribution      =     325.14137261 Ry
     xc contribution           =     -51.40173335 Ry
     ewald contribution        =       4.19888760 Ry
     smearing contrib. (-TS)   =      -0.00419694 Ry

     convergence has been achieved in  10 iterations

     Forces acting on atoms (Ry/au):

     atom    1 type  1   force =    -0.00260715    0.00240690    0.00003360
     atom    2 type  1   force =    -0.00045284   -0.00009849   -0.00064150
     atom    3 type  1   force =     0.00292684   -0.00215755    0.00422611
     atom    4 type  1   force =    -0.00124088    0.00098815   -0.00190063
     atom    5 type  1   force =     0.00137403   -0.00113901   -0.00171758

     Total force =     0.007521     Total SCF correction =     0.000016

     number of scf cycles    =   9
     number of bfgs steps    =   8

     energy   old            =    -329.4922692486 Ry
     energy   new            =    -329.4923422382 Ry

     CASE: energy  _new < energy  _old

     new trust radius        =       0.0141123030 bohr
     new conv_thr            =            1.0E-10 Ry


ATOMIC_POSITIONS (bohr)
Au      -1.573751071   2.187201744  -1.171693109
Au      -0.656639742   3.945838593   3.625220644
Au       3.110575921   1.706892097   0.621450316
Au       3.937270779   3.541613836   5.890118694
Au       7.516114113   1.238141729   3.051188455



     Writing output data file pwscf.save
     Check: negative starting charge=   -0.006381
     NEW-OLD atomic charge density approx. for the potential
     Check: negative starting charge=   -0.006384

     negative rho (up, down):  2.898E-05 0.000E+00

     total cpu time spent up to now is       25.4 secs

     per-process dynamical memory:    50.7 Mb

     Self-consistent Calculation

     iteration #  1     ecut=    30.00 Ry     beta=0.70
     Davidson diagonalization with overlap
     ethr =  1.00E-06,  avg # of iterations =  4.0

     Threshold (ethr) on eigenvalues was too large:
     Diagonalizing with lowered threshold

     Davidson diagonalization with overlap
     ethr =  8.41E-08,  avg # of iterations =  1.0

     negative rho (up, down):  6.575E-08 0.000E+00

     total cpu time spent up to now is       26.0 secs

     total energy              =    -329.49240931 Ry
     Harris-Foulkes estimate   =    -329.49242388 Ry
     estimated scf accuracy    <       0.00004627 Ry

     iteration #  2     ecut=    30.00 Ry     beta=0.70
     Davidson diagonalization with overlap
     ethr =  8.41E-08,  avg # of iterations =  2.0

     total cpu time spent up to now is       26.2 secs

     total energy              =    -329.49241526 Ry
     Harris-Foulkes estimate   =    -329.49243455 Ry
     estimated scf accuracy    <       0.00003900 Ry

     iteration #  3     ecut=    30.00 Ry     beta=0.70
     Davidson diagonalization with overlap
     ethr =  7.09E-08,  avg # of iterations =  2.0

     total cpu time spent up to now is       26.5 secs

     total energy              =    -329.49242305 Ry
     Harris-Foulkes estimate   =    -329.49242649 Ry
     estimated scf accuracy    <       0.00000893 Ry

     iteration #  4     ecut=    30.00 Ry     beta=0.70
     Davidson diagonalization with overlap
     ethr =  1.62E-08,  avg # of iterations =  2.0

     total cpu time spent up to now is       26.7 secs

     total energy              =    -329.49242509 Ry
     Harris-Foulkes estimate   =    -329.49242619 Ry
     estimated scf accuracy    <       0.00000336 Ry

     iteration #  5     ecut=    30.00 Ry     beta=0.70
     Davidson diagonalization with overlap
     ethr =  6.11E-09,  avg # of iterations =  2.0

     total cpu time spent up to now is       27.0 secs

     total energy              =    -329.49242566 Ry
     Harris-Foulkes estimate   =    -329.49242572 Ry
     estimated scf accuracy    <       0.00000028 Ry

     iteration #  6     ecut=    30.00 Ry     beta=0.70
     Davidson diagonalization with overlap
     ethr =  5.18E-10,  avg # of iterations =  3.0

     total cpu time spent up to now is       27.2 secs

     total energy              =    -329.49242562 Ry
     Harris-Foulkes estimate   =    -329.49242573 Ry
     estimated scf accuracy    <       0.00000002 Ry

     iteration #  7     ecut=    30.00 Ry     beta=0.70
     Davidson diagonalization with overlap
     ethr =  3.64E-11,  avg # of iterations =  2.0

     total cpu time spent up to now is       27.5 secs

     total energy              =    -329.49242559 Ry
     Harris-Foulkes estimate   =    -329.49242562 Ry
     estimated scf accuracy    <          8.3E-09 Ry

     iteration #  8     ecut=    30.00 Ry     beta=0.70
     Davidson diagonalization with overlap
     ethr =  1.51E-11,  avg # of iterations =  2.0

     total cpu time spent up to now is       27.8 secs

     total energy              =    -329.49242561 Ry
     Harris-Foulkes estimate   =    -329.49242559 Ry
     estimated scf accuracy    <          1.3E-09 Ry

     iteration #  9     ecut=    30.00 Ry     beta=0.70
     Davidson diagonalization with overlap
     ethr =  2.39E-12,  avg # of iterations =  2.0

     total cpu time spent up to now is       28.1 secs

     total energy              =    -329.49242561 Ry
     Harris-Foulkes estimate   =    -329.49242561 Ry
     estimated scf accuracy    <          1.4E-10 Ry

     iteration # 10     ecut=    30.00 Ry     beta=0.70
     Davidson diagonalization with overlap
     ethr =  2.46E-13,  avg # of iterations =  2.0

     total cpu time spent up to now is       28.3 secs

     End of self-consistent calculation

          k = 0.0000 0.0000 0.0000 ( 22119 PWs)   bands (ev):

    -8.4945  -7.7727  -7.6631  -7.2506  -6.9504  -6.8133  -6.5979  -6.4817
    -6.3313  -6.0582  -5.9719  -5.7661  -5.7305  -5.6813  -5.4199  -5.3757
    -5.3264  -5.2292  -5.2018  -5.1982  -5.1660  -5.1328  -4.9960  -4.9106
    -4.8929  -4.6781  -4.4755  -3.7784  -2.4460  -2.1906  -0.5426  -0.1995
     0.4293   0.8247

     the Fermi energy is    -3.7471 ev

!    total energy              =    -329.49242563 Ry
     Harris-Foulkes estimate   =    -329.49242561 Ry
     estimated scf accuracy    <          1.2E-11 Ry

     The total energy is the sum of the following terms:

     one-electron contribution =    -607.61889624 Ry
     hartree contribution      =     325.23780349 Ry
     xc contribution           =     -51.40268867 Ry
     ewald contribution        =       4.29535527 Ry
     smearing contrib. (-TS)   =      -0.00399948 Ry

     convergence has been achieved in  10 iterations

     Forces acting on atoms (Ry/au):

     atom    1 type  1   force =    -0.00253037    0.00242731    0.00048630
     atom    2 type  1   force =    -0.00146236   -0.00020764   -0.00194503
     atom    3 type  1   force =     0.00251613   -0.00178030    0.00390266
     atom    4 type  1   force =     0.00020191    0.00068057   -0.00106451
     atom    5 type  1   force =     0.00127469   -0.00111994   -0.00137941

     Total force =     0.007046     Total SCF correction =     0.000018

     number of scf cycles    =  10
     number of bfgs steps    =   9

     energy   old            =    -329.4923422382 Ry
     energy   new            =    -329.4924256347 Ry

     CASE: energy  _new < energy  _old

     new trust radius        =       0.0211684545 bohr
     new conv_thr            =            1.0E-10 Ry


ATOMIC_POSITIONS (bohr)
Au      -1.571127412   2.198342566  -1.171887608
Au      -0.660523796   3.950627473   3.632674355
Au       3.111102923   1.690890707   0.635298826
Au       3.931911591   3.545486708   5.874432268
Au       7.522206693   1.234340545   3.045767158



     Writing output data file pwscf.save
     Check: negative starting charge=   -0.006384
     NEW-OLD atomic charge density approx. for the potential
     Check: negative starting charge=   -0.006389

     negative rho (up, down):  7.714E-05 0.000E+00

     total cpu time spent up to now is       28.7 secs

     per-process dynamical memory:    50.7 Mb

     Self-consistent Calculation

     iteration #  1     ecut=    30.00 Ry     beta=0.70
     Davidson diagonalization with overlap
     ethr =  1.00E-06,  avg # of iterations =  4.0

     negative rho (up, down):  4.877E-07 0.000E+00

     total cpu time spent up to now is       29.2 secs

     total energy              =    -329.49249371 Ry
     Harris-Foulkes estimate   =    -329.49251644 Ry
     estimated scf accuracy    <       0.00009012 Ry

     iteration #  2     ecut=    30.00 Ry     beta=0.70
     Davidson diagonalization with overlap
     ethr =  1.64E-07,  avg # of iterations =  2.0

     negative rho (up, down):  2.272E-08 0.000E+00

     total cpu time spent up to now is       29.5 secs

     total energy              =    -329.49250752 Ry
     Harris-Foulkes estimate   =    -329.49254309 Ry
     estimated scf accuracy    <       0.00007298 Ry

     iteration #  3     ecut=    30.00 Ry     beta=0.70
     Davidson diagonalization with overlap
     ethr =  1.33E-07,  avg # of iterations =  2.0

     total cpu time spent up to now is       29.7 secs

     total energy              =    -329.49252186 Ry
     Harris-Foulkes estimate   =    -329.49252797 Ry
     estimated scf accuracy    <       0.00001476 Ry

     iteration #  4     ecut=    30.00 Ry     beta=0.70
     Davidson diagonalization with overlap
     ethr =  2.68E-08,  avg # of iterations =  2.0

     total cpu time spent up to now is       30.0 secs

     total energy              =    -329.49252478 Ry
     Harris-Foulkes estimate   =    -329.49252757 Ry
     estimated scf accuracy    <       0.00000702 Ry

     iteration #  5     ecut=    30.00 Ry     beta=0.70
     Davidson diagonalization with overlap
     ethr =  1.28E-08,  avg # of iterations =  2.0

     total cpu time spent up to now is       30.2 secs

     total energy              =    -329.49252608 Ry
     Harris-Foulkes estimate   =    -329.49252604 Ry
     estimated scf accuracy    <       0.00000046 Ry

     iteration #  6     ecut=    30.00 Ry     beta=0.70
     Davidson diagonalization with overlap
     ethr =  8.41E-10,  avg # of iterations =  2.0

     total cpu time spent up to now is       30.5 secs

     total energy              =    -329.49252612 Ry
     Harris-Foulkes estimate   =    -329.49252622 Ry
     estimated scf accuracy    <       0.00000005 Ry

     iteration #  7     ecut=    30.00 Ry     beta=0.70
     Davidson diagonalization with overlap
     ethr =  8.56E-11,  avg # of iterations =  2.0

     total cpu time spent up to now is       30.7 secs

     total energy              =    -329.49252610 Ry
     Harris-Foulkes estimate   =    -329.49252614 Ry
     estimated scf accuracy    <       0.00000002 Ry

     iteration #  8     ecut=    30.00 Ry     beta=0.70
     Davidson diagonalization with overlap
     ethr =  3.14E-11,  avg # of iterations =  2.0

     total cpu time spent up to now is       31.0 secs

     total energy              =    -329.49252607 Ry
     Harris-Foulkes estimate   =    -329.49252610 Ry
     estimated scf accuracy    <          2.4E-09 Ry

     iteration #  9     ecut=    30.00 Ry     beta=0.70
     Davidson diagonalization with overlap
     ethr =  4.28E-12,  avg # of iterations =  2.0

     total cpu time spent up to now is       31.3 secs

     total energy              =    -329.49252607 Ry
     Harris-Foulkes estimate   =    -329.49252607 Ry
     estimated scf accuracy    <          3.1E-10 Ry

     iteration # 10     ecut=    30.00 Ry     beta=0.70
     Davidson diagonalization with overlap
     ethr =  5.63E-13,  avg # of iterations =  3.0

     total cpu time spent up to now is       31.5 secs

     End of self-consistent calculation

          k = 0.0000 0.0000 0.0000 ( 22119 PWs)   bands (ev):

    -8.4962  -7.7730  -7.6729  -7.2539  -6.9458  -6.8132  -6.5940  -6.4835
    -6.3370  -6.0580  -5.9669  -5.7659  -5.7282  -5.6845  -5.4229  -5.3746
    -5.3277  -5.2293  -5.2029  -5.1978  -5.1628  -5.1318  -4.9967  -4.9070
    -4.8847  -4.6862  -4.4710  -3.7818  -2.4443  -2.1873  -0.5433  -0.1992
     0.4345   0.8263

     the Fermi energy is    -3.7514 ev

!    total energy              =    -329.49252607 Ry
     Harris-Foulkes estimate   =    -329.49252607 Ry
     estimated scf accuracy    <          2.8E-11 Ry

     The total energy is the sum of the following terms:

     one-electron contribution =    -607.82910131 Ry
     hartree contribution      =     325.34320524 Ry
     xc contribution           =     -51.40360249 Ry
     ewald contribution        =       4.40078777 Ry
     smearing contrib. (-TS)   =      -0.00381527 Ry

     convergence has been achieved in  10 iterations

     Forces acting on atoms (Ry/au):

     atom    1 type  1   force =    -0.00178623    0.00225177    0.00108882
     atom    2 type  1   force =    -0.00251719   -0.00018256   -0.00318042
     atom    3 type  1   force =     0.00093915   -0.00117822    0.00280393
     atom    4 type  1   force =     0.00192374    0.00021143    0.00005150
     atom    5 type  1   force =     0.00144052   -0.00110242   -0.00076383

     Total force =     0.006610     Total SCF correction =     0.000026

     number of scf cycles    =  11
     number of bfgs steps    =  10

     energy   old            =    -329.4924256347 Ry
     energy   new            =    -329.4925260686 Ry

     CASE: energy  _new < energy  _old

     new trust radius        =       0.0307445381 bohr
     new conv_thr            =       0.0000000001 Ry


ATOMIC_POSITIONS (bohr)
Au      -1.570088327   2.215695306  -1.170453095
Au      -0.669682628   3.956649447   3.637467169
Au       3.113049041   1.668792872   0.656585558
Au       3.928760509   3.550470190   5.854791425
Au       7.531531405   1.228080185   3.037893943



     Writing output data file pwscf.save
     Check: negative starting charge=   -0.006389
     NEW-OLD atomic charge density approx. for the potential
     Check: negative starting charge=   -0.006394

     negative rho (up, down):  1.803E-04 0.000E+00

     total cpu time spent up to now is       31.9 secs

     per-process dynamical memory:    50.7 Mb

     Self-consistent Calculation

     iteration #  1     ecut=    30.00 Ry     beta=0.70
     Davidson diagonalization with overlap
     ethr =  1.00E-06,  avg # of iterations =  4.0

     negative rho (up, down):  2.762E-06 0.000E+00

     total cpu time spent up to now is       32.4 secs

     total energy              =    -329.49256617 Ry
     Harris-Foulkes estimate   =    -329.49259543 Ry
     estimated scf accuracy    <       0.00017485 Ry

     iteration #  2     ecut=    30.00 Ry     beta=0.70
     Davidson diagonalization with overlap
     ethr =  3.18E-07,  avg # of iterations =  2.0

     negative rho (up, down):  1.917E-07 0.000E+00

     total cpu time spent up to now is       32.6 secs

     total energy              =    -329.49259542 Ry
     Harris-Foulkes estimate   =    -329.49266028 Ry
     estimated scf accuracy    <       0.00013226 Ry

     iteration #  3     ecut=    30.00 Ry     beta=0.70
     Davidson diagonalization with overlap
     ethr =  2.40E-07,  avg # of iterations =  2.0

     total cpu time spent up to now is       32.9 secs

     total energy              =    -329.49262225 Ry
     Harris-Foulkes estimate   =    -329.49263120 Ry
     estimated scf accuracy    <       0.00002216 Ry

     iteration #  4     ecut=    30.00 Ry     beta=0.70
     Davidson diagonalization with overlap
     ethr =  4.03E-08,  avg # of iterations =  2.0

     total cpu time spent up to now is       33.1 secs

     total energy              =    -329.49262709 Ry
     Harris-Foulkes estimate   =    -329.49263250 Ry
     estimated scf accuracy    <       0.00001603 Ry

     iteration #  5     ecut=    30.00 Ry     beta=0.70
     Davidson diagonalization with overlap
     ethr =  2.91E-08,  avg # of iterations =  2.0

     total cpu time spent up to now is       33.4 secs

     total energy              =    -329.49262939 Ry
     Harris-Foulkes estimate   =    -329.49262984 Ry
     estimated scf accuracy    <       0.00000074 Ry

     iteration #  6     ecut=    30.00 Ry     beta=0.70
     Davidson diagonalization with overlap
     ethr =  1.34E-09,  avg # of iterations =  3.0

     total cpu time spent up to now is       33.7 secs

     total energy              =    -329.49262937 Ry
     Harris-Foulkes estimate   =    -329.49262964 Ry
     estimated scf accuracy    <       0.00000009 Ry

     iteration #  7     ecut=    30.00 Ry     beta=0.70
     Davidson diagonalization with overlap
     ethr =  1.67E-10,  avg # of iterations =  2.0

     total cpu time spent up to now is       33.9 secs

     total energy              =    -329.49262941 Ry
     Harris-Foulkes estimate   =    -329.49262940 Ry
     estimated scf accuracy    <       0.00000003 Ry

     iteration #  8     ecut=    30.00 Ry     beta=0.70
     Davidson diagonalization with overlap
     ethr =  4.73E-11,  avg # of iterations =  2.0

     total cpu time spent up to now is       34.2 secs

     total energy              =    -329.49262942 Ry
     Harris-Foulkes estimate   =    -329.49262942 Ry
     estimated scf accuracy    <          4.2E-09 Ry

     iteration #  9     ecut=    30.00 Ry     beta=0.70
     Davidson diagonalization with overlap
     ethr =  7.67E-12,  avg # of iterations =  2.0

     total cpu time spent up to now is       34.5 secs

     total energy              =    -329.49262939 Ry
     Harris-Foulkes estimate   =    -329.49262942 Ry
     estimated scf accuracy    <          8.6E-10 Ry

     iteration # 10     ecut=    30.00 Ry     beta=0.70
     Davidson diagonalization with overlap
     ethr =  1.56E-12,  avg # of iterations =  2.0

     total cpu time spent up to now is       34.7 secs

     End of self-consistent calculation

          k = 0.0000 0.0000 0.0000 ( 22119 PWs)   bands (ev):

    -8.4985  -7.7751  -7.6804  -7.2568  -6.9354  -6.8129  -6.5946  -6.4856
    -6.3399  -6.0588  -5.9631  -5.7652  -5.7247  -5.6878  -5.4296  -5.3726
    -5.3279  -5.2302  -5.2049  -5.1958  -5.1601  -5.1299  -4.9989  -4.9050
    -4.8742  -4.6963  -4.4680  -3.7831  -2.4440  -2.1851  -0.5440  -0.1970
     0.4408   0.8263

     the Fermi energy is    -3.7530 ev

!    total energy              =    -329.49262937 Ry
     Harris-Foulkes estimate   =    -329.49262939 Ry
     estimated scf accuracy    <          6.8E-11 Ry

     The total energy is the sum of the following terms:

     one-electron contribution =    -608.00805207 Ry
     hartree contribution      =     325.43265722 Ry
     xc contribution           =     -51.40410402 Ry
     ewald contribution        =       4.49061664 Ry
     smearing contrib. (-TS)   =      -0.00374714 Ry

     convergence has been achieved in  10 iterations

     Forces acting on atoms (Ry/au):

     atom    1 type  1   force =    -0.00041838    0.00161890    0.00162031
     atom    2 type  1   force =    -0.00313895    0.00000718   -0.00376006
     atom    3 type  1   force =    -0.00161832   -0.00014441    0.00105019
     atom    4 type  1   force =     0.00326248   -0.00026922    0.00102630
     atom    5 type  1   force =     0.00191317   -0.00121245    0.00006327

     Total force =     0.007075     Total SCF correction =     0.000037

     number of scf cycles    =  12
     number of bfgs steps    =  11

     energy   old            =    -329.4925260686 Ry
     energy   new            =    -329.4926293699 Ry

     CASE: energy  _new < energy  _old

     new trust radius        =       0.0227302892 bohr
     new conv_thr            =       0.0000000001 Ry


ATOMIC_POSITIONS (bohr)
Au      -1.570503489   2.229842343  -1.167483505
Au      -0.680378744   3.960868059   3.635917208
Au       3.113512648   1.653190364   0.673108658
Au       3.931123897   3.553540956   5.842462248
Au       7.539815688   1.222246279   3.032280391



     Writing output data file pwscf.save
     Check: negative starting charge=   -0.006394
     NEW-OLD atomic charge density approx. for the potential
     Check: negative starting charge=   -0.006396

     negative rho (up, down):  8.755E-05 0.000E+00

     total cpu time spent up to now is       35.1 secs

     per-process dynamical memory:    50.7 Mb

     Self-consistent Calculation

     iteration #  1     ecut=    30.00 Ry     beta=0.70
     Davidson diagonalization with overlap
     ethr =  1.00E-06,  avg # of iterations =  4.0

     negative rho (up, down):  6.465E-07 0.000E+00

     total cpu time spent up to now is       35.5 secs

     total energy              =    -329.49267332 Ry
     Harris-Foulkes estimate   =    -329.49269664 Ry
     estimated scf accuracy    <       0.00009941 Ry

     iteration #  2     ecut=    30.00 Ry     beta=0.70
     Davidson diagonalization with overlap
     ethr =  1.81E-07,  avg # of iterations =  2.0

     negative rho (up, down):  2.685E-08 0.000E+00

     total cpu time spent up to now is       35.8 secs

     total energy              =    -329.49268758 Ry
     Harris-Foulkes estimate   =    -329.49272800 Ry
     estimated scf accuracy    <       0.00008290 Ry

     iteration #  3     ecut=    30.00 Ry     beta=0.70
     Davidson diagonalization with overlap
     ethr =  1.51E-07,  avg # of iterations =  2.0

     total cpu time spent up to now is       36.1 secs

     total energy              =    -329.49270430 Ry
     Harris-Foulkes estimate   =    -329.49271148 Ry
     estimated scf accuracy    <       0.00001852 Ry

     iteration #  4     ecut=    30.00 Ry     beta=0.70
     Davidson diagonalization with overlap
     ethr =  3.37E-08,  avg # of iterations =  2.0

     total cpu time spent up to now is       36.3 secs

     total energy              =    -329.49270881 Ry
     Harris-Foulkes estimate   =    -329.49271099 Ry
     estimated scf accuracy    <       0.00000734 Ry

     iteration #  5     ecut=    30.00 Ry     beta=0.70
     Davidson diagonalization with overlap
     ethr =  1.33E-08,  avg # of iterations =  2.0

     total cpu time spent up to now is       36.6 secs

     total energy              =    -329.49271004 Ry
     Harris-Foulkes estimate   =    -329.49271009 Ry
     estimated scf accuracy    <       0.00000033 Ry

     iteration #  6     ecut=    30.00 Ry     beta=0.70
[...]



     Writing output data file pwscf.save
     Check: negative starting charge=   -0.006393
     NEW-OLD atomic charge density approx. for the potential
     Check: negative starting charge=   -0.006389

     negative rho (up, down):  3.494E-06 0.000E+00

     total cpu time spent up to now is       87.6 secs

     per-process dynamical memory:    50.7 Mb

     Self-consistent Calculation

     iteration #  1     ecut=    30.00 Ry     beta=0.70
     Davidson diagonalization with overlap
     ethr =  1.00E-06,  avg # of iterations =  3.0

     Threshold (ethr) on eigenvalues was too large:
     Diagonalizing with lowered threshold

     Davidson diagonalization with overlap
     ethr =  2.51E-08,  avg # of iterations =  2.0

     total cpu time spent up to now is       88.2 secs

     total energy              =    -329.49331840 Ry
     Harris-Foulkes estimate   =    -329.49332259 Ry
     estimated scf accuracy    <       0.00001498 Ry

     iteration #  2     ecut=    30.00 Ry     beta=0.70
     Davidson diagonalization with overlap
     ethr =  2.72E-08,  avg # of iterations =  2.0

     total cpu time spent up to now is       88.5 secs

     total energy              =    -329.49332070 Ry
     Harris-Foulkes estimate   =    -329.49332749 Ry
     estimated scf accuracy    <       0.00001585 Ry

     iteration #  3     ecut=    30.00 Ry     beta=0.70
     Davidson diagonalization with overlap
     ethr =  2.72E-08,  avg # of iterations =  2.0

     total cpu time spent up to now is       88.7 secs

     total energy              =    -329.49332418 Ry
     Harris-Foulkes estimate   =    -329.49332493 Ry
     estimated scf accuracy    <       0.00000269 Ry

     iteration #  4     ecut=    30.00 Ry     beta=0.70
     Davidson diagonalization with overlap
     ethr =  4.89E-09,  avg # of iterations =  2.0

     total cpu time spent up to now is       89.0 secs

     total energy              =    -329.49332492 Ry
     Harris-Foulkes estimate   =    -329.49332525 Ry
     estimated scf accuracy    <       0.00000131 Ry

     iteration #  5     ecut=    30.00 Ry     beta=0.70
     Davidson diagonalization with overlap
     ethr =  2.38E-09,  avg # of iterations =  2.0

     total cpu time spent up to now is       89.2 secs

     total energy              =    -329.49332514 Ry
     Harris-Foulkes estimate   =    -329.49332515 Ry
     estimated scf accuracy    <       0.00000004 Ry

     iteration #  6     ecut=    30.00 Ry     beta=0.70
     Davidson diagonalization with overlap
     ethr =  7.49E-11,  avg # of iterations =  3.0

     total cpu time spent up to now is       89.5 secs

     total energy              =    -329.49332518 Ry
     Harris-Foulkes estimate   =    -329.49332516 Ry
     estimated scf accuracy    <          6.8E-09 Ry

     iteration #  7     ecut=    30.00 Ry     beta=0.70
     Davidson diagonalization with overlap
     ethr =  1.23E-11,  avg # of iterations =  3.0

     total cpu time spent up to now is       89.8 secs

     total energy              =    -329.49332521 Ry
     Harris-Foulkes estimate   =    -329.49332518 Ry
     estimated scf accuracy    <          2.9E-09 Ry

     iteration #  8     ecut=    30.00 Ry     beta=0.70
     Davidson diagonalization with overlap
     ethr =  5.28E-12,  avg # of iterations =  2.0

     total cpu time spent up to now is       90.0 secs

     total energy              =    -329.49332526 Ry
     Harris-Foulkes estimate   =    -329.49332521 Ry
     estimated scf accuracy    <          3.5E-10 Ry

     iteration #  9     ecut=    30.00 Ry     beta=0.70
     Davidson diagonalization with overlap
     ethr =  6.34E-13,  avg # of iterations =  2.0

     total cpu time spent up to now is       90.3 secs

     End of self-consistent calculation

          k = 0.0000 0.0000 0.0000 ( 22119 PWs)   bands (ev):

    -8.5120  -7.7788  -7.6547  -7.2280  -6.8451  -6.8163  -6.6056  -6.4783
    -6.3052  -6.0803  -5.9445  -5.7703  -5.7279  -5.6841  -5.4600  -5.3535
    -5.3124  -5.2495  -5.2033  -5.1762  -5.1692  -5.1205  -4.9999  -4.9266
    -4.8310  -4.7371  -4.4803  -3.7744  -2.4405  -2.2039  -0.5355  -0.1760
     0.4729   0.8056

     the Fermi energy is    -3.7411 ev

!    total energy              =    -329.49332527 Ry
     Harris-Foulkes estimate   =    -329.49332526 Ry
     estimated scf accuracy    <          5.4E-11 Ry

     The total energy is the sum of the following terms:

     one-electron contribution =    -606.90868917 Ry
     hartree contribution      =     324.88893008 Ry
     xc contribution           =     -51.39881006 Ry
     ewald contribution        =       3.92977002 Ry
     smearing contrib. (-TS)   =      -0.00452615 Ry

     convergence has been achieved in   9 iterations

     Forces acting on atoms (Ry/au):

     atom    1 type  1   force =    -0.00105064    0.00011713   -0.00116383
     atom    2 type  1   force =     0.00104793    0.00058915   -0.00053128
     atom    3 type  1   force =     0.00138854   -0.00066583    0.00173890
     atom    4 type  1   force =     0.00022291   -0.00059433   -0.00015936
     atom    5 type  1   force =    -0.00160874    0.00055388    0.00011557

     Total force =     0.003596     Total SCF correction =     0.000031

     number of scf cycles    =  31
     number of bfgs steps    =  30

     energy   old            =    -329.4933009993 Ry
     energy   new            =    -329.4933252732 Ry

     CASE: energy  _new < energy  _old

     new trust radius        =       0.0138193537 bohr
     new conv_thr            =            1.0E-10 Ry


ATOMIC_POSITIONS (bohr)
Au      -1.541512042   2.227591076  -1.127923946
Au      -0.738271012   4.169470557   3.595314074
Au       3.100129030   1.591654475   0.756226980
Au       3.941053063   3.578822267   5.734904467
Au       7.572170960   1.052149625   3.057763425



     Writing output data file pwscf.save
     Check: negative starting charge=   -0.006389
     NEW-OLD atomic charge density approx. for the potential
     Check: negative starting charge=   -0.006382

     negative rho (up, down):  1.435E-05 0.000E+00

     total cpu time spent up to now is       90.6 secs

     per-process dynamical memory:    50.7 Mb

     Self-consistent Calculation

     iteration #  1     ecut=    30.00 Ry     beta=0.70
     Davidson diagonalization with overlap
     ethr =  1.00E-06,  avg # of iterations =  4.0

     Threshold (ethr) on eigenvalues was too large:
     Diagonalizing with lowered threshold

     Davidson diagonalization with overlap
     ethr =  5.67E-08,  avg # of iterations =  1.0

     negative rho (up, down):  1.344E-08 0.000E+00

     total cpu time spent up to now is       91.2 secs

     total energy              =    -329.49333618 Ry
     Harris-Foulkes estimate   =    -329.49334779 Ry
     estimated scf accuracy    <       0.00003186 Ry

     iteration #  2     ecut=    30.00 Ry     beta=0.70
     Davidson diagonalization with overlap
     ethr =  5.79E-08,  avg # of iterations =  2.0

     total cpu time spent up to now is       91.5 secs

     total energy              =    -329.49333996 Ry
     Harris-Foulkes estimate   =    -329.49335633 Ry
     estimated scf accuracy    <       0.00003638 Ry

     iteration #  3     ecut=    30.00 Ry     beta=0.70
     Davidson diagonalization with overlap
     ethr =  5.79E-08,  avg # of iterations =  2.0

     total cpu time spent up to now is       91.8 secs

     total energy              =    -329.49334725 Ry
     Harris-Foulkes estimate   =    -329.49334956 Ry
     estimated scf accuracy    <       0.00000620 Ry

     iteration #  4     ecut=    30.00 Ry     beta=0.70
     Davidson diagonalization with overlap
     ethr =  1.13E-08,  avg # of iterations =  2.0

     total cpu time spent up to now is       92.0 secs

     total energy              =    -329.49334881 Ry
     Harris-Foulkes estimate   =    -329.49334952 Ry
     estimated scf accuracy    <       0.00000244 Ry

     iteration #  5     ecut=    30.00 Ry     beta=0.70
     Davidson diagonalization with overlap
     ethr =  4.44E-09,  avg # of iterations =  1.0

     total cpu time spent up to now is       92.2 secs

     total energy              =    -329.49334916 Ry
     Harris-Foulkes estimate   =    -329.49334922 Ry
     estimated scf accuracy    <       0.00000007 Ry

     iteration #  6     ecut=    30.00 Ry     beta=0.70
     Davidson diagonalization with overlap
     ethr =  1.36E-10,  avg # of iterations =  3.0

     total cpu time spent up to now is       92.5 secs

     total energy              =    -329.49334927 Ry
     Harris-Foulkes estimate   =    -329.49334919 Ry
     estimated scf accuracy    <       0.00000001 Ry

     iteration #  7     ecut=    30.00 Ry     beta=0.70
     Davidson diagonalization with overlap
     ethr =  2.03E-11,  avg # of iterations =  3.0

     total cpu time spent up to now is       92.8 secs

     total energy              =    -329.49334933 Ry
     Harris-Foulkes estimate   =    -329.49334928 Ry
     estimated scf accuracy    <          5.8E-09 Ry

     iteration #  8     ecut=    30.00 Ry     beta=0.70
     Davidson diagonalization with overlap
     ethr =  1.05E-11,  avg # of iterations =  2.0

     total cpu time spent up to now is       93.1 secs

     total energy              =    -329.49334931 Ry
     Harris-Foulkes estimate   =    -329.49334933 Ry
     estimated scf accuracy    <          6.2E-10 Ry

     iteration #  9     ecut=    30.00 Ry     beta=0.70
     Davidson diagonalization with overlap
     ethr =  1.13E-12,  avg # of iterations =  3.0

     total cpu time spent up to now is       93.4 secs

     total energy              =    -329.49334929 Ry
     Harris-Foulkes estimate   =    -329.49334931 Ry
     estimated scf accuracy    <          1.1E-10 Ry

     iteration # 10     ecut=    30.00 Ry     beta=0.70
     Davidson diagonalization with overlap
     ethr =  1.96E-13,  avg # of iterations =  2.0

     total cpu time spent up to now is       93.6 secs

     End of self-consistent calculation

          k = 0.0000 0.0000 0.0000 ( 22119 PWs)   bands (ev):

    -8.5047  -7.7749  -7.6534  -7.2290  -6.8444  -6.8110  -6.6060  -6.4771
    -6.3065  -6.0767  -5.9443  -5.7684  -5.7258  -5.6831  -5.4609  -5.3541
    -5.3127  -5.2491  -5.2032  -5.1757  -5.1703  -5.1208  -5.0028  -4.9260
    -4.8310  -4.7389  -4.4804  -3.7743  -2.4442  -2.2032  -0.5348  -0.1753
     0.4702   0.8049

     the Fermi energy is    -3.7409 ev

!    total energy              =    -329.49334931 Ry
     Harris-Foulkes estimate   =    -329.49334929 Ry
     estimated scf accuracy    <          1.7E-11 Ry

     The total energy is the sum of the following terms:

     one-electron contribution =    -606.68730496 Ry
     hartree contribution      =     324.77903972 Ry
     xc contribution           =     -51.39792080 Ry
     ewald contribution        =       3.81737408 Ry
     smearing contrib. (-TS)   =      -0.00453735 Ry

     convergence has been achieved in  10 iterations

     Forces acting on atoms (Ry/au):

     atom    1 type  1   force =    -0.00004418    0.00015602   -0.00034138
     atom    2 type  1   force =     0.00092759    0.00010103   -0.00090973
     atom    3 type  1   force =     0.00050650   -0.00036468    0.00151387
     atom    4 type  1   force =     0.00007332   -0.00026718    0.00006405
     atom    5 type  1   force =    -0.00146323    0.00037481   -0.00032680

     Total force =     0.002644     Total SCF correction =     0.000016

     number of scf cycles    =  32
     number of bfgs steps    =  31

     energy   old            =    -329.4933252732 Ry
     energy   new            =    -329.4933493064 Ry

     CASE: energy  _new < energy  _old

     new trust radius        =       0.0096947747 bohr
     new conv_thr            =            1.0E-10 Ry


ATOMIC_POSITIONS (bohr)
Au      -1.544781588   2.228724336  -1.129438240
Au      -0.734669844   4.177157925   3.590631701
Au       3.101287404   1.585118312   0.759402083
Au       3.940563589   3.576885507   5.733605904
Au       7.571170440   1.051801921   3.062083552



     Writing output data file pwscf.save
     Check: negative starting charge=   -0.006382
     NEW-OLD atomic charge density approx. for the potential
     Check: negative starting charge=   -0.006378

     negative rho (up, down):  3.262E-06 0.000E+00

     total cpu time spent up to now is       94.0 secs

     per-process dynamical memory:    50.7 Mb

     Self-consistent Calculation

     iteration #  1     ecut=    30.00 Ry     beta=0.70
     Davidson diagonalization with overlap
     ethr =  1.00E-06,  avg # of iterations =  3.0

     Threshold (ethr) on eigenvalues was too large:
     Diagonalizing with lowered threshold

     Davidson diagonalization with overlap
     ethr =  2.92E-08,  avg # of iterations =  1.0

     total cpu time spent up to now is       94.6 secs

     total energy              =    -329.49335350 Ry
     Harris-Foulkes estimate   =    -329.49335936 Ry
     estimated scf accuracy    <       0.00001717 Ry

     iteration #  2     ecut=    30.00 Ry     beta=0.70
     Davidson diagonalization with overlap
     ethr =  3.12E-08,  avg # of iterations =  2.0

     total cpu time spent up to now is       94.8 secs

     total energy              =    -329.49335527 Ry
     Harris-Foulkes estimate   =    -329.49336482 Ry
     estimated scf accuracy    <       0.00002113 Ry

     iteration #  3     ecut=    30.00 Ry     beta=0.70
     Davidson diagonalization with overlap
     ethr =  3.12E-08,  avg # of iterations =  2.0

     total cpu time spent up to now is       95.1 secs

     total energy              =    -329.49335967 Ry
     Harris-Foulkes estimate   =    -329.49336090 Ry
     estimated scf accuracy    <       0.00000391 Ry

     iteration #  4     ecut=    30.00 Ry     beta=0.70
     Davidson diagonalization with overlap
     ethr =  7.10E-09,  avg # of iterations =  2.0

     total cpu time spent up to now is       95.3 secs

     total energy              =    -329.49336059 Ry
     Harris-Foulkes estimate   =    -329.49336092 Ry
     estimated scf accuracy    <       0.00000105 Ry

     iteration #  5     ecut=    30.00 Ry     beta=0.70
     Davidson diagonalization with overlap
     ethr =  1.91E-09,  avg # of iterations =  2.0

     total cpu time spent up to now is       95.6 secs

     total energy              =    -329.49336078 Ry
     Harris-Foulkes estimate   =    -329.49336077 Ry
     estimated scf accuracy    <       0.00000004 Ry

     iteration #  6     ecut=    30.00 Ry     beta=0.70
     Davidson diagonalization with overlap
     ethr =  7.59E-11,  avg # of iterations =  3.0

     total cpu time spent up to now is       95.9 secs

     total energy              =    -329.49336081 Ry
     Harris-Foulkes estimate   =    -329.49336079 Ry
     estimated scf accuracy    <          3.9E-09 Ry

     iteration #  7     ecut=    30.00 Ry     beta=0.70
     Davidson diagonalization with overlap
     ethr =  7.15E-12,  avg # of iterations =  3.0

     total cpu time spent up to now is       96.2 secs

     total energy              =    -329.49336084 Ry
     Harris-Foulkes estimate   =    -329.49336081 Ry
     estimated scf accuracy    <          3.1E-09 Ry

     iteration #  8     ecut=    30.00 Ry     beta=0.70
     Davidson diagonalization with overlap
     ethr =  5.67E-12,  avg # of iterations =  2.0

     total cpu time spent up to now is       96.4 secs

     total energy              =    -329.49336085 Ry
     Harris-Foulkes estimate   =    -329.49336084 Ry
     estimated scf accuracy    <          2.4E-10 Ry

     iteration #  9     ecut=    30.00 Ry     beta=0.70
     Davidson diagonalization with overlap
     ethr =  4.40E-13,  avg # of iterations =  3.0

     total cpu time spent up to now is       96.7 secs

     End of self-consistent calculation

          k = 0.0000 0.0000 0.0000 ( 22119 PWs)   bands (ev):

    -8.5026  -7.7752  -7.6545  -7.2318  -6.8448  -6.8092  -6.6077  -6.4778
    -6.3083  -6.0752  -5.9450  -5.7677  -5.7250  -5.6832  -5.4622  -5.3543
    -5.3127  -5.2490  -5.2028  -5.1756  -5.1709  -5.1207  -5.0045  -4.9254
    -4.8304  -4.7396  -4.4801  -3.7736  -2.4459  -2.2018  -0.5347  -0.1746
     0.4689   0.8044

     the Fermi energy is    -3.7401 ev

!    total energy              =    -329.49336087 Ry
     Harris-Foulkes estimate   =    -329.49336085 Ry
     estimated scf accuracy    <          5.7E-11 Ry

     The total energy is the sum of the following terms:

     one-electron contribution =    -606.68068352 Ry
     hartree contribution      =     324.77536111 Ry
     xc contribution           =     -51.39786203 Ry
     ewald contribution        =       3.81437883 Ry
     smearing contrib. (-TS)   =      -0.00455527 Ry

     convergence has been achieved in   9 iterations

     Forces acting on atoms (Ry/au):

     atom    1 type  1   force =     0.00073226    0.00008373    0.00009331
     atom    2 type  1   force =     0.00072599   -0.00012055   -0.00094610
     atom    3 type  1   force =    -0.00051094   -0.00016854    0.00096941
     atom    4 type  1   force =    -0.00003405    0.00006274    0.00036769
     atom    5 type  1   force =    -0.00091325    0.00014262   -0.00048430

     Total force =     0.002109     Total SCF correction =     0.000033

     bfgs converged in  33 scf cycles and  32 bfgs steps
     (criteria: energy <  1.0E-04, force <  1.0E-03)

     End of BFGS Geometry Optimization

     Final energy   =    -329.4933608668 Ry
Begin final coordinates

ATOMIC_POSITIONS (bohr)
Au      -1.544781588   2.228724336  -1.129438240
Au      -0.734669844   4.177157925   3.590631701
Au       3.101287404   1.585118312   0.759402083
Au       3.940563589   3.576885507   5.733605904
Au       7.571170440   1.051801921   3.062083552
End final coordinates



     Writing output data file pwscf.save
 
     init_run     :      0.17s CPU      0.20s WALL (       1 calls)
     electrons    :     79.96s CPU     88.05s WALL (      33 calls)
     update_pot   :      2.39s CPU      3.29s WALL (      32 calls)
     forces       :      1.47s CPU      1.53s WALL (      33 calls)

     Called by init_run:
     wfcinit      :      0.07s CPU      0.09s WALL (       1 calls)
     potinit      :      0.03s CPU      0.04s WALL (       1 calls)

     Called by electrons:
     c_bands      :     60.77s CPU     62.81s WALL (     344 calls)
     sum_band     :      8.85s CPU      9.24s WALL (     344 calls)
     v_of_rho     :      6.92s CPU      7.15s WALL (     358 calls)
     mix_rho      :      2.95s CPU      5.95s WALL (     344 calls)

     Called by c_bands:
     init_us_2    :      1.16s CPU      1.22s WALL (     689 calls)
     cegterg      :     53.96s CPU     55.57s WALL (     344 calls)

     Called by sum_band:

     Called by *egterg:
     h_psi        :     42.49s CPU     43.68s WALL (    1171 calls)
     g_psi        :      0.43s CPU      0.43s WALL (     826 calls)
     cdiaghg      :      2.80s CPU      2.86s WALL (    1119 calls)

     Called by h_psi:
     h_psi:pot    :     41.89s CPU     43.06s WALL (    1171 calls)
     h_psi:calbec :      2.30s CPU      2.34s WALL (    1171 calls)
     vloc_psi     :     36.98s CPU     38.04s WALL (    1171 calls)
     add_vuspsi   :      2.61s CPU      2.67s WALL (    1171 calls)

     General routines
     calbec       :      2.70s CPU      2.77s WALL (    1303 calls)
     fft          :      4.11s CPU      4.27s WALL (    4041 calls)
     fftw         :     39.36s CPU     40.43s WALL (   75726 calls)
     davcio       :      0.41s CPU      2.81s WALL (    3434 calls)
 
     Parallel routines
     fft_scatter  :     10.16s CPU     10.11s WALL (   79767 calls)
 
     PWSCF        :  1m25.04s CPU     1m37.00s WALL

 
   This run was terminated on:  10:48:58   3Aug2017            

=------------------------------------------------------------------------------=
   JOB DONE.
=------------------------------------------------------------------------------=
