
     Program PWSCF v.6.0 (svn rev. 13079) starts on  3Aug2017 at 20: 0:26 

     This program is part of the open-source Quantum ESPRESSO suite
     for quantum simulation of materials; please cite
         "P. Giannozzi et al., J. Phys.:Condens. Matter 21 395502 (2009);
          URL http://www.quantum-espresso.org", 
     in publications or presentations arising from this work. More details at
     http://www.quantum-espresso.org/quote

     Parallel version (MPI), running on    10 processors
     R & G space division:  proc/nbgrp/npool/nimage =      10
     Reading input from input/multi/minchecks-Gold5-419.in

     Current dimensions of program PWSCF are:
     Max number of different atomic species (ntypx) = 10
     Max number of k-points (npk) =  40000
     Max angular momentum in pseudopotentials (lmaxx) =  3
     Message from routine iosys:
     pot_extrapolation='second-order' not available, using 'atomic'
     Message from routine iosys:
     wfc_extrapolation='second-order' not available, using 'atomic'

     Subspace diagonalization in iterative solution of the eigenvalue problem:
     a serial algorithm will be used

 
     Parallelization info
     --------------------
     sticks:   dense  smooth     PW     G-vecs:    dense   smooth      PW
     Min         380     380     94                17748    17748    2208
     Max         381     381     95                17753    17753    2213
     Sum        3809    3809    949               177509   177509   22119
 


     bravais-lattice index     =            1
     lattice parameter (alat)  =      20.0000  a.u.
     unit-cell volume          =    8000.0000 (a.u.)^3
     number of atoms/cell      =            5
     number of atomic types    =            1
     number of electrons       =        55.00
     number of Kohn-Sham states=           34
     kinetic-energy cutoff     =      30.0000  Ry
     charge density cutoff     =     120.0000  Ry
     convergence threshold     =      1.0E-08
     mixing beta               =       0.7000
     number of iterations used =            8  plain     mixing
     Exchange-correlation      = BLYP ( 1  3  1  3 0 0)
     nstep                     =           50


     celldm(1)=  20.000000  celldm(2)=   0.000000  celldm(3)=   0.000000
     celldm(4)=   0.000000  celldm(5)=   0.000000  celldm(6)=   0.000000

     crystal axes: (cart. coord. in units of alat)
               a(1) = (   1.000000   0.000000   0.000000 )  
               a(2) = (   0.000000   1.000000   0.000000 )  
               a(3) = (   0.000000   0.000000   1.000000 )  

     reciprocal axes: (cart. coord. in units 2 pi/alat)
               b(1) = (  1.000000  0.000000  0.000000 )  
               b(2) = (  0.000000  1.000000  0.000000 )  
               b(3) = (  0.000000  0.000000  1.000000 )  


     PseudoPot. # 1 for Au read from file:
     ./Au.blyp-d-hgh.UPF
     MD5 check sum: c10d8bae01f806c36a1643a1c69a8479
     Pseudo is Norm-conserving, Zval = 11.0
     Generated in analytical, separable form
     Using radial grid of 1279 points,  6 beta functions with: 
                l(1) =   0
                l(2) =   0
                l(3) =   1
                l(4) =   1
                l(5) =   2
                l(6) =   2

     atomic species   valence    mass     pseudopotential
        Au            11.00    28.08600     Au( 1.00)

     No symmetry found



   Cartesian axes

     site n.     atom                  positions (alat units)
         1           Au  tau(   1) = (  -0.0929611   0.0803046  -0.0288380  )
         2           Au  tau(   2) = (  -0.0515418   0.1155583   0.2120317  )
         3           Au  tau(   3) = (   0.1515313   0.0984749   0.0214602  )
         4           Au  tau(   4) = (   0.2010664   0.1470569   0.2934045  )
         5           Au  tau(   5) = (   0.3790116   0.1279892   0.1232271  )

     number of k points=     1  Marzari-Vanderbilt smearing, width (Ry)=  0.0250
                       cart. coord. in units 2pi/alat
        k(    1) = (   0.0000000   0.0000000   0.0000000), wk =   2.0000000

     Dense  grid:   177509 G-vectors     FFT dimensions: (  72,  72,  72)

     Estimated max dynamical RAM per process >      15.04Mb

     Estimated total allocated dynamical RAM >     150.39Mb

     Initial potential from superposition of free atoms
     Check: negative starting charge=   -0.006566

     starting charge   54.99940, renormalised to   55.00000

     negative rho (up, down):  6.567E-03 0.000E+00
     Starting wfc are   45 randomized atomic wfcs

     total cpu time spent up to now is        0.4 secs

     per-process dynamical memory:    41.0 Mb

     Self-consistent Calculation

     iteration #  1     ecut=    30.00 Ry     beta=0.70
     Davidson diagonalization with overlap
     ethr =  1.00E-02,  avg # of iterations =  3.0

     Threshold (ethr) on eigenvalues was too large:
     Diagonalizing with lowered threshold

     Davidson diagonalization with overlap
     ethr =  4.26E-04,  avg # of iterations =  3.0

     negative rho (up, down):  9.226E-04 0.000E+00

     total cpu time spent up to now is        0.8 secs

     total energy              =    -329.36654409 Ry
     Harris-Foulkes estimate   =    -329.54421054 Ry
     estimated scf accuracy    <       0.29221870 Ry

     iteration #  2     ecut=    30.00 Ry     beta=0.70
     Davidson diagonalization with overlap
     ethr =  5.31E-04,  avg # of iterations =  3.0

     negative rho (up, down):  4.333E-04 0.000E+00

     total cpu time spent up to now is        1.0 secs

     total energy              =    -329.39079877 Ry
     Harris-Foulkes estimate   =    -329.56912775 Ry
     estimated scf accuracy    <       0.37754524 Ry

     iteration #  3     ecut=    30.00 Ry     beta=0.70
     Davidson diagonalization with overlap
     ethr =  5.31E-04,  avg # of iterations =  2.0

     negative rho (up, down):  1.554E-04 0.000E+00

     total cpu time spent up to now is        1.2 secs

     total energy              =    -329.46948810 Ry
     Harris-Foulkes estimate   =    -329.49898257 Ry
     estimated scf accuracy    <       0.07698383 Ry

     iteration #  4     ecut=    30.00 Ry     beta=0.70
     Davidson diagonalization with overlap
     ethr =  1.40E-04,  avg # of iterations =  2.0

     negative rho (up, down):  1.164E-06 0.000E+00

     total cpu time spent up to now is        1.4 secs

     total energy              =    -329.48293642 Ry
     Harris-Foulkes estimate   =    -329.48337422 Ry
     estimated scf accuracy    <       0.00140233 Ry

     iteration #  5     ecut=    30.00 Ry     beta=0.70
     Davidson diagonalization with overlap
     ethr =  2.55E-06,  avg # of iterations =  5.0

     total cpu time spent up to now is        1.7 secs

     total energy              =    -329.48338039 Ry
     Harris-Foulkes estimate   =    -329.48400822 Ry
     estimated scf accuracy    <       0.00154801 Ry

     iteration #  6     ecut=    30.00 Ry     beta=0.70
     Davidson diagonalization with overlap
     ethr =  2.55E-06,  avg # of iterations =  2.0

     total cpu time spent up to now is        2.0 secs

     total energy              =    -329.48363685 Ry
     Harris-Foulkes estimate   =    -329.48368059 Ry
     estimated scf accuracy    <       0.00010223 Ry

     iteration #  7     ecut=    30.00 Ry     beta=0.70
     Davidson diagonalization with overlap
     ethr =  1.86E-07,  avg # of iterations =  2.0

     total cpu time spent up to now is        2.2 secs

     total energy              =    -329.48365821 Ry
     Harris-Foulkes estimate   =    -329.48366497 Ry
     estimated scf accuracy    <       0.00001715 Ry

     iteration #  8     ecut=    30.00 Ry     beta=0.70
     Davidson diagonalization with overlap
     ethr =  3.12E-08,  avg # of iterations =  3.0

     total cpu time spent up to now is        2.4 secs

     total energy              =    -329.48366102 Ry
     Harris-Foulkes estimate   =    -329.48366465 Ry
     estimated scf accuracy    <       0.00000957 Ry

     iteration #  9     ecut=    30.00 Ry     beta=0.70
     Davidson diagonalization with overlap
     ethr =  1.74E-08,  avg # of iterations =  2.0

     total cpu time spent up to now is        2.6 secs

     total energy              =    -329.48366272 Ry
     Harris-Foulkes estimate   =    -329.48366340 Ry
     estimated scf accuracy    <       0.00000136 Ry

     iteration # 10     ecut=    30.00 Ry     beta=0.70
     Davidson diagonalization with overlap
     ethr =  2.48E-09,  avg # of iterations =  2.0

     total cpu time spent up to now is        2.9 secs

     total energy              =    -329.48366287 Ry
     Harris-Foulkes estimate   =    -329.48366311 Ry
     estimated scf accuracy    <       0.00000023 Ry

     iteration # 11     ecut=    30.00 Ry     beta=0.70
     Davidson diagonalization with overlap
     ethr =  4.16E-10,  avg # of iterations =  2.0

     total cpu time spent up to now is        3.0 secs

     End of self-consistent calculation

          k = 0.0000 0.0000 0.0000 ( 22119 PWs)   bands (ev):

    -8.5221  -7.9015  -7.6702  -7.1469  -6.9546  -6.9244  -6.8456  -6.5662
    -6.2050  -6.1914  -6.0667  -5.7709  -5.7523  -5.6728  -5.4157  -5.3459
    -5.3001  -5.2757  -5.2141  -5.1612  -5.1536  -5.1416  -5.0009  -4.9151
    -4.8970  -4.6694  -4.4434  -3.7086  -2.5286  -2.1766  -0.5813  -0.2250
     0.5042   0.8806

     the Fermi energy is    -3.6720 ev

!    total energy              =    -329.48366286 Ry
     Harris-Foulkes estimate   =    -329.48366292 Ry
     estimated scf accuracy    <          8.3E-09 Ry

     The total energy is the sum of the following terms:

     one-electron contribution =    -612.82151981 Ry
     hartree contribution      =     327.81621239 Ry
     xc contribution           =     -51.42422431 Ry
     ewald contribution        =       6.95115169 Ry
     smearing contrib. (-TS)   =      -0.00528282 Ry

     convergence has been achieved in  11 iterations

     Forces acting on atoms (Ry/au):

     atom    1 type  1   force =    -0.01131849   -0.00359112   -0.02760771
     atom    2 type  1   force =     0.01683126    0.00366176    0.02465158
     atom    3 type  1   force =     0.00065252    0.00084086    0.00870471
     atom    4 type  1   force =    -0.02765545    0.00137251    0.00970511
     atom    5 type  1   force =     0.02149016   -0.00228401   -0.01545369

     Total force =     0.058747     Total SCF correction =     0.000388

     BFGS Geometry Optimization

     number of scf cycles    =   1
     number of bfgs steps    =   0

     energy   new            =    -329.4836628642 Ry

     new trust radius        =       0.0300732484 bohr
     new conv_thr            =       0.0000000100 Ry


ATOMIC_POSITIONS (bohr)
Au      -1.870539491   1.602499878  -0.604366707
Au      -1.014004741   2.314827759   4.265285582
Au       3.031278519   1.970337860   0.437907712
Au       3.993672550   2.942510515   5.877794107
Au       7.601723163   2.557500989   2.449087306



     Writing output data file pwscf.save
     Check: negative starting charge=   -0.006566
     NEW-OLD atomic charge density approx. for the potential
     Check: negative starting charge=   -0.006540

     negative rho (up, down):  2.918E-04 0.000E+00

     total cpu time spent up to now is        3.3 secs

     per-process dynamical memory:    42.9 Mb

     Self-consistent Calculation

     iteration #  1     ecut=    30.00 Ry     beta=0.70
     Davidson diagonalization with overlap
     ethr =  1.00E-06,  avg # of iterations =  4.0

     negative rho (up, down):  7.651E-06 0.000E+00

     total cpu time spent up to now is        3.7 secs

     total energy              =    -329.48643417 Ry
     Harris-Foulkes estimate   =    -329.48640952 Ry
     estimated scf accuracy    <       0.00025667 Ry

     iteration #  2     ecut=    30.00 Ry     beta=0.70
     Davidson diagonalization with overlap
     ethr =  4.67E-07,  avg # of iterations =  3.0

     negative rho (up, down):  2.086E-06 0.000E+00

     total cpu time spent up to now is        3.9 secs

     total energy              =    -329.48639799 Ry
     Harris-Foulkes estimate   =    -329.48666908 Ry
     estimated scf accuracy    <       0.00069104 Ry

     iteration #  3     ecut=    30.00 Ry     beta=0.70
     Davidson diagonalization with overlap
     ethr =  4.67E-07,  avg # of iterations =  2.0

     total cpu time spent up to now is        4.1 secs

     total energy              =    -329.48654191 Ry
     Harris-Foulkes estimate   =    -329.48655123 Ry
     estimated scf accuracy    <       0.00004670 Ry

     iteration #  4     ecut=    30.00 Ry     beta=0.70
     Davidson diagonalization with overlap
     ethr =  8.49E-08,  avg # of iterations =  2.0

     total cpu time spent up to now is        4.4 secs

     total energy              =    -329.48655036 Ry
     Harris-Foulkes estimate   =    -329.48655341 Ry
     estimated scf accuracy    <       0.00000782 Ry

     iteration #  5     ecut=    30.00 Ry     beta=0.70
     Davidson diagonalization with overlap
     ethr =  1.42E-08,  avg # of iterations =  2.0

     total cpu time spent up to now is        4.6 secs

     total energy              =    -329.48655210 Ry
     Harris-Foulkes estimate   =    -329.48655252 Ry
     estimated scf accuracy    <       0.00000131 Ry

     iteration #  6     ecut=    30.00 Ry     beta=0.70
     Davidson diagonalization with overlap
     ethr =  2.38E-09,  avg # of iterations =  2.0

     total cpu time spent up to now is        4.8 secs

     total energy              =    -329.48655232 Ry
     Harris-Foulkes estimate   =    -329.48655249 Ry
     estimated scf accuracy    <       0.00000023 Ry

     iteration #  7     ecut=    30.00 Ry     beta=0.70
     Davidson diagonalization with overlap
     ethr =  4.26E-10,  avg # of iterations =  2.0

     total cpu time spent up to now is        5.0 secs

     total energy              =    -329.48655227 Ry
     Harris-Foulkes estimate   =    -329.48655240 Ry
     estimated scf accuracy    <       0.00000006 Ry

     iteration #  8     ecut=    30.00 Ry     beta=0.70
     Davidson diagonalization with overlap
     ethr =  1.13E-10,  avg # of iterations =  2.0

     total cpu time spent up to now is        5.1 secs

     End of self-consistent calculation

          k = 0.0000 0.0000 0.0000 ( 22119 PWs)   bands (ev):

    -8.4868  -7.8413  -7.6270  -7.1585  -6.9099  -6.8681  -6.8182  -6.5212
    -6.2175  -6.1356  -6.0501  -5.7592  -5.7577  -5.6693  -5.4103  -5.3578
    -5.3076  -5.2532  -5.2124  -5.1660  -5.1599  -5.1502  -5.0027  -4.9056
    -4.9009  -4.6925  -4.4452  -3.7357  -2.5324  -2.1837  -0.5777  -0.2329
     0.4990   0.8930

     the Fermi energy is    -3.7018 ev

!    total energy              =    -329.48655226 Ry
     Harris-Foulkes estimate   =    -329.48655228 Ry
     estimated scf accuracy    <          4.4E-09 Ry

     The total energy is the sum of the following terms:

     one-electron contribution =    -610.98228634 Ry
     hartree contribution      =     326.91323012 Ry
     xc contribution           =     -51.41423213 Ry
     ewald contribution        =       6.00141754 Ry
     smearing contrib. (-TS)   =      -0.00468144 Ry

     convergence has been achieved in   8 iterations

     Forces acting on atoms (Ry/au):

     atom    1 type  1   force =    -0.00705372   -0.00208250   -0.01789531
     atom    2 type  1   force =     0.01415411    0.00220831    0.01487004
     atom    3 type  1   force =    -0.00108625    0.00089157    0.00940334
     atom    4 type  1   force =    -0.02041232    0.00096093    0.00378328
     atom    5 type  1   force =     0.01439817   -0.00197832   -0.01016135

     Total force =     0.040465     Total SCF correction =     0.000240

     number of scf cycles    =   2
     number of bfgs steps    =   1

     energy   old            =    -329.4836628642 Ry
     energy   new            =    -329.4865522563 Ry

     CASE: energy  _new < energy  _old

     new trust radius        =       0.0330805732 bohr
     new conv_thr            =       0.0000000020 Ry


ATOMIC_POSITIONS (bohr)
Au      -1.881844084   1.599149388  -0.632988846
Au      -0.991626923   2.318373054   4.289158117
Au       3.029662375   1.971736027   0.452645535
Au       3.961224340   2.944041720   5.884046578
Au       7.624714293   2.554376811   2.432846615



     Writing output data file pwscf.save
     Check: negative starting charge=   -0.006540
     NEW-OLD atomic charge density approx. for the potential
     Check: negative starting charge=   -0.006514

     negative rho (up, down):  3.580E-04 0.000E+00

     total cpu time spent up to now is        5.4 secs

     per-process dynamical memory:    50.7 Mb

     Self-consistent Calculation

     iteration #  1     ecut=    30.00 Ry     beta=0.70
     Davidson diagonalization with overlap
     ethr =  1.00E-06,  avg # of iterations =  5.0

     negative rho (up, down):  1.111E-05 0.000E+00

     total cpu time spent up to now is        5.7 secs

     total energy              =    -329.48846394 Ry
     Harris-Foulkes estimate   =    -329.48843712 Ry
     estimated scf accuracy    <       0.00034113 Ry

     iteration #  2     ecut=    30.00 Ry     beta=0.70
     Davidson diagonalization with overlap
     ethr =  6.20E-07,  avg # of iterations =  3.0

     negative rho (up, down):  3.307E-06 0.000E+00

     total cpu time spent up to now is        6.0 secs

     total energy              =    -329.48840738 Ry
     Harris-Foulkes estimate   =    -329.48879600 Ry
     estimated scf accuracy    <       0.00100632 Ry

     iteration #  3     ecut=    30.00 Ry     beta=0.70
     Davidson diagonalization with overlap
     ethr =  6.20E-07,  avg # of iterations =  3.0

     negative rho (up, down):  1.635E-08 0.000E+00

     total cpu time spent up to now is        6.2 secs

     total energy              =    -329.48861031 Ry
     Harris-Foulkes estimate   =    -329.48862192 Ry
     estimated scf accuracy    <       0.00005654 Ry

     iteration #  4     ecut=    30.00 Ry     beta=0.70
     Davidson diagonalization with overlap
     ethr =  1.03E-07,  avg # of iterations =  2.0

     total cpu time spent up to now is        6.4 secs

     total energy              =    -329.48862095 Ry
     Harris-Foulkes estimate   =    -329.48862387 Ry
     estimated scf accuracy    <       0.00000888 Ry

     iteration #  5     ecut=    30.00 Ry     beta=0.70
     Davidson diagonalization with overlap
     ethr =  1.61E-08,  avg # of iterations =  2.0

     total cpu time spent up to now is        6.7 secs

     total energy              =    -329.48862266 Ry
     Harris-Foulkes estimate   =    -329.48862346 Ry
     estimated scf accuracy    <       0.00000161 Ry

     iteration #  6     ecut=    30.00 Ry     beta=0.70
     Davidson diagonalization with overlap
     ethr =  2.93E-09,  avg # of iterations =  2.0

     total cpu time spent up to now is        6.9 secs

     total energy              =    -329.48862306 Ry
     Harris-Foulkes estimate   =    -329.48862311 Ry
     estimated scf accuracy    <       0.00000020 Ry

     iteration #  7     ecut=    30.00 Ry     beta=0.70
     Davidson diagonalization with overlap
     ethr =  3.65E-10,  avg # of iterations =  2.0

     total cpu time spent up to now is        7.1 secs

     total energy              =    -329.48862308 Ry
     Harris-Foulkes estimate   =    -329.48862312 Ry
     estimated scf accuracy    <       0.00000006 Ry

     iteration #  8     ecut=    30.00 Ry     beta=0.70
     Davidson diagonalization with overlap
     ethr =  1.17E-10,  avg # of iterations =  2.0

     total cpu time spent up to now is        7.3 secs

     total energy              =    -329.48862312 Ry
     Harris-Foulkes estimate   =    -329.48862309 Ry
     estimated scf accuracy    <          6.3E-09 Ry

     iteration #  9     ecut=    30.00 Ry     beta=0.70
     Davidson diagonalization with overlap
     ethr =  1.15E-11,  avg # of iterations =  2.0

     total cpu time spent up to now is        7.5 secs

     End of self-consistent calculation

          k = 0.0000 0.0000 0.0000 ( 22119 PWs)   bands (ev):

    -8.4580  -7.7879  -7.6019  -7.1760  -6.8991  -6.7963  -6.7825  -6.4821
    -6.2422  -6.0776  -6.0355  -5.7642  -5.7446  -5.6677  -5.4091  -5.3702
    -5.3161  -5.2294  -5.2107  -5.1756  -5.1706  -5.1468  -5.0051  -4.9011
    -4.8885  -4.7165  -4.4442  -3.7627  -2.5353  -2.1852  -0.5756  -0.2396
     0.4952   0.9074

     the Fermi energy is    -3.7322 ev

!    total energy              =    -329.48862313 Ry
     Harris-Foulkes estimate   =    -329.48862312 Ry
     estimated scf accuracy    <          1.4E-09 Ry

     The total energy is the sum of the following terms:

     one-electron contribution =    -609.60197905 Ry
     hartree contribution      =     326.23730492 Ry
     xc contribution           =     -51.40684130 Ry
     ewald contribution        =       5.28681233 Ry
     smearing contrib. (-TS)   =      -0.00392003 Ry

     convergence has been achieved in   9 iterations

     Forces acting on atoms (Ry/au):

     atom    1 type  1   force =    -0.00345219   -0.00078277   -0.00984662
     atom    2 type  1   force =     0.01019182    0.00078900    0.00658042
     atom    3 type  1   force =    -0.00248212    0.00083703    0.00957667
     atom    4 type  1   force =    -0.01249502    0.00074964   -0.00068472
     atom    5 type  1   force =     0.00823752   -0.00159290   -0.00562575

     Total force =     0.024800     Total SCF correction =     0.000180

     number of scf cycles    =   3
     number of bfgs steps    =   2

     energy   old            =    -329.4865522563 Ry
     energy   new            =    -329.4886231311 Ry

     CASE: energy  _new < energy  _old

     new trust radius        =       0.0496208598 bohr
     new conv_thr            =       0.0000000012 Ry


ATOMIC_POSITIONS (bohr)
Au      -1.897139841   1.595160945  -0.674228358
Au      -0.954027541   2.322481646   4.319856653
Au       3.023008088   1.974537397   0.483957727
Au       3.911751723   2.946767893   5.886740620
Au       7.658537570   2.548729119   2.409381359



     Writing output data file pwscf.save
     Check: negative starting charge=   -0.006514
     NEW-OLD atomic charge density approx. for the potential
     Check: negative starting charge=   -0.006486

     negative rho (up, down):  8.012E-04 0.000E+00

     total cpu time spent up to now is        7.7 secs

     per-process dynamical memory:    50.7 Mb

     Self-consistent Calculation

     iteration #  1     ecut=    30.00 Ry     beta=0.70
     Davidson diagonalization with overlap
     ethr =  1.00E-06,  avg # of iterations =  6.0

     negative rho (up, down):  4.602E-05 0.000E+00

     total cpu time spent up to now is        8.1 secs

     total energy              =    -329.48958474 Ry
     Harris-Foulkes estimate   =    -329.48935163 Ry
     estimated scf accuracy    <       0.00086056 Ry

     iteration #  2     ecut=    30.00 Ry     beta=0.70
     Davidson diagonalization with overlap
     ethr =  1.56E-06,  avg # of iterations =  5.0

     negative rho (up, down):  1.857E-05 0.000E+00

     total cpu time spent up to now is        8.4 secs

     total energy              =    -329.48942560 Ry
     Harris-Foulkes estimate   =    -329.49047056 Ry
     estimated scf accuracy    <       0.00274416 Ry

     iteration #  3     ecut=    30.00 Ry     beta=0.70
     Davidson diagonalization with overlap
     ethr =  1.56E-06,  avg # of iterations =  3.0

     negative rho (up, down):  2.889E-07 0.000E+00

     total cpu time spent up to now is        8.6 secs

     total energy              =    -329.48996046 Ry
     Harris-Foulkes estimate   =    -329.48998771 Ry
     estimated scf accuracy    <       0.00012853 Ry

     iteration #  4     ecut=    30.00 Ry     beta=0.70
     Davidson diagonalization with overlap
     ethr =  2.34E-07,  avg # of iterations =  2.0

     total cpu time spent up to now is        8.8 secs

     total energy              =    -329.48998736 Ry
     Harris-Foulkes estimate   =    -329.48999135 Ry
     estimated scf accuracy    <       0.00001905 Ry

     iteration #  5     ecut=    30.00 Ry     beta=0.70
     Davidson diagonalization with overlap
     ethr =  3.46E-08,  avg # of iterations =  2.0

     total cpu time spent up to now is        9.1 secs

     total energy              =    -329.48999134 Ry
     Harris-Foulkes estimate   =    -329.48999263 Ry
     estimated scf accuracy    <       0.00000326 Ry

     iteration #  6     ecut=    30.00 Ry     beta=0.70
     Davidson diagonalization with overlap
     ethr =  5.93E-09,  avg # of iterations =  2.0

     total cpu time spent up to now is        9.3 secs

     total energy              =    -329.48999220 Ry
     Harris-Foulkes estimate   =    -329.48999227 Ry
     estimated scf accuracy    <       0.00000040 Ry

     iteration #  7     ecut=    30.00 Ry     beta=0.70
     Davidson diagonalization with overlap
     ethr =  7.31E-10,  avg # of iterations =  2.0

     total cpu time spent up to now is        9.5 secs

     total energy              =    -329.48999215 Ry
     Harris-Foulkes estimate   =    -329.48999233 Ry
     estimated scf accuracy    <       0.00000011 Ry

     iteration #  8     ecut=    30.00 Ry     beta=0.70
     Davidson diagonalization with overlap
     ethr =  2.02E-10,  avg # of iterations =  2.0

     total cpu time spent up to now is        9.7 secs

     total energy              =    -329.48999226 Ry
     Harris-Foulkes estimate   =    -329.48999218 Ry
     estimated scf accuracy    <       0.00000002 Ry

     iteration #  9     ecut=    30.00 Ry     beta=0.70
     Davidson diagonalization with overlap
     ethr =  3.01E-11,  avg # of iterations =  2.0

     total cpu time spent up to now is        9.9 secs

     total energy              =    -329.48999226 Ry
     Harris-Foulkes estimate   =    -329.48999226 Ry
     estimated scf accuracy    <          2.7E-09 Ry

     iteration # 10     ecut=    30.00 Ry     beta=0.70
     Davidson diagonalization with overlap
     ethr =  4.97E-12,  avg # of iterations =  2.0

     total cpu time spent up to now is       10.1 secs

     End of self-consistent calculation

          k = 0.0000 0.0000 0.0000 ( 22119 PWs)   bands (ev):

    -8.4302  -7.7289  -7.6127  -7.1990  -6.8971  -6.7724  -6.6623  -6.4445
    -6.2940  -6.0233  -5.9939  -5.7668  -5.7246  -5.6704  -5.4130  -5.3852
    -5.3290  -5.2113  -5.2002  -5.1916  -5.1768  -5.1375  -5.0088  -4.8935
    -4.8561  -4.7495  -4.4397  -3.7982  -2.5373  -2.1793  -0.5752  -0.2462
     0.4919   0.9291

     the Fermi energy is    -3.7735 ev

!    total energy              =    -329.48999227 Ry
     Harris-Foulkes estimate   =    -329.48999227 Ry
     estimated scf accuracy    <          3.1E-10 Ry

     The total energy is the sum of the following terms:

     one-electron contribution =    -608.46492934 Ry
     hartree contribution      =     325.68412575 Ry
     xc contribution           =     -51.40119014 Ry
     ewald contribution        =       4.69465998 Ry
     smearing contrib. (-TS)   =      -0.00265852 Ry

     convergence has been achieved in  10 iterations

     Forces acting on atoms (Ry/au):

     atom    1 type  1   force =     0.00080411    0.00060762   -0.00149903
     atom    2 type  1   force =     0.00200730   -0.00125923   -0.00279315
     atom    3 type  1   force =    -0.00412856    0.00091808    0.00849056
     atom    4 type  1   force =     0.00058006    0.00084996   -0.00370263
     atom    5 type  1   force =     0.00073708   -0.00111642   -0.00049575

     Total force =     0.011111     Total SCF correction =     0.000069

     number of scf cycles    =   4
     number of bfgs steps    =   3

     energy   old            =    -329.4886231311 Ry
     energy   new            =    -329.4899922661 Ry

     CASE: energy  _new < energy  _old

     new trust radius        =       0.0153529645 bohr
     new conv_thr            =       0.0000000008 Ry


ATOMIC_POSITIONS (bohr)
Au      -1.898901676   1.595112668  -0.683004058
Au      -0.945897359   2.321796806   4.322176320
Au       3.017478873   1.976002317   0.498205369
Au       3.904370775   2.948181402   5.883511023
Au       7.665079387   2.546583807   2.404819345



     Writing output data file pwscf.save
     Check: negative starting charge=   -0.006486
     NEW-OLD atomic charge density approx. for the potential
     Check: negative starting charge=   -0.006488

     negative rho (up, down):  2.293E-05 0.000E+00

     total cpu time spent up to now is       10.3 secs

     per-process dynamical memory:    50.7 Mb

     Self-consistent Calculation

     iteration #  1     ecut=    30.00 Ry     beta=0.70
     Davidson diagonalization with overlap
     ethr =  1.00E-06,  avg # of iterations =  4.0

     Threshold (ethr) on eigenvalues was too large:
     Diagonalizing with lowered threshold

     Davidson diagonalization with overlap
     ethr =  8.82E-08,  avg # of iterations =  1.0

     negative rho (up, down):  3.873E-08 0.000E+00

     total cpu time spent up to now is       10.8 secs

     total energy              =    -329.49011969 Ry
     Harris-Foulkes estimate   =    -329.49013038 Ry
     estimated scf accuracy    <       0.00004916 Ry

     iteration #  2     ecut=    30.00 Ry     beta=0.70
     Davidson diagonalization with overlap
     ethr =  8.94E-08,  avg # of iterations =  3.0

     total cpu time spent up to now is       11.1 secs

     total energy              =    -329.49011141 Ry
     Harris-Foulkes estimate   =    -329.49016616 Ry
     estimated scf accuracy    <       0.00013948 Ry

     iteration #  3     ecut=    30.00 Ry     beta=0.70
     Davidson diagonalization with overlap
     ethr =  8.94E-08,  avg # of iterations =  3.0

     total cpu time spent up to now is       11.3 secs

     total energy              =    -329.49014012 Ry
     Harris-Foulkes estimate   =    -329.49014210 Ry
     estimated scf accuracy    <       0.00000958 Ry

     iteration #  4     ecut=    30.00 Ry     beta=0.70
     Davidson diagonalization with overlap
     ethr =  1.74E-08,  avg # of iterations =  2.0

     total cpu time spent up to now is       11.5 secs

     total energy              =    -329.49014230 Ry
     Harris-Foulkes estimate   =    -329.49014223 Ry
     estimated scf accuracy    <       0.00000094 Ry

     iteration #  5     ecut=    30.00 Ry     beta=0.70
     Davidson diagonalization with overlap
     ethr =  1.71E-09,  avg # of iterations =  3.0

     total cpu time spent up to now is       11.7 secs

     total energy              =    -329.49014255 Ry
     Harris-Foulkes estimate   =    -329.49014261 Ry
     estimated scf accuracy    <       0.00000026 Ry

     iteration #  6     ecut=    30.00 Ry     beta=0.70
     Davidson diagonalization with overlap
     ethr =  4.65E-10,  avg # of iterations =  2.0

     total cpu time spent up to now is       11.9 secs

     total energy              =    -329.49014273 Ry
     Harris-Foulkes estimate   =    -329.49014261 Ry
     estimated scf accuracy    <       0.00000002 Ry

     iteration #  7     ecut=    30.00 Ry     beta=0.70
     Davidson diagonalization with overlap
     ethr =  2.89E-11,  avg # of iterations =  3.0

     total cpu time spent up to now is       12.2 secs

     total energy              =    -329.49014272 Ry
     Harris-Foulkes estimate   =    -329.49014274 Ry
     estimated scf accuracy    <          3.7E-09 Ry

     iteration #  8     ecut=    30.00 Ry     beta=0.70
     Davidson diagonalization with overlap
     ethr =  6.81E-12,  avg # of iterations =  2.0

     total cpu time spent up to now is       12.4 secs

     total energy              =    -329.49014269 Ry
     Harris-Foulkes estimate   =    -329.49014272 Ry
     estimated scf accuracy    <          1.5E-09 Ry

     iteration #  9     ecut=    30.00 Ry     beta=0.70
     Davidson diagonalization with overlap
     ethr =  2.64E-12,  avg # of iterations =  2.0

     total cpu time spent up to now is       12.6 secs

     End of self-consistent calculation

          k = 0.0000 0.0000 0.0000 ( 22119 PWs)   bands (ev):

    -8.4354  -7.7290  -7.6264  -7.2107  -6.8977  -6.7739  -6.6431  -6.4462
    -6.3078  -6.0253  -5.9805  -5.7677  -5.7229  -5.6737  -5.4195  -5.3863
    -5.3307  -5.2140  -5.2018  -5.1885  -5.1776  -5.1344  -5.0100  -4.8924
    -4.8480  -4.7540  -4.4405  -3.8012  -2.5363  -2.1762  -0.5768  -0.2446
     0.4915   0.9326

     the Fermi energy is    -3.7769 ev

!    total energy              =    -329.49014266 Ry
     Harris-Foulkes estimate   =    -329.49014269 Ry
     estimated scf accuracy    <          1.6E-10 Ry

     The total energy is the sum of the following terms:

     one-electron contribution =    -608.72287315 Ry
     hartree contribution      =     325.81133875 Ry
     xc contribution           =     -51.40162173 Ry
     ewald contribution        =       4.82559085 Ry
     smearing contrib. (-TS)   =      -0.00257738 Ry

     convergence has been achieved in   9 iterations

     Forces acting on atoms (Ry/au):

     atom    1 type  1   force =     0.00114016    0.00072042   -0.00066355
     atom    2 type  1   force =     0.00007008   -0.00159027   -0.00366458
     atom    3 type  1   force =    -0.00385028    0.00096775    0.00741369
     atom    4 type  1   force =     0.00291742    0.00097051   -0.00318276
     atom    5 type  1   force =    -0.00027738   -0.00106841    0.00009720

     Total force =     0.010477     Total SCF correction =     0.000040

     number of scf cycles    =   5
     number of bfgs steps    =   4

     energy   old            =    -329.4899922661 Ry
     energy   new            =    -329.4901426625 Ry

     CASE: energy  _new < energy  _old

     new trust radius        =       0.0168882610 bohr
     new conv_thr            =       0.0000000002 Ry


ATOMIC_POSITIONS (bohr)
Au      -1.899243468   1.595636230  -0.689642507
Au      -0.940705565   2.320014957   4.320920471
Au       3.010737950   1.977791712   0.513586246
Au       3.902042255   2.949971122   5.879086574
Au       7.669298828   2.544262979   2.401757216



     Writing output data file pwscf.save
     Check: negative starting charge=   -0.006488
     NEW-OLD atomic charge density approx. for the potential
     Check: negative starting charge=   -0.006495

     negative rho (up, down):  1.584E-05 0.000E+00

     total cpu time spent up to now is       12.8 secs

     per-process dynamical memory:    50.7 Mb

     Self-consistent Calculation

     iteration #  1     ecut=    30.00 Ry     beta=0.70
     Davidson diagonalization with overlap
     ethr =  1.00E-06,  avg # of iterations =  4.0

     Threshold (ethr) on eigenvalues was too large:
     Diagonalizing with lowered threshold

     Davidson diagonalization with overlap
     ethr =  6.29E-08,  avg # of iterations =  1.0

     negative rho (up, down):  2.157E-08 0.000E+00

     total cpu time spent up to now is       13.3 secs

     total energy              =    -329.49027146 Ry
     Harris-Foulkes estimate   =    -329.49027733 Ry
     estimated scf accuracy    <       0.00003493 Ry

     iteration #  2     ecut=    30.00 Ry     beta=0.70
     Davidson diagonalization with overlap
     ethr =  6.35E-08,  avg # of iterations =  3.0

     total cpu time spent up to now is       13.5 secs

     total energy              =    -329.49026753 Ry
     Harris-Foulkes estimate   =    -329.49029917 Ry
     estimated scf accuracy    <       0.00007501 Ry

     iteration #  3     ecut=    30.00 Ry     beta=0.70
     Davidson diagonalization with overlap
     ethr =  6.35E-08,  avg # of iterations =  2.0

     total cpu time spent up to now is       13.7 secs

     total energy              =    -329.49028399 Ry
     Harris-Foulkes estimate   =    -329.49028652 Ry
     estimated scf accuracy    <       0.00000960 Ry

     iteration #  4     ecut=    30.00 Ry     beta=0.70
     Davidson diagonalization with overlap
     ethr =  1.74E-08,  avg # of iterations =  2.0

     total cpu time spent up to now is       13.9 secs

     total energy              =    -329.49028628 Ry
     Harris-Foulkes estimate   =    -329.49028601 Ry
     estimated scf accuracy    <       0.00000071 Ry

     iteration #  5     ecut=    30.00 Ry     beta=0.70
     Davidson diagonalization with overlap
     ethr =  1.30E-09,  avg # of iterations =  3.0

     total cpu time spent up to now is       14.2 secs

     total energy              =    -329.49028647 Ry
     Harris-Foulkes estimate   =    -329.49028653 Ry
     estimated scf accuracy    <       0.00000021 Ry

     iteration #  6     ecut=    30.00 Ry     beta=0.70
     Davidson diagonalization with overlap
     ethr =  3.73E-10,  avg # of iterations =  2.0

     total cpu time spent up to now is       14.4 secs

     total energy              =    -329.49028660 Ry
     Harris-Foulkes estimate   =    -329.49028652 Ry
     estimated scf accuracy    <       0.00000001 Ry

     iteration #  7     ecut=    30.00 Ry     beta=0.70
     Davidson diagonalization with overlap
     ethr =  2.54E-11,  avg # of iterations =  3.0

     total cpu time spent up to now is       14.6 secs

     total energy              =    -329.49028655 Ry
     Harris-Foulkes estimate   =    -329.49028661 Ry
     estimated scf accuracy    <          3.1E-09 Ry

     iteration #  8     ecut=    30.00 Ry     beta=0.70
     Davidson diagonalization with overlap
     ethr =  5.70E-12,  avg # of iterations =  2.0

     total cpu time spent up to now is       14.8 secs

     total energy              =    -329.49028653 Ry
     Harris-Foulkes estimate   =    -329.49028656 Ry
     estimated scf accuracy    <          1.2E-09 Ry

     iteration #  9     ecut=    30.00 Ry     beta=0.70
     Davidson diagonalization with overlap
     ethr =  2.10E-12,  avg # of iterations =  2.0

     total cpu time spent up to now is       15.1 secs

     total energy              =    -329.49028651 Ry
     Harris-Foulkes estimate   =    -329.49028653 Ry
     estimated scf accuracy    <          2.8E-10 Ry

     iteration # 10     ecut=    30.00 Ry     beta=0.70
     Davidson diagonalization with overlap
     ethr =  5.06E-13,  avg # of iterations =  2.0

     total cpu time spent up to now is       15.3 secs

     End of self-consistent calculation

          k = 0.0000 0.0000 0.0000 ( 22119 PWs)   bands (ev):

    -8.4461  -7.7371  -7.6402  -7.2239  -6.8974  -6.7789  -6.6343  -6.4531
    -6.3182  -6.0304  -5.9734  -5.7690  -5.7236  -5.6775  -5.4282  -5.3857
    -5.3309  -5.2183  -5.2032  -5.1869  -5.1780  -5.1317  -5.0111  -4.8933
    -4.8420  -4.7556  -4.4430  -3.8001  -2.5347  -2.1738  -0.5789  -0.2413
     0.4913   0.9342

     the Fermi energy is    -3.7753 ev

!    total energy              =    -329.49028651 Ry
     Harris-Foulkes estimate   =    -329.49028651 Ry
     estimated scf accuracy    <          2.8E-11 Ry

     The total energy is the sum of the following terms:

     one-electron contribution =    -609.18857967 Ry
     hartree contribution      =     326.03965056 Ry
     xc contribution           =     -51.40260584 Ry
     ewald contribution        =       5.06393953 Ry
     smearing contrib. (-TS)   =      -0.00269108 Ry

     convergence has been achieved in  10 iterations

     Forces acting on atoms (Ry/au):

     atom    1 type  1   force =     0.00106251    0.00072231   -0.00051321
     atom    2 type  1   force =    -0.00113161   -0.00171841   -0.00364742
     atom    3 type  1   force =    -0.00322694    0.00095503    0.00619363
     atom    4 type  1   force =     0.00395583    0.00108490   -0.00228081
     atom    5 type  1   force =    -0.00065979   -0.00104384    0.00024781

     Total force =     0.009631     Total SCF correction =     0.000023

     number of scf cycles    =   6
     number of bfgs steps    =   5

     energy   old            =    -329.4901426625 Ry
     energy   new            =    -329.4902865072 Ry

     CASE: energy  _new < energy  _old

     new trust radius        =       0.0253323915 bohr
     new conv_thr            =       0.0000000001 Ry


ATOMIC_POSITIONS (bohr)
Au      -1.898851910   1.596854834  -0.698015568
Au      -0.935954069   2.316418642   4.316502522
Au       3.000347853   1.980697629   0.536506359
Au       3.902907019   2.953069104   5.872391520
Au       7.673681108   2.540636791   2.398323168



     Writing output data file pwscf.save
     Check: negative starting charge=   -0.006495
     NEW-OLD atomic charge density approx. for the potential
     Check: negative starting charge=   -0.006509

     negative rho (up, down):  5.257E-05 0.000E+00

     total cpu time spent up to now is       15.5 secs

     per-process dynamical memory:    50.7 Mb

     Self-consistent Calculation

     iteration #  1     ecut=    30.00 Ry     beta=0.70
     Davidson diagonalization with overlap
     ethr =  1.00E-06,  avg # of iterations =  4.0

     negative rho (up, down):  2.757E-07 0.000E+00

     total cpu time spent up to now is       15.9 secs

     total energy              =    -329.49044705 Ry
     Harris-Foulkes estimate   =    -329.49045415 Ry
     estimated scf accuracy    <       0.00006376 Ry

     iteration #  2     ecut=    30.00 Ry     beta=0.70
     Davidson diagonalization with overlap
     ethr =  1.16E-07,  avg # of iterations =  3.0

     negative rho (up, down):  2.585E-08 0.000E+00

     total cpu time spent up to now is       16.1 secs

     total energy              =    -329.49044509 Ry
     Harris-Foulkes estimate   =    -329.49049075 Ry
     estimated scf accuracy    <       0.00010261 Ry

     iteration #  3     ecut=    30.00 Ry     beta=0.70
     Davidson diagonalization with overlap
     ethr =  1.16E-07,  avg # of iterations =  2.0

     total cpu time spent up to now is       16.4 secs

     total energy              =    -329.49046812 Ry
     Harris-Foulkes estimate   =    -329.49047481 Ry
     estimated scf accuracy    <       0.00002144 Ry

     iteration #  4     ecut=    30.00 Ry     beta=0.70
     Davidson diagonalization with overlap
     ethr =  3.90E-08,  avg # of iterations =  2.0

     total cpu time spent up to now is       16.5 secs

     total energy              =    -329.49047310 Ry
     Harris-Foulkes estimate   =    -329.49047265 Ry
     estimated scf accuracy    <       0.00000162 Ry

     iteration #  5     ecut=    30.00 Ry     beta=0.70
     Davidson diagonalization with overlap
     ethr =  2.95E-09,  avg # of iterations =  3.0

     total cpu time spent up to now is       16.8 secs

     total energy              =    -329.49047358 Ry
     Harris-Foulkes estimate   =    -329.49047365 Ry
     estimated scf accuracy    <       0.00000047 Ry

     iteration #  6     ecut=    30.00 Ry     beta=0.70
     Davidson diagonalization with overlap
     ethr =  8.48E-10,  avg # of iterations =  2.0

     total cpu time spent up to now is       17.0 secs

     total energy              =    -329.49047383 Ry
     Harris-Foulkes estimate   =    -329.49047368 Ry
     estimated scf accuracy    <       0.00000003 Ry

     iteration #  7     ecut=    30.00 Ry     beta=0.70
     Davidson diagonalization with overlap
     ethr =  5.17E-11,  avg # of iterations =  3.0

     total cpu time spent up to now is       17.2 secs

     total energy              =    -329.49047393 Ry
     Harris-Foulkes estimate   =    -329.49047384 Ry
     estimated scf accuracy    <          6.7E-09 Ry

     iteration #  8     ecut=    30.00 Ry     beta=0.70
     Davidson diagonalization with overlap
     ethr =  1.23E-11,  avg # of iterations =  2.0

     total cpu time spent up to now is       17.4 secs

     total energy              =    -329.49047400 Ry
     Harris-Foulkes estimate   =    -329.49047394 Ry
     estimated scf accuracy    <          2.2E-09 Ry

     iteration #  9     ecut=    30.00 Ry     beta=0.70
     Davidson diagonalization with overlap
     ethr =  4.03E-12,  avg # of iterations =  2.0

     total cpu time spent up to now is       17.6 secs

     total energy              =    -329.49047402 Ry
     Harris-Foulkes estimate   =    -329.49047400 Ry
     estimated scf accuracy    <          5.3E-10 Ry

     iteration # 10     ecut=    30.00 Ry     beta=0.70
     Davidson diagonalization with overlap
     ethr =  9.67E-13,  avg # of iterations =  2.0

     total cpu time spent up to now is       17.8 secs

     End of self-consistent calculation

          k = 0.0000 0.0000 0.0000 ( 22119 PWs)   bands (ev):

    -8.4651  -7.7539  -7.6594  -7.2425  -6.8954  -6.7884  -6.6292  -6.4667
    -6.3292  -6.0401  -5.9676  -5.7712  -5.7260  -5.6830  -5.4419  -5.3833
    -5.3301  -5.2257  -5.2042  -5.1863  -5.1783  -5.1281  -5.0126  -4.8963
    -4.8349  -4.7554  -4.4484  -3.7958  -2.5319  -2.1716  -0.5821  -0.2354
     0.4908   0.9347

     the Fermi energy is    -3.7695 ev

!    total energy              =    -329.49047402 Ry
     Harris-Foulkes estimate   =    -329.49047402 Ry
     estimated scf accuracy    <          5.7E-11 Ry

     The total energy is the sum of the following terms:

     one-electron contribution =    -609.95574180 Ry
     hartree contribution      =     326.41505190 Ry
     xc contribution           =     -51.40425353 Ry
     ewald contribution        =       5.45747040 Ry
     smearing contrib. (-TS)   =      -0.00300099 Ry

     convergence has been achieved in  10 iterations

     Forces acting on atoms (Ry/au):

     atom    1 type  1   force =     0.00068280    0.00068879   -0.00075473
     atom    2 type  1   force =    -0.00222609   -0.00171003   -0.00300461
     atom    3 type  1   force =    -0.00200783    0.00075798    0.00438255
     atom    4 type  1   force =     0.00433084    0.00124169   -0.00078241
     atom    5 type  1   force =    -0.00077972   -0.00097843    0.00015920

     Total force =     0.008046     Total SCF correction =     0.000033

     number of scf cycles    =   7
     number of bfgs steps    =   6

     energy   old            =    -329.4902865072 Ry
     energy   new            =    -329.4904740213 Ry

     CASE: energy  _new < energy  _old

     new trust radius        =       0.0379985872 bohr
     new conv_thr            =       0.0000000002 Ry


ATOMIC_POSITIONS (bohr)
Au      -1.897716689   1.599271701  -0.709978043
Au      -0.932528544   2.309767217   4.307525010
Au       2.984983450   1.985206414   0.570966461
Au       3.908878362   2.958636486   5.863251752
Au       7.678513421   2.534795182   2.393942820



     Writing output data file pwscf.save
     Check: negative starting charge=   -0.006509
     NEW-OLD atomic charge density approx. for the potential
     Check: negative starting charge=   -0.006533

     negative rho (up, down):  1.592E-04 0.000E+00

     total cpu time spent up to now is       18.1 secs

     per-process dynamical memory:    50.7 Mb

     Self-consistent Calculation

     iteration #  1     ecut=    30.00 Ry     beta=0.70
     Davidson diagonalization with overlap
     ethr =  1.00E-06,  avg # of iterations =  4.0

     negative rho (up, down):  2.389E-06 0.000E+00

     total cpu time spent up to now is       18.5 secs

     total energy              =    -329.49060031 Ry
     Harris-Foulkes estimate   =    -329.49060118 Ry
     estimated scf accuracy    <       0.00013225 Ry

     iteration #  2     ecut=    30.00 Ry     beta=0.70
     Davidson diagonalization with overlap
     ethr =  2.40E-07,  avg # of iterations =  3.0

     negative rho (up, down):  2.689E-07 0.000E+00

     total cpu time spent up to now is       18.7 secs

     total energy              =    -329.49060479 Ry
     Harris-Foulkes estimate   =    -329.49068090 Ry
     estimated scf accuracy    <       0.00016485 Ry

     iteration #  3     ecut=    30.00 Ry     beta=0.70
     Davidson diagonalization with overlap
     ethr =  2.40E-07,  avg # of iterations =  2.0

     total cpu time spent up to now is       18.9 secs

     total energy              =    -329.49064151 Ry
     Harris-Foulkes estimate   =    -329.49065698 Ry
     estimated scf accuracy    <       0.00004600 Ry

     iteration #  4     ecut=    30.00 Ry     beta=0.70
     Davidson diagonalization with overlap
     ethr =  8.36E-08,  avg # of iterations =  2.0

     total cpu time spent up to now is       19.1 secs

     total energy              =    -329.49065170 Ry
     Harris-Foulkes estimate   =    -329.49065177 Ry
     estimated scf accuracy    <       0.00000407 Ry

     iteration #  5     ecut=    30.00 Ry     beta=0.70
     Davidson diagonalization with overlap
     ethr =  7.39E-09,  avg # of iterations =  3.0

     total cpu time spent up to now is       19.3 secs

     total energy              =    -329.49065274 Ry
     Harris-Foulkes estimate   =    -329.49065298 Ry
     estimated scf accuracy    <       0.00000106 Ry

     iteration #  6     ecut=    30.00 Ry     beta=0.70
     Davidson diagonalization with overlap
     ethr =  1.92E-09,  avg # of iterations =  2.0

     total cpu time spent up to now is       19.5 secs

     total energy              =    -329.49065292 Ry
     Harris-Foulkes estimate   =    -329.49065297 Ry
     estimated scf accuracy    <       0.00000005 Ry

     iteration #  7     ecut=    30.00 Ry     beta=0.70
     Davidson diagonalization with overlap
     ethr =  8.27E-11,  avg # of iterations =  3.0

     total cpu time spent up to now is       19.8 secs

     total energy              =    -329.49065299 Ry
     Harris-Foulkes estimate   =    -329.49065293 Ry
     estimated scf accuracy    <       0.00000001 Ry

     iteration #  8     ecut=    30.00 Ry     beta=0.70
     Davidson diagonalization with overlap
     ethr =  1.98E-11,  avg # of iterations =  2.0

     total cpu time spent up to now is       20.0 secs

     total energy              =    -329.49065303 Ry
     Harris-Foulkes estimate   =    -329.49065300 Ry
     estimated scf accuracy    <          1.9E-09 Ry

     iteration #  9     ecut=    30.00 Ry     beta=0.70
     Davidson diagonalization with overlap
     ethr =  3.37E-12,  avg # of iterations =  2.0

     total cpu time spent up to now is       20.2 secs

     total energy              =    -329.49065303 Ry
     Harris-Foulkes estimate   =    -329.49065303 Ry
     estimated scf accuracy    <          4.8E-10 Ry

     iteration # 10     ecut=    30.00 Ry     beta=0.70
     Davidson diagonalization with overlap
     ethr =  8.79E-13,  avg # of iterations =  2.0

     total cpu time spent up to now is       20.4 secs

     End of self-consistent calculation

          k = 0.0000 0.0000 0.0000 ( 22119 PWs)   bands (ev):

    -8.4951  -7.7823  -7.6858  -7.2662  -6.8887  -6.8037  -6.6292  -6.4898
    -6.3393  -6.0567  -5.9630  -5.7746  -5.7302  -5.6900  -5.4625  -5.3778
    -5.3277  -5.2379  -5.2044  -5.1866  -5.1788  -5.1232  -5.0144  -4.9028
    -4.8257  -4.7526  -4.4582  -3.7871  -2.5271  -2.1709  -0.5867  -0.2252
     0.4899   0.9337

     the Fermi energy is    -3.7581 ev

!    total energy              =    -329.49065303 Ry
     Harris-Foulkes estimate   =    -329.49065303 Ry
     estimated scf accuracy    <          1.7E-10 Ry

     The total energy is the sum of the following terms:

     one-electron contribution =    -611.07794158 Ry
     hartree contribution      =     326.96360334 Ry
     xc contribution           =     -51.40669035 Ry
     ewald contribution        =       6.03394761 Ry
     smearing contrib. (-TS)   =      -0.00357205 Ry

     convergence has been achieved in  10 iterations

     Forces acting on atoms (Ry/au):

     atom    1 type  1   force =    -0.00009942    0.00068179   -0.00133427
     atom    2 type  1   force =    -0.00320054   -0.00143204   -0.00141762
     atom    3 type  1   force =     0.00037009    0.00003505    0.00125169
     atom    4 type  1   force =     0.00358226    0.00148455    0.00160838
     atom    5 type  1   force =    -0.00065240   -0.00076935   -0.00010818

     Total force =     0.006076     Total SCF correction =     0.000040

     number of scf cycles    =   8
     number of bfgs steps    =   7

     energy   old            =    -329.4904740213 Ry
     energy   new            =    -329.4906530276 Ry

     CASE: energy  _new < energy  _old

     new trust radius        =       0.0173274177 bohr
     new conv_thr            =       0.0000000002 Ry


ATOMIC_POSITIONS (bohr)
Au      -1.896934163   1.601299687  -0.715738095
Au      -0.935225215   2.305127932   4.301136506
Au       2.978845939   1.987009501   0.587069853
Au       3.916346306   2.962756491   5.860766399
Au       7.679097134   2.531483388   2.392473337



     Writing output data file pwscf.save
     Check: negative starting charge=   -0.006533
     NEW-OLD atomic charge density approx. for the potential
     Check: negative starting charge=   -0.006543

     negative rho (up, down):  2.178E-05 0.000E+00

     total cpu time spent up to now is       20.6 secs

     per-process dynamical memory:    50.7 Mb

     Self-consistent Calculation

     iteration #  1     ecut=    30.00 Ry     beta=0.70
     Davidson diagonalization with overlap
     ethr =  1.00E-06,  avg # of iterations =  4.0

     Threshold (ethr) on eigenvalues was too large:
     Diagonalizing with lowered threshold

     Davidson diagonalization with overlap
     ethr =  5.24E-08,  avg # of iterations =  1.0

     negative rho (up, down):  4.023E-08 0.000E+00

     total cpu time spent up to now is       21.2 secs

     total energy              =    -329.49069561 Ry
     Harris-Foulkes estimate   =    -329.49069517 Ry
     estimated scf accuracy    <       0.00002878 Ry

     iteration #  2     ecut=    30.00 Ry     beta=0.70
     Davidson diagonalization with overlap
     ethr =  5.23E-08,  avg # of iterations =  3.0

     total cpu time spent up to now is       21.4 secs

     total energy              =    -329.49070050 Ry
     Harris-Foulkes estimate   =    -329.49070862 Ry
     estimated scf accuracy    <       0.00001766 Ry

     iteration #  3     ecut=    30.00 Ry     beta=0.70
     Davidson diagonalization with overlap
     ethr =  3.21E-08,  avg # of iterations =  2.0

     total cpu time spent up to now is       21.6 secs

     total energy              =    -329.49070506 Ry
     Harris-Foulkes estimate   =    -329.49070608 Ry
     estimated scf accuracy    <       0.00000480 Ry

     iteration #  4     ecut=    30.00 Ry     beta=0.70
     Davidson diagonalization with overlap
     ethr =  8.74E-09,  avg # of iterations =  2.0

     total cpu time spent up to now is       21.8 secs

     total energy              =    -329.49070647 Ry
     Harris-Foulkes estimate   =    -329.49070690 Ry
     estimated scf accuracy    <       0.00000220 Ry

     iteration #  5     ecut=    30.00 Ry     beta=0.70
     Davidson diagonalization with overlap
     ethr =  4.00E-09,  avg # of iterations =  2.0

     total cpu time spent up to now is       22.0 secs

     total energy              =    -329.49070674 Ry
     Harris-Foulkes estimate   =    -329.49070690 Ry
     estimated scf accuracy    <       0.00000018 Ry

     iteration #  6     ecut=    30.00 Ry     beta=0.70
     Davidson diagonalization with overlap
     ethr =  3.27E-10,  avg # of iterations =  3.0

     total cpu time spent up to now is       22.2 secs

     total energy              =    -329.49070698 Ry
     Harris-Foulkes estimate   =    -329.49070679 Ry
     estimated scf accuracy    <       0.00000001 Ry

     iteration #  7     ecut=    30.00 Ry     beta=0.70
     Davidson diagonalization with overlap
     ethr =  1.87E-11,  avg # of iterations =  2.0

     total cpu time spent up to now is       22.5 secs

     total energy              =    -329.49070694 Ry
     Harris-Foulkes estimate   =    -329.49070698 Ry
     estimated scf accuracy    <          3.4E-09 Ry

     iteration #  8     ecut=    30.00 Ry     beta=0.70
     Davidson diagonalization with overlap
     ethr =  6.27E-12,  avg # of iterations =  2.0

     total cpu time spent up to now is       22.7 secs

     total energy              =    -329.49070692 Ry
     Harris-Foulkes estimate   =    -329.49070694 Ry
     estimated scf accuracy    <          1.0E-09 Ry

     iteration #  9     ecut=    30.00 Ry     beta=0.70
     Davidson diagonalization with overlap
     ethr =  1.83E-12,  avg # of iterations =  2.0

     total cpu time spent up to now is       22.9 secs

     End of self-consistent calculation

          k = 0.0000 0.0000 0.0000 ( 22119 PWs)   bands (ev):

    -8.5093  -7.7968  -7.6912  -7.2730  -6.8818  -6.8112  -6.6352  -6.4995
    -6.3385  -6.0655  -5.9646  -5.7760  -5.7329  -5.6919  -5.4723  -5.3738
    -5.3251  -5.2443  -5.2033  -5.1875  -5.1792  -5.1216  -5.0149  -4.9080
    -4.8242  -4.7490  -4.4646  -3.7808  -2.5246  -2.1739  -0.5883  -0.2197
     0.4891   0.9314

     the Fermi energy is    -3.7501 ev

!    total energy              =    -329.49070693 Ry
     Harris-Foulkes estimate   =    -329.49070692 Ry
     estimated scf accuracy    <          1.1E-10 Ry

     The total energy is the sum of the following terms:

     one-electron contribution =    -611.48082536 Ry
     hartree contribution      =     327.15958366 Ry
     xc contribution           =     -51.40733970 Ry
     ewald contribution        =       6.24182127 Ry
     smearing contrib. (-TS)   =      -0.00394680 Ry

     convergence has been achieved in   9 iterations

     Forces acting on atoms (Ry/au):

     atom    1 type  1   force =    -0.00042520    0.00064715   -0.00171290
     atom    2 type  1   force =    -0.00270599   -0.00114038   -0.00021022
     atom    3 type  1   force =     0.00128527   -0.00038193   -0.00041368
     atom    4 type  1   force =     0.00198673    0.00152742    0.00263072
     atom    5 type  1   force =    -0.00014082   -0.00065226   -0.00029392

     Total force =     0.005282     Total SCF correction =     0.000044

     number of scf cycles    =   9
     number of bfgs steps    =   8

     energy   old            =    -329.4906530276 Ry
     energy   new            =    -329.4907069311 Ry

     CASE: energy  _new < energy  _old

     new trust radius        =       0.0081626199 bohr
     new conv_thr            =            1.0E-10 Ry


ATOMIC_POSITIONS (bohr)
Au      -1.896668051   1.603208564  -0.719175938
Au      -0.940779030   2.301519677   4.297154208
Au       2.978141579   1.987095723   0.592584050
Au       3.923267483   2.966489946   5.862954319
Au       7.678168018   2.529363090   2.392191361



     Writing output data file pwscf.save
     Check: negative starting charge=   -0.006543
     NEW-OLD atomic charge density approx. for the potential
     Check: negative starting charge=   -0.006544

     negative rho (up, down):  2.595E-06 0.000E+00

     total cpu time spent up to now is       23.1 secs

     per-process dynamical memory:    50.7 Mb

     Self-consistent Calculation

     iteration #  1     ecut=    30.00 Ry     beta=0.70
     Davidson diagonalization with overlap
     ethr =  1.00E-06,  avg # of iterations =  4.0

     Threshold (ethr) on eigenvalues was too large:
     Diagonalizing with lowered threshold

     Davidson diagonalization with overlap
     ethr =  1.74E-08,  avg # of iterations =  2.0

     total cpu time spent up to now is       23.6 secs

     total energy              =    -329.49074052 Ry
     Harris-Foulkes estimate   =    -329.49073773 Ry
     estimated scf accuracy    <       0.00001006 Ry

     iteration #  2     ecut=    30.00 Ry     beta=0.70
     Davidson diagonalization with overlap
     ethr =  1.83E-08,  avg # of iterations =  3.0

     total cpu time spent up to now is       23.8 secs

     total energy              =    -329.49074178 Ry
     Harris-Foulkes estimate   =    -329.49074632 Ry
     estimated scf accuracy    <       0.00001138 Ry

     iteration #  3     ecut=    30.00 Ry     beta=0.70
     Davidson diagonalization with overlap
     ethr =  1.83E-08,  avg # of iterations =  2.0

     total cpu time spent up to now is       24.0 secs

     total energy              =    -329.49074441 Ry
     Harris-Foulkes estimate   =    -329.49074533 Ry
     estimated scf accuracy    <       0.00000339 Ry

     iteration #  4     ecut=    30.00 Ry     beta=0.70
     Davidson diagonalization with overlap
     ethr =  6.17E-09,  avg # of iterations =  2.0

     total cpu time spent up to now is       24.2 secs

     total energy              =    -329.49074546 Ry
     Harris-Foulkes estimate   =    -329.49074524 Ry
     estimated scf accuracy    <       0.00000036 Ry

     iteration #  5     ecut=    30.00 Ry     beta=0.70
     Davidson diagonalization with overlap
     ethr =  6.53E-10,  avg # of iterations =  2.0

     total cpu time spent up to now is       24.4 secs

     total energy              =    -329.49074569 Ry
     Harris-Foulkes estimate   =    -329.49074554 Ry
     estimated scf accuracy    <       0.00000003 Ry

     iteration #  6     ecut=    30.00 Ry     beta=0.70
     Davidson diagonalization with overlap
     ethr =  5.91E-11,  avg # of iterations =  2.0

     total cpu time spent up to now is       24.6 secs

     total energy              =    -329.49074566 Ry
     Harris-Foulkes estimate   =    -329.49074570 Ry
     estimated scf accuracy    <          6.3E-09 Ry

     iteration #  7     ecut=    30.00 Ry     beta=0.70
     Davidson diagonalization with overlap
     ethr =  1.14E-11,  avg # of iterations =  2.0

     total cpu time spent up to now is       24.8 secs

     total energy              =    -329.49074566 Ry
     Harris-Foulkes estimate   =    -329.49074566 Ry
     estimated scf accuracy    <          1.0E-09 Ry

     iteration #  8     ecut=    30.00 Ry     beta=0.70
     Davidson diagonalization with overlap
     ethr =  1.87E-12,  avg # of iterations =  2.0

     total cpu time spent up to now is       25.1 secs

     total energy              =    -329.49074567 Ry
     Harris-Foulkes estimate   =    -329.49074566 Ry
     estimated scf accuracy    <          1.7E-10 Ry

     iteration #  9     ecut=    30.00 Ry     beta=0.70
     Davidson diagonalization with overlap
     ethr =  3.11E-13,  avg # of iterations =  2.0

     total cpu time spent up to now is       25.3 secs

     End of self-consistent calculation

          k = 0.0000 0.0000 0.0000 ( 22119 PWs)   bands (ev):

    -8.5125  -7.8005  -7.6834  -7.2698  -6.8749  -6.8130  -6.6410  -6.4997
    -6.3321  -6.0689  -5.9678  -5.7756  -5.7343  -5.6911  -5.4756  -5.3711
    -5.3230  -5.2471  -5.2023  -5.1887  -5.1789  -5.1218  -5.0148  -4.9125
    -4.8274  -4.7457  -4.4691  -3.7771  -2.5238  -2.1795  -0.5879  -0.2175
     0.4880   0.9288

     the Fermi energy is    -3.7453 ev

!    total energy              =    -329.49074569 Ry
     Harris-Foulkes estimate   =    -329.49074567 Ry
     estimated scf accuracy    <          2.9E-11 Ry

     The total energy is the sum of the following terms:

     one-electron contribution =    -611.37583147 Ry
     hartree contribution      =     327.10617770 Ry
     xc contribution           =     -51.40652209 Ry
     ewald contribution        =       6.18961478 Ry
     smearing contrib. (-TS)   =      -0.00418460 Ry

     convergence has been achieved in   9 iterations

     Forces acting on atoms (Ry/au):

     atom    1 type  1   force =    -0.00032360    0.00059633   -0.00185438
     atom    2 type  1   force =    -0.00148509   -0.00092952    0.00043042
     atom    3 type  1   force =     0.00108924   -0.00049612   -0.00082505
     atom    4 type  1   force =     0.00033919    0.00143319    0.00259721
     atom    5 type  1   force =     0.00038026   -0.00060388   -0.00034819

     Total force =     0.004337     Total SCF correction =     0.000019

     number of scf cycles    =  10
     number of bfgs steps    =   9

     energy   old            =    -329.4907069311 Ry
     energy   new            =    -329.4907456864 Ry

     CASE: energy  _new < energy  _old

     new trust radius        =       0.0089788819 bohr
     new conv_thr            =            1.0E-10 Ry


ATOMIC_POSITIONS (bohr)
Au      -1.896843196   1.605515195  -0.724358835
Au      -0.946844327   2.297451560   4.294624362
Au       2.978953764   1.986496759   0.595881886
Au       3.928849280   2.971337726   5.868049699
Au       7.678014479   2.526875760   2.391510888



     Writing output data file pwscf.save
     Check: negative starting charge=   -0.006544
     NEW-OLD atomic charge density approx. for the potential
     Check: negative starting charge=   -0.006542

     negative rho (up, down):  3.257E-06 0.000E+00

     total cpu time spent up to now is       25.5 secs

     per-process dynamical memory:    50.7 Mb

     Self-consistent Calculation

     iteration #  1     ecut=    30.00 Ry     beta=0.70
     Davidson diagonalization with overlap
     ethr =  1.00E-06,  avg # of iterations =  4.0

     Threshold (ethr) on eigenvalues was too large:
     Diagonalizing with lowered threshold

     Davidson diagonalization with overlap
     ethr =  1.97E-08,  avg # of iterations =  2.0

     total cpu time spent up to now is       26.0 secs

     total energy              =    -329.49077498 Ry
     Harris-Foulkes estimate   =    -329.49077339 Ry
     estimated scf accuracy    <       0.00001140 Ry

     iteration #  2     ecut=    30.00 Ry     beta=0.70
     Davidson diagonalization with overlap
     ethr =  2.07E-08,  avg # of iterations =  3.0

     total cpu time spent up to now is       26.2 secs

     total energy              =    -329.49077650 Ry
     Harris-Foulkes estimate   =    -329.49078180 Ry
     estimated scf accuracy    <       0.00001332 Ry

     iteration #  3     ecut=    30.00 Ry     beta=0.70
     Davidson diagonalization with overlap
     ethr =  2.07E-08,  avg # of iterations =  2.0

     total cpu time spent up to now is       26.5 secs

     total energy              =    -329.49077967 Ry
     Harris-Foulkes estimate   =    -329.49078056 Ry
     estimated scf accuracy    <       0.00000370 Ry

     iteration #  4     ecut=    30.00 Ry     beta=0.70
     Davidson diagonalization with overlap
     ethr =  6.73E-09,  avg # of iterations =  2.0

     total cpu time spent up to now is       26.7 secs

     total energy              =    -329.49078061 Ry
     Harris-Foulkes estimate   =    -329.49078060 Ry
     estimated scf accuracy    <       0.00000044 Ry

     iteration #  5     ecut=    30.00 Ry     beta=0.70
     Davidson diagonalization with overlap
     ethr =  7.99E-10,  avg # of iterations =  2.0

     total cpu time spent up to now is       26.9 secs

     total energy              =    -329.49078076 Ry
     Harris-Foulkes estimate   =    -329.49078071 Ry
     estimated scf accuracy    <       0.00000004 Ry

     iteration #  6     ecut=    30.00 Ry     beta=0.70
     Davidson diagonalization with overlap
     ethr =  6.42E-11,  avg # of iterations =  2.0

     total cpu time spent up to now is       27.1 secs

     total energy              =    -329.49078076 Ry
     Harris-Foulkes estimate   =    -329.49078077 Ry
     estimated scf accuracy    <          4.3E-09 Ry

     iteration #  7     ecut=    30.00 Ry     beta=0.70
     Davidson diagonalization with overlap
     ethr =  7.74E-12,  avg # of iterations =  2.0

     total cpu time spent up to now is       27.3 secs

     total energy              =    -329.49078077 Ry
     Harris-Foulkes estimate   =    -329.49078076 Ry
     estimated scf accuracy    <          2.0E-09 Ry

     iteration #  8     ecut=    30.00 Ry     beta=0.70
     Davidson diagonalization with overlap
     ethr =  3.56E-12,  avg # of iterations =  2.0

     total cpu time spent up to now is       27.5 secs

     total energy              =    -329.49078081 Ry
     Harris-Foulkes estimate   =    -329.49078077 Ry
     estimated scf accuracy    <          1.7E-10 Ry

     iteration #  9     ecut=    30.00 Ry     beta=0.70
     Davidson diagonalization with overlap
     ethr =  3.06E-13,  avg # of iterations =  2.0

     total cpu time spent up to now is       27.8 secs

     End of self-consistent calculation

          k = 0.0000 0.0000 0.0000 ( 22119 PWs)   bands (ev):

    -8.5103  -7.7979  -7.6715  -7.2616  -6.8667  -6.8118  -6.6424  -6.4959
    -6.3233  -6.0705  -5.9688  -5.7743  -5.7346  -5.6890  -5.4766  -5.3689
    -5.3213  -5.2489  -5.2020  -5.1895  -5.1782  -5.1226  -5.0144  -4.9172
    -4.8319  -4.7433  -4.4737  -3.7753  -2.5234  -2.1872  -0.5867  -0.2164
     0.4864   0.9264

     the Fermi energy is    -3.7428 ev

!    total energy              =    -329.49078084 Ry
     Harris-Foulkes estimate   =    -329.49078081 Ry
     estimated scf accuracy    <          2.5E-11 Ry

     The total energy is the sum of the following terms:

     one-electron contribution =    -610.98180142 Ry
     hartree contribution      =     326.91064521 Ry
     xc contribution           =     -51.40474368 Ry
     ewald contribution        =       5.98947643 Ry
     smearing contrib. (-TS)   =      -0.00435737 Ry

     convergence has been achieved in   9 iterations

     Forces acting on atoms (Ry/au):

     atom    1 type  1   force =     0.00007205    0.00057573   -0.00165671
     atom    2 type  1   force =    -0.00020591   -0.00078641    0.00060387
     atom    3 type  1   force =     0.00051717   -0.00051866   -0.00080427
     atom    4 type  1   force =    -0.00094973    0.00126067    0.00201474
     atom    5 type  1   force =     0.00056642   -0.00053134   -0.00015763

     Total force =     0.003531     Total SCF correction =     0.000022

     number of scf cycles    =  11
     number of bfgs steps    =  10

     energy   old            =    -329.4907456864 Ry
     energy   new            =    -329.4907808373 Ry

     CASE: energy  _new < energy  _old

     new trust radius        =       0.0120021199 bohr
     new conv_thr            =            1.0E-10 Ry


ATOMIC_POSITIONS (bohr)
Au      -1.897097276   1.608951544  -0.733718857
Au      -0.953058476   2.291592468   4.292987672
Au       2.980005208   1.985255563   0.599927807
Au       3.932895157   2.978847362   5.876492869
Au       7.679385388   2.523030063   2.390018508



     Writing output data file pwscf.save
     Check: negative starting charge=   -0.006542
     NEW-OLD atomic charge density approx. for the potential
     Check: negative starting charge=   -0.006537

     negative rho (up, down):  1.303E-05 0.000E+00

     total cpu time spent up to now is       28.0 secs

     per-process dynamical memory:    50.7 Mb

     Self-consistent Calculation

     iteration #  1     ecut=    30.00 Ry     beta=0.70
     Davidson diagonalization with overlap
     ethr =  1.00E-06,  avg # of iterations =  4.0

     Threshold (ethr) on eigenvalues was too large:
     Diagonalizing with lowered threshold

     Davidson diagonalization with overlap
     ethr =  4.00E-08,  avg # of iterations =  1.0

     negative rho (up, down):  1.204E-08 0.000E+00

     total cpu time spent up to now is       28.5 secs

     total energy              =    -329.49080252 Ry
     Harris-Foulkes estimate   =    -329.49080331 Ry
     estimated scf accuracy    <       0.00002220 Ry

     iteration #  2     ecut=    30.00 Ry     beta=0.70
     Davidson diagonalization with overlap
     ethr =  4.04E-08,  avg # of iterations =  3.0

     total cpu time spent up to now is       28.7 secs

     total energy              =    -329.49080735 Ry
     Harris-Foulkes estimate   =    -329.49081419 Ry
     estimated scf accuracy    <       0.00001748 Ry

     iteration #  3     ecut=    30.00 Ry     beta=0.70
     Davidson diagonalization with overlap
     ethr =  3.18E-08,  avg # of iterations =  2.0

     total cpu time spent up to now is       28.9 secs

     total energy              =    -329.49081130 Ry
     Harris-Foulkes estimate   =    -329.49081239 Ry
     estimated scf accuracy    <       0.00000385 Ry

     iteration #  4     ecut=    30.00 Ry     beta=0.70
     Davidson diagonalization with overlap
     ethr =  7.01E-09,  avg # of iterations =  2.0

     total cpu time spent up to now is       29.1 secs

     total energy              =    -329.49081280 Ry
     Harris-Foulkes estimate   =    -329.49081279 Ry
     estimated scf accuracy    <       0.00000176 Ry

     iteration #  5     ecut=    30.00 Ry     beta=0.70
     Davidson diagonalization with overlap
     ethr =  3.20E-09,  avg # of iterations =  2.0

     total cpu time spent up to now is       29.3 secs

     total energy              =    -329.49081316 Ry
     Harris-Foulkes estimate   =    -329.49081313 Ry
     estimated scf accuracy    <       0.00000009 Ry

     iteration #  6     ecut=    30.00 Ry     beta=0.70
     Davidson diagonalization with overlap
     ethr =  1.60E-10,  avg # of iterations =  3.0

     total cpu time spent up to now is       29.5 secs

     total energy              =    -329.49081325 Ry
     Harris-Foulkes estimate   =    -329.49081319 Ry
     estimated scf accuracy    <          5.5E-09 Ry

     iteration #  7     ecut=    30.00 Ry     beta=0.70
     Davidson diagonalization with overlap
     ethr =  9.96E-12,  avg # of iterations =  3.0

     total cpu time spent up to now is       29.8 secs

     total energy              =    -329.49081327 Ry
     Harris-Foulkes estimate   =    -329.49081326 Ry
     estimated scf accuracy    <          2.9E-09 Ry

     iteration #  8     ecut=    30.00 Ry     beta=0.70
     Davidson diagonalization with overlap
     ethr =  5.20E-12,  avg # of iterations =  2.0

     total cpu time spent up to now is       30.0 secs

     total energy              =    -329.49081327 Ry
     Harris-Foulkes estimate   =    -329.49081327 Ry
     estimated scf accuracy    <          3.5E-10 Ry

     iteration #  9     ecut=    30.00 Ry     beta=0.70
     Davidson diagonalization with overlap
     ethr =  6.39E-13,  avg # of iterations =  2.0

     total cpu time spent up to now is       30.2 secs

     End of self-consistent calculation

          k = 0.0000 0.0000 0.0000 ( 22119 PWs)   bands (ev):

    -8.5041  -7.7896  -7.6573  -7.2482  -6.8562  -6.8079  -6.6375  -6.4894
    -6.3125  -6.0713  -5.9662  -5.7721  -5.7338  -5.6861  -5.4762  -5.3669
    -5.3199  -5.2509  -5.2026  -5.1897  -5.1770  -5.1235  -5.0138  -4.9231
    -4.8367  -4.7418  -4.4794  -3.7755  -2.5231  -2.1977  -0.5847  -0.2161
     0.4842   0.9243

     the Fermi energy is    -3.7423 ev

!    total energy              =    -329.49081329 Ry
     Harris-Foulkes estimate   =    -329.49081327 Ry
     estimated scf accuracy    <          7.0E-11 Ry

     The total energy is the sum of the following terms:

     one-electron contribution =    -610.31136792 Ry
     hartree contribution      =     326.57886192 Ry
     xc contribution           =     -51.40193094 Ry
     ewald contribution        =       5.64811926 Ry
     smearing contrib. (-TS)   =      -0.00449561 Ry

     convergence has been achieved in   9 iterations

     Forces acting on atoms (Ry/au):

     atom    1 type  1   force =     0.00073126    0.00057186   -0.00100939
     atom    2 type  1   force =     0.00102432   -0.00068095    0.00031014
     atom    3 type  1   force =    -0.00019096   -0.00049535   -0.00059627
     atom    4 type  1   force =    -0.00181362    0.00098840    0.00093486
     atom    5 type  1   force =     0.00024900   -0.00038396    0.00036066

     Total force =     0.003099     Total SCF correction =     0.000030

     number of scf cycles    =  12
     number of bfgs steps    =  11

     energy   old            =    -329.4907808373 Ry
     energy   new            =    -329.4908132859 Ry

     CASE: energy  _new < energy  _old

     new trust radius        =       0.0081655173 bohr
     new conv_thr            =            1.0E-10 Ry


ATOMIC_POSITIONS (bohr)
Au      -1.896610441   1.611522458  -0.741030064
Au      -0.954840290   2.287457223   4.292902212
Au       2.980246494   1.984048272   0.602139751
Au       3.932381772   2.984382720   5.882473833
Au       7.680952465   2.520266327   2.389222268



     Writing output data file pwscf.save
     Check: negative starting charge=   -0.006537
     NEW-OLD atomic charge density approx. for the potential
     Check: negative starting charge=   -0.006534

     negative rho (up, down):  2.523E-06 0.000E+00

     total cpu time spent up to now is       30.5 secs

     per-process dynamical memory:    50.7 Mb

     Self-consistent Calculation

     iteration #  1     ecut=    30.00 Ry     beta=0.70
     Davidson diagonalization with overlap
     ethr =  1.00E-06,  avg # of iterations =  3.0

     Threshold (ethr) on eigenvalues was too large:
     Diagonalizing with lowered threshold

     Davidson diagonalization with overlap
     ethr =  1.90E-08,  avg # of iterations =  2.0

     total cpu time spent up to now is       30.9 secs

     total energy              =    -329.49082526 Ry
     Harris-Foulkes estimate   =    -329.49082612 Ry
     estimated scf accuracy    <       0.00001127 Ry

     iteration #  2     ecut=    30.00 Ry     beta=0.70
     Davidson diagonalization with overlap
     ethr =  2.05E-08,  avg # of iterations =  2.0

     total cpu time spent up to now is       31.2 secs

     total energy              =    -329.49082784 Ry
     Harris-Foulkes estimate   =    -329.49083121 Ry
     estimated scf accuracy    <       0.00000814 Ry

     iteration #  3     ecut=    30.00 Ry     beta=0.70
     Davidson diagonalization with overlap
     ethr =  1.48E-08,  avg # of iterations =  2.0

     total cpu time spent up to now is       31.4 secs

     total energy              =    -329.49083003 Ry
     Harris-Foulkes estimate   =    -329.49082995 Ry
     estimated scf accuracy    <       0.00000098 Ry

     iteration #  4     ecut=    30.00 Ry     beta=0.70
     Davidson diagonalization with overlap
     ethr =  1.78E-09,  avg # of iterations =  2.0

     total cpu time spent up to now is       31.6 secs

     total energy              =    -329.49083045 Ry
     Harris-Foulkes estimate   =    -329.49083056 Ry
     estimated scf accuracy    <       0.00000095 Ry

     iteration #  5     ecut=    30.00 Ry     beta=0.70
     Davidson diagonalization with overlap
     ethr =  1.72E-09,  avg # of iterations =  2.0

     total cpu time spent up to now is       31.8 secs

     total energy              =    -329.49083056 Ry
     Harris-Foulkes estimate   =    -329.49083063 Ry
     estimated scf accuracy    <       0.00000005 Ry

     iteration #  6     ecut=    30.00 Ry     beta=0.70
     Davidson diagonalization with overlap
     ethr =  9.88E-11,  avg # of iterations =  2.0

     total cpu time spent up to now is       32.0 secs

     total energy              =    -329.49083055 Ry
     Harris-Foulkes estimate   =    -329.49083058 Ry
     estimated scf accuracy    <          3.2E-09 Ry

     iteration #  7     ecut=    30.00 Ry     beta=0.70
     Davidson diagonalization with overlap
     ethr =  5.89E-12,  avg # of iterations =  3.0

     total cpu time spent up to now is       32.2 secs

     total energy              =    -329.49083056 Ry
     Harris-Foulkes estimate   =    -329.49083055 Ry
     estimated scf accuracy    <          1.8E-09 Ry

     iteration #  8     ecut=    30.00 Ry     beta=0.70
     Davidson diagonalization with overlap
     ethr =  3.20E-12,  avg # of iterations =  2.0

     total cpu time spent up to now is       32.5 secs

     total energy              =    -329.49083057 Ry
     Harris-Foulkes estimate   =    -329.49083056 Ry
     estimated scf accuracy    <          2.5E-10 Ry

     iteration #  9     ecut=    30.00 Ry     beta=0.70
     Davidson diagonalization with overlap
     ethr =  4.46E-13,  avg # of iterations =  3.0

     total cpu time spent up to now is       32.7 secs

     End of self-consistent calculation

          k = 0.0000 0.0000 0.0000 ( 22119 PWs)   bands (ev):

    -8.4992  -7.7823  -7.6513  -7.2396  -6.8512  -6.8047  -6.6303  -6.4852
    -6.3073  -6.0712  -5.9620  -5.7709  -5.7327  -5.6845  -5.4748  -5.3664
[...]

     CASE: energy  _new < energy  _old

     new trust radius        =       0.0070024366 bohr
     new conv_thr            =            1.0E-10 Ry


ATOMIC_POSITIONS (bohr)
Au      -1.859459768   1.622470002  -0.825076500
Au      -0.921514515   2.241729242   4.217527889
Au       2.991584323   1.970852679   0.595340017
Au       3.882414442   3.045189125   5.948462729
Au       7.649105517   2.507435952   2.489453866



     Writing output data file pwscf.save
     Check: negative starting charge=   -0.006541
     NEW-OLD atomic charge density approx. for the potential
     Check: negative starting charge=   -0.006540

     negative rho (up, down):  8.347E-07 0.000E+00

     total cpu time spent up to now is       65.4 secs

     per-process dynamical memory:    50.7 Mb

     Self-consistent Calculation

     iteration #  1     ecut=    30.00 Ry     beta=0.70
     Davidson diagonalization with overlap
     ethr =  1.00E-06,  avg # of iterations =  3.0

     Threshold (ethr) on eigenvalues was too large:
     Diagonalizing with lowered threshold

     Davidson diagonalization with overlap
     ethr =  1.40E-08,  avg # of iterations =  2.0

     total cpu time spent up to now is       65.8 secs

     total energy              =    -329.49113270 Ry
     Harris-Foulkes estimate   =    -329.49113516 Ry
     estimated scf accuracy    <       0.00000824 Ry

     iteration #  2     ecut=    30.00 Ry     beta=0.70
     Davidson diagonalization with overlap
     ethr =  1.50E-08,  avg # of iterations =  2.0

     total cpu time spent up to now is       66.1 secs

     total energy              =    -329.49113396 Ry
     Harris-Foulkes estimate   =    -329.49113726 Ry
     estimated scf accuracy    <       0.00000711 Ry

     iteration #  3     ecut=    30.00 Ry     beta=0.70
     Davidson diagonalization with overlap
     ethr =  1.29E-08,  avg # of iterations =  2.0

     total cpu time spent up to now is       66.3 secs

     total energy              =    -329.49113551 Ry
     Harris-Foulkes estimate   =    -329.49113599 Ry
     estimated scf accuracy    <       0.00000157 Ry

     iteration #  4     ecut=    30.00 Ry     beta=0.70
     Davidson diagonalization with overlap
     ethr =  2.85E-09,  avg # of iterations =  2.0

     total cpu time spent up to now is       66.5 secs

     total energy              =    -329.49113578 Ry
     Harris-Foulkes estimate   =    -329.49113607 Ry
     estimated scf accuracy    <       0.00000055 Ry

     iteration #  5     ecut=    30.00 Ry     beta=0.70
     Davidson diagonalization with overlap
     ethr =  1.01E-09,  avg # of iterations =  2.0

     total cpu time spent up to now is       66.7 secs

     total energy              =    -329.49113582 Ry
     Harris-Foulkes estimate   =    -329.49113588 Ry
     estimated scf accuracy    <       0.00000002 Ry

     iteration #  6     ecut=    30.00 Ry     beta=0.70
     Davidson diagonalization with overlap
     ethr =  4.43E-11,  avg # of iterations =  3.0

     total cpu time spent up to now is       66.9 secs

     total energy              =    -329.49113577 Ry
     Harris-Foulkes estimate   =    -329.49113583 Ry
     estimated scf accuracy    <          5.1E-09 Ry

     iteration #  7     ecut=    30.00 Ry     beta=0.70
     Davidson diagonalization with overlap
     ethr =  9.36E-12,  avg # of iterations =  3.0

     total cpu time spent up to now is       67.1 secs

     total energy              =    -329.49113577 Ry
     Harris-Foulkes estimate   =    -329.49113577 Ry
     estimated scf accuracy    <          1.5E-09 Ry

     iteration #  8     ecut=    30.00 Ry     beta=0.70
     Davidson diagonalization with overlap
     ethr =  2.73E-12,  avg # of iterations =  2.0

     total cpu time spent up to now is       67.4 secs

     total energy              =    -329.49113579 Ry
     Harris-Foulkes estimate   =    -329.49113577 Ry
     estimated scf accuracy    <          2.0E-10 Ry

     iteration #  9     ecut=    30.00 Ry     beta=0.70
     Davidson diagonalization with overlap
     ethr =  3.70E-13,  avg # of iterations =  2.0

     total cpu time spent up to now is       67.6 secs

     End of self-consistent calculation

          k = 0.0000 0.0000 0.0000 ( 22119 PWs)   bands (ev):

    -8.5026  -7.7843  -7.6637  -7.2486  -6.8896  -6.8087  -6.6214  -6.4918
    -6.3151  -6.0680  -5.9673  -5.7698  -5.7312  -5.6874  -5.4628  -5.3766
    -5.3245  -5.2454  -5.2095  -5.1947  -5.1719  -5.1253  -5.0108  -4.9284
    -4.8600  -4.7116  -4.4831  -3.7758  -2.5067  -2.2085  -0.5816  -0.2184
     0.4590   0.9159

     the Fermi energy is    -3.7426 ev

!    total energy              =    -329.49113581 Ry
     Harris-Foulkes estimate   =    -329.49113579 Ry
     estimated scf accuracy    <          2.9E-11 Ry

     The total energy is the sum of the following terms:

     one-electron contribution =    -610.08616372 Ry
     hartree contribution      =     326.46486739 Ry
     xc contribution           =     -51.40212355 Ry
     ewald contribution        =       5.53675585 Ry
     smearing contrib. (-TS)   =      -0.00447178 Ry

     convergence has been achieved in   9 iterations

     Forces acting on atoms (Ry/au):

     atom    1 type  1   force =     0.00022874   -0.00031694   -0.00033108
     atom    2 type  1   force =    -0.00032352    0.00029463    0.00009874
     atom    3 type  1   force =     0.00108091    0.00026881    0.00055189
     atom    4 type  1   force =     0.00033712   -0.00022937   -0.00012886
     atom    5 type  1   force =    -0.00132326   -0.00001713   -0.00019069

     Total force =     0.001995     Total SCF correction =     0.000023

     number of scf cycles    =  27
     number of bfgs steps    =  26

     energy   old            =    -329.4911275939 Ry
     energy   new            =    -329.4911358115 Ry

     CASE: energy  _new < energy  _old

     new trust radius        =       0.0070518186 bohr
     new conv_thr            =            1.0E-10 Ry


ATOMIC_POSITIONS (bohr)
Au      -1.854928493   1.617592582  -0.827401682
Au      -0.923114406   2.245243950   4.213887666
Au       2.992419563   1.973345103   0.596404447
Au       3.881322235   3.043137379   5.952532452
Au       7.646431102   2.508357986   2.490285117



     Writing output data file pwscf.save
     Check: negative starting charge=   -0.006540
     NEW-OLD atomic charge density approx. for the potential
     Check: negative starting charge=   -0.006540

     negative rho (up, down):  9.319E-07 0.000E+00

     total cpu time spent up to now is       67.8 secs

     per-process dynamical memory:    50.7 Mb

     Self-consistent Calculation

     iteration #  1     ecut=    30.00 Ry     beta=0.70
     Davidson diagonalization with overlap
     ethr =  1.00E-06,  avg # of iterations =  3.0

     Threshold (ethr) on eigenvalues was too large:
     Diagonalizing with lowered threshold

     Davidson diagonalization with overlap
     ethr =  1.50E-08,  avg # of iterations =  1.0

     total cpu time spent up to now is       68.3 secs

     total energy              =    -329.49113924 Ry
     Harris-Foulkes estimate   =    -329.49114245 Ry
     estimated scf accuracy    <       0.00000888 Ry

     iteration #  2     ecut=    30.00 Ry     beta=0.70
     Davidson diagonalization with overlap
     ethr =  1.61E-08,  avg # of iterations =  3.0

     total cpu time spent up to now is       68.5 secs

     total energy              =    -329.49114100 Ry
     Harris-Foulkes estimate   =    -329.49114402 Ry
     estimated scf accuracy    <       0.00000664 Ry

     iteration #  3     ecut=    30.00 Ry     beta=0.70
     Davidson diagonalization with overlap
     ethr =  1.21E-08,  avg # of iterations =  2.0

     total cpu time spent up to now is       68.7 secs

     total energy              =    -329.49114245 Ry
     Harris-Foulkes estimate   =    -329.49114268 Ry
     estimated scf accuracy    <       0.00000078 Ry

     iteration #  4     ecut=    30.00 Ry     beta=0.70
     Davidson diagonalization with overlap
     ethr =  1.41E-09,  avg # of iterations =  2.0

     total cpu time spent up to now is       68.9 secs

     total energy              =    -329.49114244 Ry
     Harris-Foulkes estimate   =    -329.49114287 Ry
     estimated scf accuracy    <       0.00000075 Ry

     iteration #  5     ecut=    30.00 Ry     beta=0.70
     Davidson diagonalization with overlap
     ethr =  1.36E-09,  avg # of iterations =  2.0

     total cpu time spent up to now is       69.1 secs

     total energy              =    -329.49114250 Ry
     Harris-Foulkes estimate   =    -329.49114258 Ry
     estimated scf accuracy    <       0.00000003 Ry

     iteration #  6     ecut=    30.00 Ry     beta=0.70
     Davidson diagonalization with overlap
     ethr =  5.11E-11,  avg # of iterations =  3.0

     total cpu time spent up to now is       69.4 secs

     total energy              =    -329.49114244 Ry
     Harris-Foulkes estimate   =    -329.49114251 Ry
     estimated scf accuracy    <          4.2E-09 Ry

     iteration #  7     ecut=    30.00 Ry     beta=0.70
     Davidson diagonalization with overlap
     ethr =  7.60E-12,  avg # of iterations =  2.0

     total cpu time spent up to now is       69.6 secs

     total energy              =    -329.49114244 Ry
     Harris-Foulkes estimate   =    -329.49114244 Ry
     estimated scf accuracy    <          1.2E-09 Ry

     iteration #  8     ecut=    30.00 Ry     beta=0.70
     Davidson diagonalization with overlap
     ethr =  2.22E-12,  avg # of iterations =  2.0

     total cpu time spent up to now is       69.8 secs

     total energy              =    -329.49114243 Ry
     Harris-Foulkes estimate   =    -329.49114244 Ry
     estimated scf accuracy    <          2.0E-10 Ry

     iteration #  9     ecut=    30.00 Ry     beta=0.70
     Davidson diagonalization with overlap
     ethr =  3.68E-13,  avg # of iterations =  2.0

     total cpu time spent up to now is       70.0 secs

     End of self-consistent calculation

          k = 0.0000 0.0000 0.0000 ( 22119 PWs)   bands (ev):

    -8.5066  -7.7863  -7.6631  -7.2476  -6.8900  -6.8115  -6.6216  -6.4919
    -6.3140  -6.0701  -5.9684  -5.7706  -5.7320  -5.6879  -5.4622  -5.3759
    -5.3242  -5.2453  -5.2093  -5.1949  -5.1720  -5.1253  -5.0093  -4.9285
    -4.8614  -4.7102  -4.4835  -3.7755  -2.5040  -2.2096  -0.5818  -0.2186
     0.4597   0.9163

     the Fermi energy is    -3.7423 ev

!    total energy              =    -329.49114243 Ry
     Harris-Foulkes estimate   =    -329.49114243 Ry
     estimated scf accuracy    <          4.7E-11 Ry

     The total energy is the sum of the following terms:

     one-electron contribution =    -610.15358324 Ry
     hartree contribution      =     326.49812009 Ry
     xc contribution           =     -51.40245574 Ry
     ewald contribution        =       5.57126010 Ry
     smearing contrib. (-TS)   =      -0.00448363 Ry

     convergence has been achieved in   9 iterations

     Forces acting on atoms (Ry/au):

     atom    1 type  1   force =    -0.00020526   -0.00014401   -0.00048590
     atom    2 type  1   force =    -0.00012800    0.00020276    0.00031654
     atom    3 type  1   force =     0.00108373    0.00014656    0.00043828
     atom    4 type  1   force =     0.00025395   -0.00018802   -0.00022869
     atom    5 type  1   force =    -0.00100442   -0.00001728   -0.00004022

     Total force =     0.001734     Total SCF correction =     0.000020

     number of scf cycles    =  28
     number of bfgs steps    =  27

     energy   old            =    -329.4911358115 Ry
     energy   new            =    -329.4911424252 Ry

     CASE: energy  _new < energy  _old

     new trust radius        =       0.0054925260 bohr
     new conv_thr            =            1.0E-10 Ry


ATOMIC_POSITIONS (bohr)
Au      -1.851856174   1.613801898  -0.829923469
Au      -0.924314482   2.247994272   4.211205364
Au       2.994316300   1.975343306   0.597697786
Au       3.880759911   3.041490004   5.955359103
Au       7.643224445   2.509047521   2.491369215



     Writing output data file pwscf.save
     Check: negative starting charge=   -0.006540
     NEW-OLD atomic charge density approx. for the potential
     Check: negative starting charge=   -0.006539

     negative rho (up, down):  2.654E-07 0.000E+00

     total cpu time spent up to now is       70.2 secs

     per-process dynamical memory:    50.7 Mb

     Self-consistent Calculation

     iteration #  1     ecut=    30.00 Ry     beta=0.70
     Davidson diagonalization with overlap
     ethr =  1.00E-06,  avg # of iterations =  3.0

     Threshold (ethr) on eigenvalues was too large:
     Diagonalizing with lowered threshold

     Davidson diagonalization with overlap
     ethr =  1.02E-08,  avg # of iterations =  2.0

     total cpu time spent up to now is       70.7 secs

     total energy              =    -329.49114451 Ry
     Harris-Foulkes estimate   =    -329.49114619 Ry
     estimated scf accuracy    <       0.00000600 Ry

     iteration #  2     ecut=    30.00 Ry     beta=0.70
     Davidson diagonalization with overlap
     ethr =  1.09E-08,  avg # of iterations =  3.0

     total cpu time spent up to now is       71.0 secs

     total energy              =    -329.49114519 Ry
     Harris-Foulkes estimate   =    -329.49114814 Ry
     estimated scf accuracy    <       0.00000628 Ry

     iteration #  3     ecut=    30.00 Ry     beta=0.70
     Davidson diagonalization with overlap
     ethr =  1.09E-08,  avg # of iterations =  2.0

     total cpu time spent up to now is       71.2 secs

     total energy              =    -329.49114652 Ry
     Harris-Foulkes estimate   =    -329.49114702 Ry
     estimated scf accuracy    <       0.00000155 Ry

     iteration #  4     ecut=    30.00 Ry     beta=0.70
     Davidson diagonalization with overlap
     ethr =  2.81E-09,  avg # of iterations =  2.0

     total cpu time spent up to now is       71.4 secs

     total energy              =    -329.49114650 Ry
     Harris-Foulkes estimate   =    -329.49114696 Ry
     estimated scf accuracy    <       0.00000030 Ry

     iteration #  5     ecut=    30.00 Ry     beta=0.70
     Davidson diagonalization with overlap
     ethr =  5.37E-10,  avg # of iterations =  2.0

     total cpu time spent up to now is       71.6 secs

     total energy              =    -329.49114638 Ry
     Harris-Foulkes estimate   =    -329.49114657 Ry
     estimated scf accuracy    <       0.00000002 Ry

     iteration #  6     ecut=    30.00 Ry     beta=0.70
     Davidson diagonalization with overlap
     ethr =  4.44E-11,  avg # of iterations =  2.0

     total cpu time spent up to now is       71.8 secs

     total energy              =    -329.49114642 Ry
     Harris-Foulkes estimate   =    -329.49114639 Ry
     estimated scf accuracy    <          2.3E-09 Ry

     iteration #  7     ecut=    30.00 Ry     beta=0.70
     Davidson diagonalization with overlap
     ethr =  4.10E-12,  avg # of iterations =  3.0

     total cpu time spent up to now is       72.0 secs

     total energy              =    -329.49114639 Ry
     Harris-Foulkes estimate   =    -329.49114642 Ry
     estimated scf accuracy    <          5.9E-10 Ry

     iteration #  8     ecut=    30.00 Ry     beta=0.70
     Davidson diagonalization with overlap
     ethr =  1.07E-12,  avg # of iterations =  2.0

     total cpu time spent up to now is       72.3 secs

     total energy              =    -329.49114639 Ry
     Harris-Foulkes estimate   =    -329.49114639 Ry
     estimated scf accuracy    <          1.4E-10 Ry

     iteration #  9     ecut=    30.00 Ry     beta=0.70
     Davidson diagonalization with overlap
     ethr =  2.54E-13,  avg # of iterations =  2.0

     total cpu time spent up to now is       72.5 secs

     End of self-consistent calculation

          k = 0.0000 0.0000 0.0000 ( 22119 PWs)   bands (ev):

    -8.5098  -7.7884  -7.6628  -7.2472  -6.8906  -6.8139  -6.6224  -6.4923
    -6.3133  -6.0719  -5.9696  -5.7709  -5.7325  -5.6884  -5.4617  -5.3753
    -5.3241  -5.2451  -5.2093  -5.1955  -5.1716  -5.1254  -5.0081  -4.9285
    -4.8622  -4.7092  -4.4838  -3.7752  -2.5017  -2.2104  -0.5820  -0.2188
     0.4599   0.9166

     the Fermi energy is    -3.7419 ev

!    total energy              =    -329.49114638 Ry
     Harris-Foulkes estimate   =    -329.49114639 Ry
     estimated scf accuracy    <          3.5E-11 Ry

     The total energy is the sum of the following terms:

     one-electron contribution =    -610.22199396 Ry
     hartree contribution      =     326.53181998 Ry
     xc contribution           =     -51.40278354 Ry
     ewald contribution        =       5.60630675 Ry
     smearing contrib. (-TS)   =      -0.00449562 Ry

     convergence has been achieved in   9 iterations

     Forces acting on atoms (Ry/au):

     atom    1 type  1   force =    -0.00026009   -0.00000255   -0.00041671
     atom    2 type  1   force =     0.00003541    0.00011590    0.00035637
     atom    3 type  1   force =     0.00055145    0.00001996    0.00017183
     atom    4 type  1   force =     0.00006668   -0.00013003   -0.00016482
     atom    5 type  1   force =    -0.00039343   -0.00000328    0.00005333

     Total force =     0.000961     Total SCF correction =     0.000020

     bfgs converged in  29 scf cycles and  28 bfgs steps
     (criteria: energy <  1.0E-04, force <  1.0E-03)

     End of BFGS Geometry Optimization

     Final energy   =    -329.4911463818 Ry
Begin final coordinates

ATOMIC_POSITIONS (bohr)
Au      -1.851856174   1.613801898  -0.829923469
Au      -0.924314482   2.247994272   4.211205364
Au       2.994316300   1.975343306   0.597697786
Au       3.880759911   3.041490004   5.955359103
Au       7.643224445   2.509047521   2.491369215
End final coordinates



     Writing output data file pwscf.save
 
     init_run     :      0.16s CPU      0.18s WALL (       1 calls)
     electrons    :     62.54s CPU     66.76s WALL (      29 calls)
     update_pot   :      1.86s CPU      2.40s WALL (      28 calls)
     forces       :      1.20s CPU      1.22s WALL (      29 calls)

     Called by init_run:
     wfcinit      :      0.07s CPU      0.08s WALL (       1 calls)
     potinit      :      0.03s CPU      0.03s WALL (       1 calls)

     Called by electrons:
     c_bands      :     47.66s CPU     48.21s WALL (     292 calls)
     sum_band     :      6.86s CPU      7.03s WALL (     292 calls)
     v_of_rho     :      5.20s CPU      5.27s WALL (     300 calls)
     mix_rho      :      1.95s CPU      4.26s WALL (     292 calls)

     Called by c_bands:
     init_us_2    :      0.89s CPU      0.93s WALL (     585 calls)
     cegterg      :     42.37s CPU     42.70s WALL (     292 calls)

     Called by sum_band:

     Called by *egterg:
     h_psi        :     33.31s CPU     33.54s WALL (     977 calls)
     g_psi        :      0.34s CPU      0.33s WALL (     684 calls)
     cdiaghg      :      2.15s CPU      2.16s WALL (     927 calls)

     Called by h_psi:
     h_psi:pot    :     32.83s CPU     33.05s WALL (     977 calls)
     h_psi:calbec :      1.78s CPU      1.79s WALL (     977 calls)
     vloc_psi     :     29.05s CPU     29.26s WALL (     977 calls)
     add_vuspsi   :      2.00s CPU      2.00s WALL (     977 calls)

     General routines
     calbec       :      2.12s CPU      2.14s WALL (    1093 calls)
     fft          :      2.92s CPU      2.98s WALL (    3399 calls)
     fftw         :     30.59s CPU     31.04s WALL (   64288 calls)
     davcio       :      0.32s CPU      2.13s WALL (    2726 calls)
 
     Parallel routines
     fft_scatter  :      7.80s CPU      7.51s WALL (   67687 calls)
 
     PWSCF        :  1m 6.57s CPU     1m12.65s WALL

 
   This run was terminated on:  20: 1:39   3Aug2017            

=------------------------------------------------------------------------------=
   JOB DONE.
=------------------------------------------------------------------------------=
