
     Program PWSCF v.6.0 (svn rev. 13079) starts on  3Aug2017 at 18:30:52 

     This program is part of the open-source Quantum ESPRESSO suite
     for quantum simulation of materials; please cite
         "P. Giannozzi et al., J. Phys.:Condens. Matter 21 395502 (2009);
          URL http://www.quantum-espresso.org", 
     in publications or presentations arising from this work. More details at
     http://www.quantum-espresso.org/quote

     Parallel version (MPI), running on    10 processors
     R & G space division:  proc/nbgrp/npool/nimage =      10
     Reading input from input/multi/minchecks-Gold5-349.in

     Current dimensions of program PWSCF are:
     Max number of different atomic species (ntypx) = 10
     Max number of k-points (npk) =  40000
     Max angular momentum in pseudopotentials (lmaxx) =  3
     Message from routine iosys:
     pot_extrapolation='second-order' not available, using 'atomic'
     Message from routine iosys:
     wfc_extrapolation='second-order' not available, using 'atomic'

     Subspace diagonalization in iterative solution of the eigenvalue problem:
     a serial algorithm will be used

 
     Parallelization info
     --------------------
     sticks:   dense  smooth     PW     G-vecs:    dense   smooth      PW
     Min         380     380     94                17748    17748    2208
     Max         381     381     95                17753    17753    2213
     Sum        3809    3809    949               177509   177509   22119
 


     bravais-lattice index     =            1
     lattice parameter (alat)  =      20.0000  a.u.
     unit-cell volume          =    8000.0000 (a.u.)^3
     number of atoms/cell      =            5
     number of atomic types    =            1
     number of electrons       =        55.00
     number of Kohn-Sham states=           34
     kinetic-energy cutoff     =      30.0000  Ry
     charge density cutoff     =     120.0000  Ry
     convergence threshold     =      1.0E-08
     mixing beta               =       0.7000
     number of iterations used =            8  plain     mixing
     Exchange-correlation      = BLYP ( 1  3  1  3 0 0)
     nstep                     =           50


     celldm(1)=  20.000000  celldm(2)=   0.000000  celldm(3)=   0.000000
     celldm(4)=   0.000000  celldm(5)=   0.000000  celldm(6)=   0.000000

     crystal axes: (cart. coord. in units of alat)
               a(1) = (   1.000000   0.000000   0.000000 )  
               a(2) = (   0.000000   1.000000   0.000000 )  
               a(3) = (   0.000000   0.000000   1.000000 )  

     reciprocal axes: (cart. coord. in units 2 pi/alat)
               b(1) = (  1.000000  0.000000  0.000000 )  
               b(2) = (  0.000000  1.000000  0.000000 )  
               b(3) = (  0.000000  0.000000  1.000000 )  


     PseudoPot. # 1 for Au read from file:
     ./Au.blyp-d-hgh.UPF
     MD5 check sum: c10d8bae01f806c36a1643a1c69a8479
     Pseudo is Norm-conserving, Zval = 11.0
     Generated in analytical, separable form
     Using radial grid of 1279 points,  6 beta functions with: 
                l(1) =   0
                l(2) =   0
                l(3) =   1
                l(4) =   1
                l(5) =   2
                l(6) =   2

     atomic species   valence    mass     pseudopotential
        Au            11.00    28.08600     Au( 1.00)

     No symmetry found



   Cartesian axes

     site n.     atom                  positions (alat units)
         1           Au  tau(   1) = (  -0.0854617   0.0461750  -0.0490039  )
         2           Au  tau(   2) = (  -0.0386536   0.1261484   0.1938295  )
         3           Au  tau(   3) = (   0.1565986   0.0969089   0.0280451  )
         4           Au  tau(   4) = (   0.2040258   0.1666965   0.2883969  )
         5           Au  tau(   5) = (   0.3901327   0.0931959   0.1246951  )

     number of k points=     1  Marzari-Vanderbilt smearing, width (Ry)=  0.0250
                       cart. coord. in units 2pi/alat
        k(    1) = (   0.0000000   0.0000000   0.0000000), wk =   2.0000000

     Dense  grid:   177509 G-vectors     FFT dimensions: (  72,  72,  72)

     Estimated max dynamical RAM per process >      15.04Mb

     Estimated total allocated dynamical RAM >     150.39Mb

     Initial potential from superposition of free atoms
     Check: negative starting charge=   -0.006524

     starting charge   54.99940, renormalised to   55.00000

     negative rho (up, down):  6.524E-03 0.000E+00
     Starting wfc are   45 randomized atomic wfcs

     total cpu time spent up to now is        0.3 secs

     per-process dynamical memory:    41.0 Mb

     Self-consistent Calculation

     iteration #  1     ecut=    30.00 Ry     beta=0.70
     Davidson diagonalization with overlap
     ethr =  1.00E-02,  avg # of iterations =  3.0

     Threshold (ethr) on eigenvalues was too large:
     Diagonalizing with lowered threshold

     Davidson diagonalization with overlap
     ethr =  4.05E-04,  avg # of iterations =  3.0

     negative rho (up, down):  9.005E-04 0.000E+00

     total cpu time spent up to now is        0.7 secs

     total energy              =    -329.38047314 Ry
     Harris-Foulkes estimate   =    -329.54639648 Ry
     estimated scf accuracy    <       0.27677996 Ry

     iteration #  2     ecut=    30.00 Ry     beta=0.70
     Davidson diagonalization with overlap
     ethr =  5.03E-04,  avg # of iterations =  2.0

     negative rho (up, down):  3.786E-04 0.000E+00

     total cpu time spent up to now is        0.9 secs

     total energy              =    -329.42617906 Ry
     Harris-Foulkes estimate   =    -329.55075318 Ry
     estimated scf accuracy    <       0.24898958 Ry

     iteration #  3     ecut=    30.00 Ry     beta=0.70
     Davidson diagonalization with overlap
     ethr =  4.53E-04,  avg # of iterations =  2.0

     negative rho (up, down):  1.392E-04 0.000E+00

     total cpu time spent up to now is        1.1 secs

     total energy              =    -329.47716131 Ry
     Harris-Foulkes estimate   =    -329.49574701 Ry
     estimated scf accuracy    <       0.04497609 Ry

     iteration #  4     ecut=    30.00 Ry     beta=0.70
     Davidson diagonalization with overlap
     ethr =  8.18E-05,  avg # of iterations =  2.0

     negative rho (up, down):  5.785E-06 0.000E+00

     total cpu time spent up to now is        1.3 secs

     total energy              =    -329.48634749 Ry
     Harris-Foulkes estimate   =    -329.48778290 Ry
     estimated scf accuracy    <       0.00360915 Ry

     iteration #  5     ecut=    30.00 Ry     beta=0.70
     Davidson diagonalization with overlap
     ethr =  6.56E-06,  avg # of iterations =  6.0

     total cpu time spent up to now is        1.6 secs

     total energy              =    -329.48703919 Ry
     Harris-Foulkes estimate   =    -329.48786438 Ry
     estimated scf accuracy    <       0.00214486 Ry

     iteration #  6     ecut=    30.00 Ry     beta=0.70
     Davidson diagonalization with overlap
     ethr =  3.90E-06,  avg # of iterations =  2.0

     total cpu time spent up to now is        1.8 secs

     total energy              =    -329.48740922 Ry
     Harris-Foulkes estimate   =    -329.48752233 Ry
     estimated scf accuracy    <       0.00028526 Ry

     iteration #  7     ecut=    30.00 Ry     beta=0.70
     Davidson diagonalization with overlap
     ethr =  5.19E-07,  avg # of iterations =  2.0

     total cpu time spent up to now is        2.0 secs

     total energy              =    -329.48746702 Ry
     Harris-Foulkes estimate   =    -329.48747286 Ry
     estimated scf accuracy    <       0.00001267 Ry

     iteration #  8     ecut=    30.00 Ry     beta=0.70
     Davidson diagonalization with overlap
     ethr =  2.30E-08,  avg # of iterations =  3.0

     total cpu time spent up to now is        2.3 secs

     total energy              =    -329.48746959 Ry
     Harris-Foulkes estimate   =    -329.48747277 Ry
     estimated scf accuracy    <       0.00000644 Ry

     iteration #  9     ecut=    30.00 Ry     beta=0.70
     Davidson diagonalization with overlap
     ethr =  1.17E-08,  avg # of iterations =  2.0

     total cpu time spent up to now is        2.5 secs

     total energy              =    -329.48747062 Ry
     Harris-Foulkes estimate   =    -329.48747130 Ry
     estimated scf accuracy    <       0.00000117 Ry

     iteration # 10     ecut=    30.00 Ry     beta=0.70
     Davidson diagonalization with overlap
     ethr =  2.13E-09,  avg # of iterations =  2.0

     total cpu time spent up to now is        2.7 secs

     total energy              =    -329.48747061 Ry
     Harris-Foulkes estimate   =    -329.48747099 Ry
     estimated scf accuracy    <       0.00000031 Ry

     iteration # 11     ecut=    30.00 Ry     beta=0.70
     Davidson diagonalization with overlap
     ethr =  5.72E-10,  avg # of iterations =  2.0

     total cpu time spent up to now is        2.9 secs

     End of self-consistent calculation

          k = 0.0000 0.0000 0.0000 ( 22119 PWs)   bands (ev):

    -8.4960  -7.8022  -7.6913  -7.2211  -6.8723  -6.7957  -6.5889  -6.5020
    -6.2836  -6.0987  -5.9124  -5.7978  -5.6791  -5.6233  -5.5149  -5.3754
    -5.2943  -5.2579  -5.2043  -5.1948  -5.1574  -5.1060  -5.0140  -4.9628
    -4.8499  -4.6793  -4.5418  -3.7433  -2.5178  -2.2554  -0.5772  -0.1484
     0.4053   0.8351

     the Fermi energy is    -3.7026 ev

!    total energy              =    -329.48747061 Ry
     Harris-Foulkes estimate   =    -329.48747067 Ry
     estimated scf accuracy    <          8.8E-09 Ry

     The total energy is the sum of the following terms:

     one-electron contribution =    -607.84353076 Ry
     hartree contribution      =     325.34899807 Ry
     xc contribution           =     -51.39252835 Ry
     ewald contribution        =       4.40585074 Ry
     smearing contrib. (-TS)   =      -0.00626032 Ry

     convergence has been achieved in  11 iterations

     Forces acting on atoms (Ry/au):

     atom    1 type  1   force =     0.01084189    0.00378191    0.00430277
     atom    2 type  1   force =    -0.00203533    0.00259872    0.00630602
     atom    3 type  1   force =    -0.00116839   -0.00934555   -0.01110963
     atom    4 type  1   force =    -0.00460913   -0.00087300    0.00061364
     atom    5 type  1   force =    -0.00302904    0.00383792   -0.00011279

     Total force =     0.021435     Total SCF correction =     0.000425

     BFGS Geometry Optimization

     number of scf cycles    =   1
     number of bfgs steps    =   0

     energy   new            =    -329.4874706125 Ry

     new trust radius        =       0.0145646286 bohr
     new conv_thr            =       0.0000000100 Ry


ATOMIC_POSITIONS (bohr)
Au      -1.698392109   0.927281912  -0.975774232
Au      -0.775107330   2.525566720   3.882895022
Au       3.130803609   1.928832449   0.549792367
Au       4.075906870   3.333056997   5.768551637
Au       7.799624961   1.867755922   2.493788207



     Writing output data file pwscf.save
     Check: negative starting charge=   -0.006524
     NEW-OLD atomic charge density approx. for the potential
     Check: negative starting charge=   -0.006519

     negative rho (up, down):  1.878E-05 0.000E+00

     total cpu time spent up to now is        3.1 secs

     per-process dynamical memory:    42.9 Mb

     Self-consistent Calculation

     iteration #  1     ecut=    30.00 Ry     beta=0.70
     Davidson diagonalization with overlap
     ethr =  1.00E-06,  avg # of iterations =  4.0

     Threshold (ethr) on eigenvalues was too large:
     Diagonalizing with lowered threshold

     Davidson diagonalization with overlap
     ethr =  5.51E-08,  avg # of iterations =  1.0

     negative rho (up, down):  3.885E-08 0.000E+00

     total cpu time spent up to now is        3.6 secs

     total energy              =    -329.48789194 Ry
     Harris-Foulkes estimate   =    -329.48789602 Ry
     estimated scf accuracy    <       0.00003076 Ry

     iteration #  2     ecut=    30.00 Ry     beta=0.70
     Davidson diagonalization with overlap
     ethr =  5.59E-08,  avg # of iterations =  3.0

     total cpu time spent up to now is        3.8 secs

     total energy              =    -329.48788873 Ry
     Harris-Foulkes estimate   =    -329.48791625 Ry
     estimated scf accuracy    <       0.00006356 Ry

     iteration #  3     ecut=    30.00 Ry     beta=0.70
     Davidson diagonalization with overlap
     ethr =  5.59E-08,  avg # of iterations =  2.0

     total cpu time spent up to now is        4.1 secs

     total energy              =    -329.48790207 Ry
     Harris-Foulkes estimate   =    -329.48790460 Ry
     estimated scf accuracy    <       0.00000724 Ry

     iteration #  4     ecut=    30.00 Ry     beta=0.70
     Davidson diagonalization with overlap
     ethr =  1.32E-08,  avg # of iterations =  2.0

     total cpu time spent up to now is        4.3 secs

     total energy              =    -329.48790335 Ry
     Harris-Foulkes estimate   =    -329.48790380 Ry
     estimated scf accuracy    <       0.00000088 Ry

     iteration #  5     ecut=    30.00 Ry     beta=0.70
     Davidson diagonalization with overlap
     ethr =  1.60E-09,  avg # of iterations =  2.0

     total cpu time spent up to now is        4.5 secs

     total energy              =    -329.48790329 Ry
     Harris-Foulkes estimate   =    -329.48790363 Ry
     estimated scf accuracy    <       0.00000026 Ry

     iteration #  6     ecut=    30.00 Ry     beta=0.70
     Davidson diagonalization with overlap
     ethr =  4.79E-10,  avg # of iterations =  2.0

     total cpu time spent up to now is        4.7 secs

     total energy              =    -329.48790334 Ry
     Harris-Foulkes estimate   =    -329.48790335 Ry
     estimated scf accuracy    <       0.00000001 Ry

     iteration #  7     ecut=    30.00 Ry     beta=0.70
     Davidson diagonalization with overlap
     ethr =  2.45E-11,  avg # of iterations =  3.0

     total cpu time spent up to now is        4.9 secs

     End of self-consistent calculation

          k = 0.0000 0.0000 0.0000 ( 22119 PWs)   bands (ev):

    -8.4962  -7.7979  -7.6822  -7.2199  -6.8728  -6.7987  -6.5846  -6.5011
    -6.2832  -6.0992  -5.9132  -5.7997  -5.6852  -5.6266  -5.5106  -5.3753
    -5.2943  -5.2581  -5.2035  -5.1961  -5.1586  -5.1084  -5.0115  -4.9615
    -4.8533  -4.6791  -4.5388  -3.7459  -2.5141  -2.2553  -0.5766  -0.1534
     0.4081   0.8375

     the Fermi energy is    -3.7056 ev

!    total energy              =    -329.48790329 Ry
     Harris-Foulkes estimate   =    -329.48790335 Ry
     estimated scf accuracy    <          5.9E-09 Ry

     The total energy is the sum of the following terms:

     one-electron contribution =    -607.86204016 Ry
     hartree contribution      =     325.35849588 Ry
     xc contribution           =     -51.39252946 Ry
     ewald contribution        =       4.41433585 Ry
     smearing contrib. (-TS)   =      -0.00616540 Ry

     convergence has been achieved in   7 iterations

     Forces acting on atoms (Ry/au):

     atom    1 type  1   force =     0.00926593    0.00342084    0.00369721
     atom    2 type  1   force =    -0.00133900    0.00256499    0.00576295
     atom    3 type  1   force =    -0.00032989   -0.00869925   -0.00939946
     atom    4 type  1   force =    -0.00431760   -0.00097492    0.00012816
     atom    5 type  1   force =    -0.00327944    0.00368834   -0.00018886

     Total force =     0.018999     Total SCF correction =     0.000338

     number of scf cycles    =   2
     number of bfgs steps    =   1

     energy   old            =    -329.4874706125 Ry
     energy   new            =    -329.4879032926 Ry

     CASE: energy  _new < energy  _old


     WARNING: bfgs curvature condition failed, Theta= 0.905
     new trust radius        =       0.0160210915 bohr
     new conv_thr            =       0.0000000004 Ry


ATOMIC_POSITIONS (bohr)
Au      -1.686744814   0.931541855  -0.971131057
Au      -0.776875499   2.528717865   3.890059738
Au       3.130246936   1.918048699   0.537956986
Au       4.070560005   3.331880106   5.768796889
Au       7.795649372   1.872305475   2.493570444



     Writing output data file pwscf.save
     Check: negative starting charge=   -0.006519
     NEW-OLD atomic charge density approx. for the potential
     Check: negative starting charge=   -0.006515

     negative rho (up, down):  2.720E-05 0.000E+00

     total cpu time spent up to now is        5.1 secs

     per-process dynamical memory:    50.5 Mb

     Self-consistent Calculation

     iteration #  1     ecut=    30.00 Ry     beta=0.70
     Davidson diagonalization with overlap
     ethr =  1.00E-06,  avg # of iterations =  4.0

     Threshold (ethr) on eigenvalues was too large:
     Diagonalizing with lowered threshold

     Davidson diagonalization with overlap
     ethr =  6.59E-08,  avg # of iterations =  1.0

     negative rho (up, down):  7.129E-08 0.000E+00

     total cpu time spent up to now is        5.6 secs

     total energy              =    -329.48830937 Ry
     Harris-Foulkes estimate   =    -329.48831375 Ry
     estimated scf accuracy    <       0.00003663 Ry

     iteration #  2     ecut=    30.00 Ry     beta=0.70
     Davidson diagonalization with overlap
     ethr =  6.66E-08,  avg # of iterations =  3.0

     negative rho (up, down):  1.012E-08 0.000E+00

     total cpu time spent up to now is        5.8 secs

     total energy              =    -329.48830704 Ry
     Harris-Foulkes estimate   =    -329.48833619 Ry
     estimated scf accuracy    <       0.00006691 Ry

     iteration #  3     ecut=    30.00 Ry     beta=0.70
     Davidson diagonalization with overlap
     ethr =  6.66E-08,  avg # of iterations =  2.0

     total cpu time spent up to now is        6.1 secs

     total energy              =    -329.48832140 Ry
     Harris-Foulkes estimate   =    -329.48832471 Ry
     estimated scf accuracy    <       0.00000964 Ry

     iteration #  4     ecut=    30.00 Ry     beta=0.70
     Davidson diagonalization with overlap
     ethr =  1.75E-08,  avg # of iterations =  2.0

     total cpu time spent up to now is        6.3 secs

     total energy              =    -329.48832275 Ry
     Harris-Foulkes estimate   =    -329.48832366 Ry
     estimated scf accuracy    <       0.00000106 Ry

     iteration #  5     ecut=    30.00 Ry     beta=0.70
     Davidson diagonalization with overlap
     ethr =  1.92E-09,  avg # of iterations =  2.0

     total cpu time spent up to now is        6.5 secs

     total energy              =    -329.48832271 Ry
     Harris-Foulkes estimate   =    -329.48832307 Ry
     estimated scf accuracy    <       0.00000025 Ry

     iteration #  6     ecut=    30.00 Ry     beta=0.70
     Davidson diagonalization with overlap
     ethr =  4.51E-10,  avg # of iterations =  2.0

     total cpu time spent up to now is        6.7 secs

     total energy              =    -329.48832275 Ry
     Harris-Foulkes estimate   =    -329.48832276 Ry
     estimated scf accuracy    <       0.00000001 Ry

     iteration #  7     ecut=    30.00 Ry     beta=0.70
     Davidson diagonalization with overlap
     ethr =  2.41E-11,  avg # of iterations =  2.0

     total cpu time spent up to now is        6.9 secs

     total energy              =    -329.48832279 Ry
     Harris-Foulkes estimate   =    -329.48832275 Ry
     estimated scf accuracy    <          3.3E-09 Ry

     iteration #  8     ecut=    30.00 Ry     beta=0.70
     Davidson diagonalization with overlap
     ethr =  5.97E-12,  avg # of iterations =  2.0

     total cpu time spent up to now is        7.2 secs

     total energy              =    -329.48832280 Ry
     Harris-Foulkes estimate   =    -329.48832279 Ry
     estimated scf accuracy    <          1.4E-09 Ry

     iteration #  9     ecut=    30.00 Ry     beta=0.70
     Davidson diagonalization with overlap
     ethr =  2.63E-12,  avg # of iterations =  2.0

     total cpu time spent up to now is        7.3 secs

     End of self-consistent calculation

          k = 0.0000 0.0000 0.0000 ( 22119 PWs)   bands (ev):

    -8.4975  -7.7941  -7.6738  -7.2189  -6.8741  -6.8027  -6.5812  -6.4998
    -6.2831  -6.0994  -5.9148  -5.8017  -5.6923  -5.6302  -5.5050  -5.3754
    -5.2947  -5.2579  -5.2029  -5.1972  -5.1599  -5.1107  -5.0086  -4.9597
    -4.8567  -4.6792  -4.5349  -3.7490  -2.5097  -2.2546  -0.5760  -0.1588
     0.4112   0.8404

     the Fermi energy is    -3.7092 ev

!    total energy              =    -329.48832279 Ry
     Harris-Foulkes estimate   =    -329.48832280 Ry
     estimated scf accuracy    <          1.3E-10 Ry

     The total energy is the sum of the following terms:

     one-electron contribution =    -607.92621210 Ry
     hartree contribution      =     325.39104263 Ry
     xc contribution           =     -51.39280431 Ry
     ewald contribution        =       4.44569518 Ry
     smearing contrib. (-TS)   =      -0.00604419 Ry

     convergence has been achieved in   9 iterations

     Forces acting on atoms (Ry/au):

     atom    1 type  1   force =     0.00756516    0.00306405    0.00314140
     atom    2 type  1   force =    -0.00065110    0.00246847    0.00510834
     atom    3 type  1   force =     0.00033776   -0.00793628   -0.00764413
     atom    4 type  1   force =    -0.00394157   -0.00106063   -0.00033155
     atom    5 type  1   force =    -0.00331025    0.00346440   -0.00027407

     Total force =     0.016445     Total SCF correction =     0.000041

     number of scf cycles    =   3
     number of bfgs steps    =   2

     energy   old            =    -329.4879032926 Ry
     energy   new            =    -329.4883227898 Ry

     CASE: energy  _new < energy  _old

     new trust radius        =       0.0240316373 bohr
     new conv_thr            =       0.0000000004 Ry


ATOMIC_POSITIONS (bohr)
Au      -1.669922144   0.938139526  -0.964218837
Au      -0.778710017   2.533877803   3.901063447
Au       3.130422749   1.901113891   0.520907032
Au       4.062159796   3.329748964   5.768441534
Au       7.788885616   1.879613815   2.493059824



     Writing output data file pwscf.save
     Check: negative starting charge=   -0.006515
     NEW-OLD atomic charge density approx. for the potential
     Check: negative starting charge=   -0.006511

     negative rho (up, down):  9.648E-05 0.000E+00

     total cpu time spent up to now is        7.6 secs

     per-process dynamical memory:    50.5 Mb

     Self-consistent Calculation

     iteration #  1     ecut=    30.00 Ry     beta=0.70
     Davidson diagonalization with overlap
     ethr =  1.00E-06,  avg # of iterations =  4.0

     negative rho (up, down):  8.145E-07 0.000E+00

     total cpu time spent up to now is        7.9 secs

     total energy              =    -329.48880824 Ry
     Harris-Foulkes estimate   =    -329.48881327 Ry
     estimated scf accuracy    <       0.00008165 Ry

     iteration #  2     ecut=    30.00 Ry     beta=0.70
     Davidson diagonalization with overlap
     ethr =  1.48E-07,  avg # of iterations =  2.0

     negative rho (up, down):  9.271E-08 0.000E+00

     total cpu time spent up to now is        8.1 secs

     total energy              =    -329.48880729 Ry
     Harris-Foulkes estimate   =    -329.48886342 Ry
     estimated scf accuracy    <       0.00012443 Ry

     iteration #  3     ecut=    30.00 Ry     beta=0.70
     Davidson diagonalization with overlap
     ethr =  1.48E-07,  avg # of iterations =  2.0

     total cpu time spent up to now is        8.3 secs

     total energy              =    -329.48883448 Ry
     Harris-Foulkes estimate   =    -329.48884255 Ry
     estimated scf accuracy    <       0.00002312 Ry

     iteration #  4     ecut=    30.00 Ry     beta=0.70
     Davidson diagonalization with overlap
     ethr =  4.20E-08,  avg # of iterations =  2.0

     total cpu time spent up to now is        8.5 secs

     total energy              =    -329.48883894 Ry
     Harris-Foulkes estimate   =    -329.48883996 Ry
     estimated scf accuracy    <       0.00000256 Ry

     iteration #  5     ecut=    30.00 Ry     beta=0.70
     Davidson diagonalization with overlap
     ethr =  4.66E-09,  avg # of iterations =  2.0

     total cpu time spent up to now is        8.8 secs

     total energy              =    -329.48883930 Ry
     Harris-Foulkes estimate   =    -329.48883971 Ry
     estimated scf accuracy    <       0.00000061 Ry

     iteration #  6     ecut=    30.00 Ry     beta=0.70
     Davidson diagonalization with overlap
     ethr =  1.11E-09,  avg # of iterations =  2.0

     total cpu time spent up to now is        9.0 secs

     total energy              =    -329.48883938 Ry
     Harris-Foulkes estimate   =    -329.48883944 Ry
     estimated scf accuracy    <       0.00000004 Ry

     iteration #  7     ecut=    30.00 Ry     beta=0.70
     Davidson diagonalization with overlap
     ethr =  6.51E-11,  avg # of iterations =  2.0

     total cpu time spent up to now is        9.2 secs

     total energy              =    -329.48883930 Ry
     Harris-Foulkes estimate   =    -329.48883939 Ry
     estimated scf accuracy    <       0.00000001 Ry

     iteration #  8     ecut=    30.00 Ry     beta=0.70
     Davidson diagonalization with overlap
     ethr =  1.83E-11,  avg # of iterations =  2.0

     total cpu time spent up to now is        9.4 secs

     total energy              =    -329.48883926 Ry
     Harris-Foulkes estimate   =    -329.48883930 Ry
     estimated scf accuracy    <          4.5E-09 Ry

     iteration #  9     ecut=    30.00 Ry     beta=0.70
     Davidson diagonalization with overlap
     ethr =  8.21E-12,  avg # of iterations =  2.0

     total cpu time spent up to now is        9.6 secs

     End of self-consistent calculation

          k = 0.0000 0.0000 0.0000 ( 22119 PWs)   bands (ev):

    -8.5006  -7.7896  -7.6640  -7.2176  -6.8775  -6.8099  -6.5785  -6.4972
    -6.2837  -6.0990  -5.9182  -5.8041  -5.7034  -5.6352  -5.4954  -5.3757
    -5.2962  -5.2568  -5.2032  -5.1979  -5.1620  -5.1135  -5.0035  -4.9565
    -4.8612  -4.6796  -4.5282  -3.7540  -2.5027  -2.2525  -0.5753  -0.1671
     0.4164   0.8453

     the Fermi energy is    -3.7151 ev

!    total energy              =    -329.48883923 Ry
     Harris-Foulkes estimate   =    -329.48883926 Ry
     estimated scf accuracy    <          3.0E-10 Ry

     The total energy is the sum of the following terms:

     one-electron contribution =    -608.08996407 Ry
     hartree contribution      =     325.47308044 Ry
     xc contribution           =     -51.39363076 Ry
     ewald contribution        =       4.52750333 Ry
     smearing contrib. (-TS)   =      -0.00582818 Ry

     convergence has been achieved in   9 iterations

     Forces acting on atoms (Ry/au):

     atom    1 type  1   force =     0.00503512    0.00254505    0.00233609
     atom    2 type  1   force =     0.00016506    0.00217220    0.00400717
     atom    3 type  1   force =     0.00108147   -0.00664170   -0.00506001
     atom    4 type  1   force =    -0.00326115   -0.00115604   -0.00087364
     atom    5 type  1   force =    -0.00302049    0.00308049   -0.00040961

     Total force =     0.012669     Total SCF correction =     0.000061

     number of scf cycles    =   4
     number of bfgs steps    =   3

     energy   old            =    -329.4883227898 Ry
     energy   new            =    -329.4888392329 Ry

     CASE: energy  _new < energy  _old

     new trust radius        =       0.0360474559 bohr
     new conv_thr            =       0.0000000005 Ry


ATOMIC_POSITIONS (bohr)
Au      -1.645924685   0.948467215  -0.953905381
Au      -0.780278260   2.542169303   3.917833959
Au       3.132168029   1.874529666   0.496624279
Au       4.049046717   3.325903175   5.766779733
Au       7.777824199   1.891424640   2.491920410



     Writing output data file pwscf.save
     Check: negative starting charge=   -0.006511
     NEW-OLD atomic charge density approx. for the potential
     Check: negative starting charge=   -0.006507

     negative rho (up, down):  2.687E-04 0.000E+00

     total cpu time spent up to now is        9.8 secs

     per-process dynamical memory:    50.7 Mb

     Self-consistent Calculation

     iteration #  1     ecut=    30.00 Ry     beta=0.70
     Davidson diagonalization with overlap
     ethr =  1.00E-06,  avg # of iterations =  4.0

     negative rho (up, down):  6.094E-06 0.000E+00

     total cpu time spent up to now is       10.2 secs

     total energy              =    -329.48928799 Ry
     Harris-Foulkes estimate   =    -329.48926424 Ry
     estimated scf accuracy    <       0.00018660 Ry

     iteration #  2     ecut=    30.00 Ry     beta=0.70
     Davidson diagonalization with overlap
     ethr =  3.39E-07,  avg # of iterations =  2.0

     negative rho (up, down):  9.078E-07 0.000E+00

     total cpu time spent up to now is       10.4 secs

     total energy              =    -329.48929394 Ry
     Harris-Foulkes estimate   =    -329.48940698 Ry
     estimated scf accuracy    <       0.00024645 Ry

     iteration #  3     ecut=    30.00 Ry     beta=0.70
     Davidson diagonalization with overlap
     ethr =  3.39E-07,  avg # of iterations =  2.0

     negative rho (up, down):  1.651E-08 0.000E+00

     total cpu time spent up to now is       10.6 secs

     total energy              =    -329.48934719 Ry
     Harris-Foulkes estimate   =    -329.48936701 Ry
     estimated scf accuracy    <       0.00005405 Ry

     iteration #  4     ecut=    30.00 Ry     beta=0.70
     Davidson diagonalization with overlap
     ethr =  9.83E-08,  avg # of iterations =  2.0

     total cpu time spent up to now is       10.8 secs

     total energy              =    -329.48935768 Ry
     Harris-Foulkes estimate   =    -329.48936033 Ry
     estimated scf accuracy    <       0.00000645 Ry

     iteration #  5     ecut=    30.00 Ry     beta=0.70
     Davidson diagonalization with overlap
     ethr =  1.17E-08,  avg # of iterations =  2.0

     total cpu time spent up to now is       11.0 secs

     total energy              =    -329.48935838 Ry
     Harris-Foulkes estimate   =    -329.48935947 Ry
     estimated scf accuracy    <       0.00000140 Ry

     iteration #  6     ecut=    30.00 Ry     beta=0.70
     Davidson diagonalization with overlap
     ethr =  2.54E-09,  avg # of iterations =  2.0

     total cpu time spent up to now is       11.2 secs

     total energy              =    -329.48935853 Ry
     Harris-Foulkes estimate   =    -329.48935870 Ry
     estimated scf accuracy    <       0.00000006 Ry

     iteration #  7     ecut=    30.00 Ry     beta=0.70
     Davidson diagonalization with overlap
     ethr =  1.10E-10,  avg # of iterations =  2.0

     total cpu time spent up to now is       11.4 secs

     total energy              =    -329.48935853 Ry
     Harris-Foulkes estimate   =    -329.48935855 Ry
     estimated scf accuracy    <       0.00000001 Ry

     iteration #  8     ecut=    30.00 Ry     beta=0.70
     Davidson diagonalization with overlap
     ethr =  2.04E-11,  avg # of iterations =  2.0

     total cpu time spent up to now is       11.7 secs

     total energy              =    -329.48935848 Ry
     Harris-Foulkes estimate   =    -329.48935854 Ry
     estimated scf accuracy    <          5.3E-09 Ry

     iteration #  9     ecut=    30.00 Ry     beta=0.70
     Davidson diagonalization with overlap
     ethr =  9.65E-12,  avg # of iterations =  2.0

     total cpu time spent up to now is       11.9 secs

     total energy              =    -329.48935849 Ry
     Harris-Foulkes estimate   =    -329.48935848 Ry
     estimated scf accuracy    <          9.7E-10 Ry

     iteration # 10     ecut=    30.00 Ry     beta=0.70
     Davidson diagonalization with overlap
     ethr =  1.77E-12,  avg # of iterations =  2.0

     total cpu time spent up to now is       12.1 secs

     End of self-consistent calculation

          k = 0.0000 0.0000 0.0000 ( 22119 PWs)   bands (ev):

    -8.5072  -7.7850  -7.6541  -7.2157  -6.8850  -6.8220  -6.5782  -6.4916
    -6.2858  -6.0975  -5.9245  -5.8066  -5.7198  -5.6419  -5.4788  -5.3767
    -5.3000  -5.2531  -5.2056  -5.1967  -5.1650  -5.1168  -4.9950  -4.9506
    -4.8666  -4.6811  -4.5164  -3.7623  -2.4915  -2.2478  -0.5746  -0.1794
     0.4248   0.8535

     the Fermi energy is    -3.7249 ev

!    total energy              =    -329.48935849 Ry
     Harris-Foulkes estimate   =    -329.48935849 Ry
     estimated scf accuracy    <          1.3E-10 Ry

     The total energy is the sum of the following terms:

     one-electron contribution =    -608.43483421 Ry
     hartree contribution      =     325.64572993 Ry
     xc contribution           =     -51.39561873 Ry
     ewald contribution        =       4.70079031 Ry
     smearing contrib. (-TS)   =      -0.00542579 Ry

     convergence has been achieved in  10 iterations

     Forces acting on atoms (Ry/au):

     atom    1 type  1   force =     0.00121529    0.00185732    0.00121974
     atom    2 type  1   force =     0.00080967    0.00144016    0.00216221
     atom    3 type  1   force =     0.00246422   -0.00478628   -0.00143687
     atom    4 type  1   force =    -0.00216484   -0.00120838   -0.00141042
     atom    5 type  1   force =    -0.00232434    0.00269717   -0.00053466

     Total force =     0.008122     Total SCF correction =     0.000057

     number of scf cycles    =   5
     number of bfgs steps    =   4

     energy   old            =    -329.4888392329 Ry
     energy   new            =    -329.4893584866 Ry

     CASE: energy  _new < energy  _old

     new trust radius        =       0.0459095469 bohr
     new conv_thr            =       0.0000000005 Ry


ATOMIC_POSITIONS (bohr)
Au      -1.618810210   0.962481043  -0.940979648
Au      -0.780889597   2.553086715   3.938888734
Au       3.138200597   1.838615332   0.468669759
Au       4.031744506   3.319880108   5.762824421
Au       7.762590704   1.908430802   2.489849734



     Writing output data file pwscf.save
     Check: negative starting charge=   -0.006507
     NEW-OLD atomic charge density approx. for the potential
     Check: negative starting charge=   -0.006501

     negative rho (up, down):  4.559E-04 0.000E+00

     total cpu time spent up to now is       12.3 secs

     per-process dynamical memory:    50.7 Mb

     Self-consistent Calculation

     iteration #  1     ecut=    30.00 Ry     beta=0.70
     Davidson diagonalization with overlap
     ethr =  1.00E-06,  avg # of iterations =  6.0

     negative rho (up, down):  1.617E-05 0.000E+00

     total cpu time spent up to now is       12.7 secs

     total energy              =    -329.48953443 Ry
     Harris-Foulkes estimate   =    -329.48942749 Ry
     estimated scf accuracy    <       0.00031476 Ry

     iteration #  2     ecut=    30.00 Ry     beta=0.70
     Davidson diagonalization with overlap
     ethr =  5.72E-07,  avg # of iterations =  4.0

     negative rho (up, down):  2.832E-06 0.000E+00

     total cpu time spent up to now is       12.9 secs

     total energy              =    -329.48955877 Ry
     Harris-Foulkes estimate   =    -329.48972274 Ry
     estimated scf accuracy    <       0.00034868 Ry

     iteration #  3     ecut=    30.00 Ry     beta=0.70
     Davidson diagonalization with overlap
     ethr =  5.72E-07,  avg # of iterations =  2.0

     negative rho (up, down):  6.923E-08 0.000E+00

     total cpu time spent up to now is       13.1 secs

     total energy              =    -329.48963295 Ry
     Harris-Foulkes estimate   =    -329.48966542 Ry
     estimated scf accuracy    <       0.00008679 Ry

     iteration #  4     ecut=    30.00 Ry     beta=0.70
     Davidson diagonalization with overlap
     ethr =  1.58E-07,  avg # of iterations =  2.0

     total cpu time spent up to now is       13.4 secs

     total energy              =    -329.48965088 Ry
     Harris-Foulkes estimate   =    -329.48965539 Ry
     estimated scf accuracy    <       0.00001269 Ry

     iteration #  5     ecut=    30.00 Ry     beta=0.70
     Davidson diagonalization with overlap
     ethr =  2.31E-08,  avg # of iterations =  2.0

     total cpu time spent up to now is       13.6 secs

     total energy              =    -329.48965277 Ry
     Harris-Foulkes estimate   =    -329.48965411 Ry
     estimated scf accuracy    <       0.00000245 Ry

     iteration #  6     ecut=    30.00 Ry     beta=0.70
     Davidson diagonalization with overlap
     ethr =  4.45E-09,  avg # of iterations =  2.0

     total cpu time spent up to now is       13.8 secs

     total energy              =    -329.48965285 Ry
     Harris-Foulkes estimate   =    -329.48965330 Ry
     estimated scf accuracy    <       0.00000008 Ry

     iteration #  7     ecut=    30.00 Ry     beta=0.70
     Davidson diagonalization with overlap
     ethr =  1.51E-10,  avg # of iterations =  3.0

     total cpu time spent up to now is       14.0 secs

     total energy              =    -329.48965278 Ry
     Harris-Foulkes estimate   =    -329.48965289 Ry
     estimated scf accuracy    <       0.00000003 Ry

     iteration #  8     ecut=    30.00 Ry     beta=0.70
     Davidson diagonalization with overlap
     ethr =  5.96E-11,  avg # of iterations =  2.0

     total cpu time spent up to now is       14.2 secs

     total energy              =    -329.48965275 Ry
     Harris-Foulkes estimate   =    -329.48965279 Ry
     estimated scf accuracy    <       0.00000002 Ry

     iteration #  9     ecut=    30.00 Ry     beta=0.70
     Davidson diagonalization with overlap
     ethr =  2.78E-11,  avg # of iterations =  2.0

     total cpu time spent up to now is       14.4 secs

     total energy              =    -329.48965266 Ry
     Harris-Foulkes estimate   =    -329.48965276 Ry
     estimated scf accuracy    <          6.1E-10 Ry

     iteration # 10     ecut=    30.00 Ry     beta=0.70
     Davidson diagonalization with overlap
     ethr =  1.11E-12,  avg # of iterations =  3.0

     total cpu time spent up to now is       14.6 secs

     End of self-consistent calculation

          k = 0.0000 0.0000 0.0000 ( 22119 PWs)   bands (ev):

    -8.5172  -7.7815  -7.6486  -7.2133  -6.8982  -6.8371  -6.5824  -6.4834
    -6.2901  -6.0944  -5.9343  -5.8071  -5.7389  -5.6493  -5.4554  -5.3786
    -5.3065  -5.2460  -5.2090  -5.1946  -5.1677  -5.1201  -4.9831  -4.9410
    -4.8710  -4.6842  -4.4989  -3.7735  -2.4768  -2.2394  -0.5741  -0.1946
     0.4365   0.8652

     the Fermi energy is    -3.7389 ev

!    total energy              =    -329.48965265 Ry
     Harris-Foulkes estimate   =    -329.48965266 Ry
     estimated scf accuracy    <          3.0E-10 Ry

     The total energy is the sum of the following terms:

     one-electron contribution =    -608.99906996 Ry
     hartree contribution      =     325.92860264 Ry
     xc contribution           =     -51.39929149 Ry
     ewald contribution        =       4.98487173 Ry
     smearing contrib. (-TS)   =      -0.00476556 Ry

     convergence has been achieved in  10 iterations

     Forces acting on atoms (Ry/au):

     atom    1 type  1   force =    -0.00326416    0.00137011    0.00019430
     atom    2 type  1   force =     0.00073466    0.00026706   -0.00046454
     atom    3 type  1   force =     0.00427213   -0.00346557    0.00199559
     atom    4 type  1   force =    -0.00082342   -0.00090425   -0.00143883
     atom    5 type  1   force =    -0.00091921    0.00273266   -0.00028652

     Total force =     0.007720     Total SCF correction =     0.000071

     number of scf cycles    =   6
     number of bfgs steps    =   5

     energy   old            =    -329.4893584866 Ry
     energy   new            =    -329.4896526457 Ry

     CASE: energy  _new < energy  _old

     new trust radius        =       0.0188585327 bohr
     new conv_thr            =       0.0000000003 Ry


ATOMIC_POSITIONS (bohr)
Au      -1.613230609   0.968765269  -0.936334030
Au      -0.780593895   2.556910125   3.945320363
Au       3.144870794   1.822628481   0.461215008
Au       4.025079996   3.316964826   5.760123930
Au       7.756709714   1.917225300   2.488927730



     Writing output data file pwscf.save
     Check: negative starting charge=   -0.006501
     NEW-OLD atomic charge density approx. for the potential
     Check: negative starting charge=   -0.006499

     negative rho (up, down):  4.386E-05 0.000E+00

     total cpu time spent up to now is       14.9 secs

     per-process dynamical memory:    50.7 Mb

     Self-consistent Calculation

     iteration #  1     ecut=    30.00 Ry     beta=0.70
     Davidson diagonalization with overlap
     ethr =  1.00E-06,  avg # of iterations =  4.0

     negative rho (up, down):  1.356E-07 0.000E+00

     total cpu time spent up to now is       15.2 secs

     total energy              =    -329.48971706 Ry
     Harris-Foulkes estimate   =    -329.48973481 Ry
     estimated scf accuracy    <       0.00005662 Ry

     iteration #  2     ecut=    30.00 Ry     beta=0.70
     Davidson diagonalization with overlap
     ethr =  1.03E-07,  avg # of iterations =  2.0

     total cpu time spent up to now is       15.4 secs

     total energy              =    -329.48972325 Ry
     Harris-Foulkes estimate   =    -329.48974961 Ry
     estimated scf accuracy    <       0.00005291 Ry

     iteration #  3     ecut=    30.00 Ry     beta=0.70
     Davidson diagonalization with overlap
     ethr =  9.62E-08,  avg # of iterations =  2.0

     total cpu time spent up to now is       15.6 secs

     total energy              =    -329.48973303 Ry
     Harris-Foulkes estimate   =    -329.48973899 Ry
     estimated scf accuracy    <       0.00001311 Ry

     iteration #  4     ecut=    30.00 Ry     beta=0.70
     Davidson diagonalization with overlap
     ethr =  2.38E-08,  avg # of iterations =  2.0

     total cpu time spent up to now is       15.8 secs

     total energy              =    -329.48973542 Ry
     Harris-Foulkes estimate   =    -329.48973684 Ry
     estimated scf accuracy    <       0.00000278 Ry

     iteration #  5     ecut=    30.00 Ry     beta=0.70
     Davidson diagonalization with overlap
     ethr =  5.05E-09,  avg # of iterations =  2.0

     total cpu time spent up to now is       16.0 secs

     total energy              =    -329.48973557 Ry
     Harris-Foulkes estimate   =    -329.48973606 Ry
     estimated scf accuracy    <       0.00000047 Ry

     iteration #  6     ecut=    30.00 Ry     beta=0.70
     Davidson diagonalization with overlap
     ethr =  8.57E-10,  avg # of iterations =  2.0

     total cpu time spent up to now is       16.2 secs

     total energy              =    -329.48973551 Ry
     Harris-Foulkes estimate   =    -329.48973567 Ry
     estimated scf accuracy    <       0.00000002 Ry

     iteration #  7     ecut=    30.00 Ry     beta=0.70
     Davidson diagonalization with overlap
     ethr =  2.98E-11,  avg # of iterations =  3.0

     total cpu time spent up to now is       16.5 secs

     total energy              =    -329.48973537 Ry
     Harris-Foulkes estimate   =    -329.48973552 Ry
     estimated scf accuracy    <       0.00000001 Ry

     iteration #  8     ecut=    30.00 Ry     beta=0.70
     Davidson diagonalization with overlap
     ethr =  2.00E-11,  avg # of iterations =  2.0

     total cpu time spent up to now is       16.7 secs

     total energy              =    -329.48973542 Ry
     Harris-Foulkes estimate   =    -329.48973537 Ry
     estimated scf accuracy    <          1.6E-09 Ry

     iteration #  9     ecut=    30.00 Ry     beta=0.70
     Davidson diagonalization with overlap
     ethr =  2.95E-12,  avg # of iterations =  2.0

     total cpu time spent up to now is       16.9 secs

     End of self-consistent calculation

          k = 0.0000 0.0000 0.0000 ( 22119 PWs)   bands (ev):

    -8.5201  -7.7812  -7.6489  -7.2139  -6.9040  -6.8405  -6.5861  -6.4815
    -6.2929  -6.0925  -5.9393  -5.8051  -5.7440  -5.6521  -5.4475  -5.3793
    -5.3094  -5.2429  -5.2100  -5.1948  -5.1673  -5.1213  -4.9795  -4.9366
    -4.8717  -4.6863  -4.4919  -3.7774  -2.4724  -2.2348  -0.5741  -0.1997
     0.4409   0.8701

     the Fermi energy is    -3.7440 ev

!    total energy              =    -329.48973545 Ry
     Harris-Foulkes estimate   =    -329.48973542 Ry
     estimated scf accuracy    <          1.1E-10 Ry

     The total energy is the sum of the following terms:

     one-electron contribution =    -609.24634639 Ry
     hartree contribution      =     326.05253996 Ry
     xc contribution           =     -51.40091247 Ry
     ewald contribution        =       5.10947535 Ry
     smearing contrib. (-TS)   =      -0.00449190 Ry

     convergence has been achieved in   9 iterations

     Forces acting on atoms (Ry/au):

     atom    1 type  1   force =    -0.00392969    0.00142537    0.00016547
     atom    2 type  1   force =     0.00052260   -0.00016588   -0.00150494
     atom    3 type  1   force =     0.00351537   -0.00342227    0.00248236
     atom    4 type  1   force =    -0.00040689   -0.00062570   -0.00110726
     atom    5 type  1   force =     0.00029860    0.00278848   -0.00003563

     Total force =     0.007743     Total SCF correction =     0.000050

     number of scf cycles    =   7
     number of bfgs steps    =   6

     energy   old            =    -329.4896526457 Ry
     energy   new            =    -329.4897354546 Ry

     CASE: energy  _new < energy  _old

     new trust radius        =       0.0207443860 bohr
     new conv_thr            =            1.0E-10 Ry


ATOMIC_POSITIONS (bohr)
Au      -1.611059208   0.975986242  -0.931686296
Au      -0.780074767   2.560262130   3.949912411
Au       3.153583274   1.804532273   0.456023719
Au       4.018511605   3.313810399   5.756867432
Au       7.751875095   1.927902957   2.488135735



     Writing output data file pwscf.save
     Check: negative starting charge=   -0.006499
     NEW-OLD atomic charge density approx. for the potential
     Check: negative starting charge=   -0.006497

     negative rho (up, down):  5.360E-05 0.000E+00

     total cpu time spent up to now is       17.2 secs

     per-process dynamical memory:    50.7 Mb

     Self-consistent Calculation

     iteration #  1     ecut=    30.00 Ry     beta=0.70
     Davidson diagonalization with overlap
     ethr =  1.00E-06,  avg # of iterations =  4.0

     negative rho (up, down):  2.015E-07 0.000E+00

     total cpu time spent up to now is       17.5 secs

     total energy              =    -329.48980966 Ry
     Harris-Foulkes estimate   =    -329.48983442 Ry
     estimated scf accuracy    <       0.00007085 Ry

     iteration #  2     ecut=    30.00 Ry     beta=0.70
     Davidson diagonalization with overlap
     ethr =  1.29E-07,  avg # of iterations =  2.0

     total cpu time spent up to now is       17.7 secs

     total energy              =    -329.48981939 Ry
     Harris-Foulkes estimate   =    -329.48985025 Ry
     estimated scf accuracy    <       0.00006160 Ry

     iteration #  3     ecut=    30.00 Ry     beta=0.70
     Davidson diagonalization with overlap
     ethr =  1.12E-07,  avg # of iterations =  2.0

     total cpu time spent up to now is       17.9 secs

     total energy              =    -329.48983057 Ry
     Harris-Foulkes estimate   =    -329.48983698 Ry
     estimated scf accuracy    <       0.00001399 Ry

     iteration #  4     ecut=    30.00 Ry     beta=0.70
     Davidson diagonalization with overlap
     ethr =  2.54E-08,  avg # of iterations =  2.0

     total cpu time spent up to now is       18.1 secs

     total energy              =    -329.48983281 Ry
     Harris-Foulkes estimate   =    -329.48983503 Ry
     estimated scf accuracy    <       0.00000386 Ry

     iteration #  5     ecut=    30.00 Ry     beta=0.70
     Davidson diagonalization with overlap
     ethr =  7.02E-09,  avg # of iterations =  2.0

     total cpu time spent up to now is       18.3 secs

     total energy              =    -329.48983308 Ry
     Harris-Foulkes estimate   =    -329.48983357 Ry
     estimated scf accuracy    <       0.00000037 Ry

     iteration #  6     ecut=    30.00 Ry     beta=0.70
     Davidson diagonalization with overlap
     ethr =  6.81E-10,  avg # of iterations =  2.0

     total cpu time spent up to now is       18.5 secs

     total energy              =    -329.48983313 Ry
     Harris-Foulkes estimate   =    -329.48983317 Ry
     estimated scf accuracy    <       0.00000002 Ry

     iteration #  7     ecut=    30.00 Ry     beta=0.70
     Davidson diagonalization with overlap
     ethr =  3.44E-11,  avg # of iterations =  2.0

     total cpu time spent up to now is       18.8 secs

     total energy              =    -329.48983305 Ry
     Harris-Foulkes estimate   =    -329.48983314 Ry
     estimated scf accuracy    <       0.00000001 Ry

     iteration #  8     ecut=    30.00 Ry     beta=0.70
     Davidson diagonalization with overlap
     ethr =  1.91E-11,  avg # of iterations =  2.0

     total cpu time spent up to now is       19.0 secs

     total energy              =    -329.48983308 Ry
     Harris-Foulkes estimate   =    -329.48983306 Ry
     estimated scf accuracy    <          2.1E-09 Ry

     iteration #  9     ecut=    30.00 Ry     beta=0.70
     Davidson diagonalization with overlap
     ethr =  3.74E-12,  avg # of iterations =  2.0

     total cpu time spent up to now is       19.2 secs

     End of self-consistent calculation

          k = 0.0000 0.0000 0.0000 ( 22119 PWs)   bands (ev):

    -8.5220  -7.7814  -7.6503  -7.2159  -6.9098  -6.8420  -6.5908  -6.4803
    -6.2964  -6.0901  -5.9448  -5.8016  -5.7475  -5.6552  -5.4408  -5.3799
    -5.3123  -5.2398  -5.2106  -5.1956  -5.1662  -5.1225  -4.9770  -4.9318
    -4.8721  -4.6886  -4.4852  -3.7808  -2.4695  -2.2296  -0.5743  -0.2039
     0.4450   0.8753

     the Fermi energy is    -3.7485 ev

!    total energy              =    -329.48983310 Ry
     Harris-Foulkes estimate   =    -329.48983308 Ry
     estimated scf accuracy    <          9.5E-11 Ry

     The total energy is the sum of the following terms:

     one-electron contribution =    -609.49333590 Ry
     hartree contribution      =     326.17614692 Ry
     xc contribution           =     -51.40250720 Ry
     ewald contribution        =       5.23409519 Ry
     smearing contrib. (-TS)   =      -0.00423211 Ry

     convergence has been achieved in   9 iterations

     Forces acting on atoms (Ry/au):

     atom    1 type  1   force =    -0.00396334    0.00158472    0.00025330
     atom    2 type  1   force =     0.00025128   -0.00051714   -0.00239557
     atom    3 type  1   force =     0.00200549   -0.00359571    0.00256786
     atom    4 type  1   force =    -0.00004460   -0.00030493   -0.00066902
     atom    5 type  1   force =     0.00175116    0.00283305    0.00024342

     Total force =     0.007720     Total SCF correction =     0.000040

     number of scf cycles    =   8
     number of bfgs steps    =   7

     energy   old            =    -329.4897354546 Ry
     energy   new            =    -329.4898331017 Ry

     CASE: energy  _new < energy  _old

     new trust radius        =       0.0311165789 bohr
     new conv_thr            =            1.0E-10 Ry


ATOMIC_POSITIONS (bohr)
Au      -1.610953670   0.987268280  -0.925015354
Au      -0.779285762   2.564382731   3.954125710
Au       3.166376092   1.776657782   0.450770334
Au       4.009534321   3.309343194   5.752041229
Au       7.747165020   1.944842013   2.487331081



     Writing output data file pwscf.save
     Check: negative starting charge=   -0.006497
     NEW-OLD atomic charge density approx. for the potential
     Check: negative starting charge=   -0.006496

     negative rho (up, down):  1.620E-04 0.000E+00

     total cpu time spent up to now is       19.4 secs

     per-process dynamical memory:    50.7 Mb

     Self-consistent Calculation

     iteration #  1     ecut=    30.00 Ry     beta=0.70
     Davidson diagonalization with overlap
     ethr =  1.00E-06,  avg # of iterations =  4.0

     negative rho (up, down):  2.014E-06 0.000E+00

     total cpu time spent up to now is       19.8 secs

     total energy              =    -329.48991784 Ry
     Harris-Foulkes estimate   =    -329.48996305 Ry
     estimated scf accuracy    <       0.00016520 Ry

     iteration #  2     ecut=    30.00 Ry     beta=0.70
     Davidson diagonalization with overlap
     ethr =  3.00E-07,  avg # of iterations =  2.0

     negative rho (up, down):  1.103E-07 0.000E+00

     total cpu time spent up to now is       20.0 secs

     total energy              =    -329.48994649 Ry
     Harris-Foulkes estimate   =    -329.49001109 Ry
     estimated scf accuracy    <       0.00013123 Ry

     iteration #  3     ecut=    30.00 Ry     beta=0.70
     Davidson diagonalization with overlap
     ethr =  2.39E-07,  avg # of iterations =  2.0

     total cpu time spent up to now is       20.2 secs

     total energy              =    -329.48997040 Ry
     Harris-Foulkes estimate   =    -329.48998164 Ry
     estimated scf accuracy    <       0.00002321 Ry

     iteration #  4     ecut=    30.00 Ry     beta=0.70
     Davidson diagonalization with overlap
     ethr =  4.22E-08,  avg # of iterations =  2.0

     total cpu time spent up to now is       20.4 secs

     total energy              =    -329.48997424 Ry
     Harris-Foulkes estimate   =    -329.48997951 Ry
     estimated scf accuracy    <       0.00001105 Ry

     iteration #  5     ecut=    30.00 Ry     beta=0.70
     Davidson diagonalization with overlap
     ethr =  2.01E-08,  avg # of iterations =  2.0

     total cpu time spent up to now is       20.6 secs

     total energy              =    -329.48997579 Ry
     Harris-Foulkes estimate   =    -329.48997616 Ry
     estimated scf accuracy    <       0.00000062 Ry

     iteration #  6     ecut=    30.00 Ry     beta=0.70
     Davidson diagonalization with overlap
     ethr =  1.13E-09,  avg # of iterations =  2.0

     total cpu time spent up to now is       20.8 secs

     total energy              =    -329.48997590 Ry
     Harris-Foulkes estimate   =    -329.48997598 Ry
     estimated scf accuracy    <       0.00000005 Ry

     iteration #  7     ecut=    30.00 Ry     beta=0.70
     Davidson diagonalization with overlap
     ethr =  8.78E-11,  avg # of iterations =  2.0

     total cpu time spent up to now is       21.0 secs

     total energy              =    -329.48997592 Ry
     Harris-Foulkes estimate   =    -329.48997592 Ry
     estimated scf accuracy    <       0.00000002 Ry

     iteration #  8     ecut=    30.00 Ry     beta=0.70
     Davidson diagonalization with overlap
     ethr =  3.39E-11,  avg # of iterations =  2.0

     total cpu time spent up to now is       21.2 secs

     total energy              =    -329.48997588 Ry
     Harris-Foulkes estimate   =    -329.48997592 Ry
     estimated scf accuracy    <          4.2E-09 Ry

     iteration #  9     ecut=    30.00 Ry     beta=0.70
     Davidson diagonalization with overlap
     ethr =  7.62E-12,  avg # of iterations =  2.0

     total cpu time spent up to now is       21.4 secs

     total energy              =    -329.48997590 Ry
     Harris-Foulkes estimate   =    -329.48997588 Ry
     estimated scf accuracy    <          1.9E-10 Ry

     iteration # 10     ecut=    30.00 Ry     beta=0.70
     Davidson diagonalization with overlap
     ethr =  3.37E-13,  avg # of iterations =  2.0

     total cpu time spent up to now is       21.6 secs

     End of self-consistent calculation

          k = 0.0000 0.0000 0.0000 ( 22119 PWs)   bands (ev):

    -8.5233  -7.7818  -7.6531  -7.2194  -6.9175  -6.8425  -6.5983  -6.4791
    -6.3015  -6.0860  -5.9527  -5.7957  -5.7507  -5.6597  -5.4328  -5.3810
    -5.3161  -5.2353  -5.2110  -5.1970  -5.1646  -5.1242  -4.9753  -4.9249
    -4.8726  -4.6918  -4.4764  -3.7846  -2.4672  -2.2218  -0.5747  -0.2090
     0.4505   0.8825

     the Fermi energy is    -3.7539 ev

!    total energy              =    -329.48997590 Ry
     Harris-Foulkes estimate   =    -329.48997590 Ry
     estimated scf accuracy    <          2.3E-11 Ry

     The total energy is the sum of the following terms:

     one-electron contribution =    -609.81392762 Ry
     hartree contribution      =     326.33659979 Ry
     xc contribution           =     -51.40465075 Ry
     ewald contribution        =       5.39589275 Ry
     smearing contrib. (-TS)   =      -0.00389007 Ry

     convergence has been achieved in  10 iterations

     Forces acting on atoms (Ry/au):

     atom    1 type  1   force =    -0.00364641    0.00181057    0.00033686
     atom    2 type  1   force =    -0.00019102   -0.00089865   -0.00335407
     atom    3 type  1   force =    -0.00030953   -0.00390133    0.00250253
     atom    4 type  1   force =     0.00044977    0.00011242   -0.00007876
     atom    5 type  1   force =     0.00369720    0.00287699    0.00059344

     Total force =     0.008537     Total SCF correction =     0.000024

     number of scf cycles    =   9
     number of bfgs steps    =   8

     energy   old            =    -329.4898331017 Ry
     energy   new            =    -329.4899758961 Ry

     CASE: energy  _new < energy  _old

     new trust radius        =       0.0466748684 bohr
     new conv_thr            =       0.0000000001 Ry


ATOMIC_POSITIONS (bohr)
Au      -1.613649597   1.004779149  -0.915344472
Au      -0.778318707   2.569577018   3.957529047
Au       3.184139936   1.733832129   0.445389569
Au       3.997178346   3.303046237   5.745053620
Au       7.743486022   1.971259467   2.486625236



     Writing output data file pwscf.save
     Check: negative starting charge=   -0.006496
     NEW-OLD atomic charge density approx. for the potential
     Check: negative starting charge=   -0.006501

     negative rho (up, down):  4.023E-04 0.000E+00

     total cpu time spent up to now is       21.9 secs

     per-process dynamical memory:    50.7 Mb

     Self-consistent Calculation

     iteration #  1     ecut=    30.00 Ry     beta=0.70
     Davidson diagonalization with overlap
     ethr =  1.00E-06,  avg # of iterations =  6.0

     negative rho (up, down):  1.198E-05 0.000E+00

     total cpu time spent up to now is       22.2 secs

     total energy              =    -329.49002556 Ry
     Harris-Foulkes estimate   =    -329.49005585 Ry
     estimated scf accuracy    <       0.00038474 Ry

     iteration #  2     ecut=    30.00 Ry     beta=0.70
     Davidson diagonalization with overlap
     ethr =  7.00E-07,  avg # of iterations =  5.0

     negative rho (up, down):  1.254E-06 0.000E+00

     total cpu time spent up to now is       22.5 secs

     total energy              =    -329.49010147 Ry
     Harris-Foulkes estimate   =    -329.49024051 Ry
     estimated scf accuracy    <       0.00028356 Ry

     iteration #  3     ecut=    30.00 Ry     beta=0.70
     Davidson diagonalization with overlap
     ethr =  5.16E-07,  avg # of iterations =  2.0

     negative rho (up, down):  1.396E-08 0.000E+00

     total cpu time spent up to now is       22.7 secs

     total energy              =    -329.49015580 Ry
     Harris-Foulkes estimate   =    -329.49017173 Ry
     estimated scf accuracy    <       0.00003283 Ry

     iteration #  4     ecut=    30.00 Ry     beta=0.70
     Davidson diagonalization with overlap
     ethr =  5.97E-08,  avg # of iterations =  2.0

     total cpu time spent up to now is       22.9 secs

     total energy              =    -329.49016198 Ry
     Harris-Foulkes estimate   =    -329.49017348 Ry
     estimated scf accuracy    <       0.00003199 Ry

     iteration #  5     ecut=    30.00 Ry     beta=0.70
     Davidson diagonalization with overlap
     ethr =  5.82E-08,  avg # of iterations =  2.0

     total cpu time spent up to now is       23.1 secs

     total energy              =    -329.49016654 Ry
     Harris-Foulkes estimate   =    -329.49016726 Ry
     estimated scf accuracy    <       0.00000105 Ry

     iteration #  6     ecut=    30.00 Ry     beta=0.70
     Davidson diagonalization with overlap
     ethr =  1.91E-09,  avg # of iterations =  3.0

     total cpu time spent up to now is       23.4 secs

     total energy              =    -329.49016663 Ry
     Harris-Foulkes estimate   =    -329.49016695 Ry
     estimated scf accuracy    <       0.00000015 Ry

     iteration #  7     ecut=    30.00 Ry     beta=0.70
     Davidson diagonalization with overlap
     ethr =  2.66E-10,  avg # of iterations =  2.0

     total cpu time spent up to now is       23.6 secs

     total energy              =    -329.49016652 Ry
     Harris-Foulkes estimate   =    -329.49016668 Ry
     estimated scf accuracy    <       0.00000004 Ry

     iteration #  8     ecut=    30.00 Ry     beta=0.70
     Davidson diagonalization with overlap
     ethr =  7.44E-11,  avg # of iterations =  2.0

     total cpu time spent up to now is       23.8 secs

     total energy              =    -329.49016653 Ry
     Harris-Foulkes estimate   =    -329.49016653 Ry
     estimated scf accuracy    <       0.00000001 Ry

     iteration #  9     ecut=    30.00 Ry     beta=0.70
     Davidson diagonalization with overlap
     ethr =  2.15E-11,  avg # of iterations =  2.0

     total cpu time spent up to now is       24.0 secs

     total energy              =    -329.49016655 Ry
     Harris-Foulkes estimate   =    -329.49016653 Ry
     estimated scf accuracy    <          5.6E-10 Ry

     iteration # 10     ecut=    30.00 Ry     beta=0.70
     Davidson diagonalization with overlap
     ethr =  1.01E-12,  avg # of iterations =  2.0

     total cpu time spent up to now is       24.2 secs

     End of self-consistent calculation

          k = 0.0000 0.0000 0.0000 ( 22119 PWs)   bands (ev):

    -8.5229  -7.7818  -7.6575  -7.2246  -6.9277  -6.8411  -6.6094  -6.4776
    -6.3087  -6.0789  -5.9637  -5.7871  -5.7522  -5.6663  -5.4227  -5.3831
    -5.3209  -5.2287  -5.2108  -5.1988  -5.1625  -5.1266  -4.9754  -4.9149
    -4.8726  -4.6962  -4.4645  -3.7891  -2.4665  -2.2104  -0.5752  -0.2151
     0.4576   0.8927

     the Fermi energy is    -3.7605 ev

!    total energy              =    -329.49016653 Ry
     Harris-Foulkes estimate   =    -329.49016655 Ry
     estimated scf accuracy    <          8.7E-11 Ry

     The total energy is the sum of the following terms:

     one-electron contribution =    -610.20399198 Ry
     hartree contribution      =     326.53225206 Ry
     xc contribution           =     -51.40750574 Ry
     ewald contribution        =       5.59250801 Ry
     smearing contrib. (-TS)   =      -0.00342888 Ry

     convergence has been achieved in  10 iterations

     Forces acting on atoms (Ry/au):

     atom    1 type  1   force =    -0.00297946    0.00192358    0.00028383
     atom    2 type  1   force =    -0.00093644   -0.00138988   -0.00432964
     atom    3 type  1   force =    -0.00339435   -0.00387167    0.00240996
     atom    4 type  1   force =     0.00118472    0.00052955    0.00062735
     atom    5 type  1   force =     0.00612553    0.00280841    0.00100850

     Total force =     0.010725     Total SCF correction =     0.000048

     number of scf cycles    =  10
     number of bfgs steps    =   9

     energy   old            =    -329.4899758961 Ry
     energy   new            =    -329.4901665301 Ry

     CASE: energy  _new < energy  _old

     new trust radius        =       0.0700123026 bohr
     new conv_thr            =       0.0000000002 Ry


ATOMIC_POSITIONS (bohr)
Au      -1.623950779   1.031920013  -0.901945720
Au      -0.777481267   2.575285191   3.956927101
Au       3.208629449   1.668284037   0.443058498
Au       3.981110460   3.294077323   5.734746121
Au       7.744528137   2.012927436   2.486467000



     Writing output data file pwscf.save
     Check: negative starting charge=   -0.006501
     NEW-OLD atomic charge density approx. for the potential
     Check: negative starting charge=   -0.006512

     negative rho (up, down):  8.601E-04 0.000E+00

     total cpu time spent up to now is       24.4 secs

     per-process dynamical memory:    50.7 Mb

     Self-consistent Calculation

     iteration #  1     ecut=    30.00 Ry     beta=0.70
     Davidson diagonalization with overlap
     ethr =  1.00E-06,  avg # of iterations = 14.0

     negative rho (up, down):  4.854E-05 0.000E+00

     total cpu time spent up to now is       24.9 secs

     total energy              =    -329.49002065 Ry
     Harris-Foulkes estimate   =    -329.48987072 Ry
     estimated scf accuracy    <       0.00091283 Ry

     iteration #  2     ecut=    30.00 Ry     beta=0.70
     Davidson diagonalization with overlap
     ethr =  1.66E-06,  avg # of iterations =  7.0

     negative rho (up, down):  8.179E-06 0.000E+00

     total cpu time spent up to now is       25.2 secs

     total energy              =    -329.49021776 Ry
     Harris-Foulkes estimate   =    -329.49052515 Ry
     estimated scf accuracy    <       0.00063915 Ry

     iteration #  3     ecut=    30.00 Ry     beta=0.70
     Davidson diagonalization with overlap
     ethr =  1.16E-06,  avg # of iterations =  2.0

     negative rho (up, down):  3.739E-08 0.000E+00

     total cpu time spent up to now is       25.4 secs

     total energy              =    -329.49034644 Ry
     Harris-Foulkes estimate   =    -329.49036402 Ry
     estimated scf accuracy    <       0.00003896 Ry

     iteration #  4     ecut=    30.00 Ry     beta=0.70
     Davidson diagonalization with overlap
     ethr =  7.08E-08,  avg # of iterations =  3.0

     total cpu time spent up to now is       25.6 secs

     total energy              =    -329.49035001 Ry
     Harris-Foulkes estimate   =    -329.49037740 Ry
     estimated scf accuracy    <       0.00007998 Ry

     iteration #  5     ecut=    30.00 Ry     beta=0.70
     Davidson diagonalization with overlap
     ethr =  7.08E-08,  avg # of iterations =  2.0

     total cpu time spent up to now is       25.8 secs

     total energy              =    -329.49036243 Ry
     Harris-Foulkes estimate   =    -329.49036315 Ry
     estimated scf accuracy    <       0.00000159 Ry

     iteration #  6     ecut=    30.00 Ry     beta=0.70
     Davidson diagonalization with overlap
     ethr =  2.89E-09,  avg # of iterations =  3.0

     total cpu time spent up to now is       26.0 secs

     total energy              =    -329.49036251 Ry
     Harris-Foulkes estimate   =    -329.49036297 Ry
     estimated scf accuracy    <       0.00000032 Ry

     iteration #  7     ecut=    30.00 Ry     beta=0.70
     Davidson diagonalization with overlap
     ethr =  5.80E-10,  avg # of iterations =  2.0

     total cpu time spent up to now is       26.3 secs

     total energy              =    -329.49036255 Ry
     Harris-Foulkes estimate   =    -329.49036260 Ry
     estimated scf accuracy    <       0.00000008 Ry

     iteration #  8     ecut=    30.00 Ry     beta=0.70
     Davidson diagonalization with overlap
     ethr =  1.42E-10,  avg # of iterations =  2.0

     total cpu time spent up to now is       26.5 secs

     total energy              =    -329.49036259 Ry
     Harris-Foulkes estimate   =    -329.49036258 Ry
     estimated scf accuracy    <       0.00000002 Ry

     iteration #  9     ecut=    30.00 Ry     beta=0.70
     Davidson diagonalization with overlap
     ethr =  4.41E-11,  avg # of iterations =  2.0

     total cpu time spent up to now is       26.7 secs

     total energy              =    -329.49036256 Ry
     Harris-Foulkes estimate   =    -329.49036260 Ry
     estimated scf accuracy    <          1.4E-09 Ry

     iteration # 10     ecut=    30.00 Ry     beta=0.70
     Davidson diagonalization with overlap
     ethr =  2.52E-12,  avg # of iterations =  2.0

     total cpu time spent up to now is       26.9 secs

     total energy              =    -329.49036258 Ry
     Harris-Foulkes estimate   =    -329.49036256 Ry
     estimated scf accuracy    <          2.5E-10 Ry

     iteration # 11     ecut=    30.00 Ry     beta=0.70
     Davidson diagonalization with overlap
     ethr =  4.63E-13,  avg # of iterations =  2.0

     total cpu time spent up to now is       27.1 secs

     End of self-consistent calculation

          k = 0.0000 0.0000 0.0000 ( 22119 PWs)   bands (ev):

    -8.5162  -7.7805  -7.6641  -7.2328  -6.9393  -6.8343  -6.6259  -6.4761
    -6.3187  -6.0662  -5.9784  -5.7771  -5.7463  -5.6754  -5.4131  -5.3861
    -5.3265  -5.2203  -5.2090  -5.2014  -5.1602  -5.1293  -4.9808  -4.9011
    -4.8707  -4.7028  -4.4499  -3.7930  -2.4716  -2.1939  -0.5756  -0.2207
     0.4654   0.9061

     the Fermi energy is    -3.7669 ev

!    total energy              =    -329.49036257 Ry
     Harris-Foulkes estimate   =    -329.49036258 Ry
     estimated scf accuracy    <          2.4E-11 Ry

     The total energy is the sum of the following terms:

     one-electron contribution =    -610.58766935 Ry
     hartree contribution      =     326.72547689 Ry
     xc contribution           =     -51.41067724 Ry
     ewald contribution        =       5.78540562 Ry
     smearing contrib. (-TS)   =      -0.00289848 Ry

     convergence has been achieved in  11 iterations

     Forces acting on atoms (Ry/au):

     atom    1 type  1   force =    -0.00130600    0.00137773   -0.00021477
     atom    2 type  1   force =    -0.00226129   -0.00190430   -0.00492538
     atom    3 type  1   force =    -0.00756394   -0.00216672    0.00212107
     atom    4 type  1   force =     0.00205601    0.00090521    0.00144734
     atom    5 type  1   force =     0.00907522    0.00178808    0.00157174

     Total force =     0.014079     Total SCF correction =     0.000020

     number of scf cycles    =  11
     number of bfgs steps    =  10

     energy   old            =    -329.4901665301 Ry
     energy   new            =    -329.4903625697 Ry

     CASE: energy  _new < energy  _old

     new trust radius        =       0.0138829755 bohr
     new conv_thr            =       0.0000000002 Ry


ATOMIC_POSITIONS (bohr)
Au      -1.636629315   1.036334927  -0.902541248
Au      -0.778278290   2.572638482   3.947575306
Au       3.210063137   1.658899359   0.453188126
Au       3.982880146   3.293381605   5.733169565
Au       7.754800322   2.021239627   2.487861252



     Writing output data file pwscf.save
     Check: negative starting charge=   -0.006512
     NEW-OLD atomic charge density approx. for the potential
     Check: negative starting charge=   -0.006512

     negative rho (up, down):  3.446E-05 0.000E+00

     total cpu time spent up to now is       27.3 secs

     per-process dynamical memory:    50.7 Mb

     Self-consistent Calculation

     iteration #  1     ecut=    30.00 Ry     beta=0.70
     Davidson diagonalization with overlap
     ethr =  1.00E-06,  avg # of iterations =  4.0

     Threshold (ethr) on eigenvalues was too large:
     Diagonalizing with lowered threshold

     Davidson diagonalization with overlap
     ethr =  8.57E-08,  avg # of iterations =  1.0

     negative rho (up, down):  9.304E-08 0.000E+00

     total cpu time spent up to now is       27.9 secs

     total energy              =    -329.49053358 Ry
     Harris-Foulkes estimate   =    -329.49053820 Ry
     estimated scf accuracy    <       0.00004723 Ry

     iteration #  2     ecut=    30.00 Ry     beta=0.70
     Davidson diagonalization with overlap
     ethr =  8.59E-08,  avg # of iterations =  2.0

     total cpu time spent up to now is       28.1 secs

     total energy              =    -329.49054072 Ry
     Harris-Foulkes estimate   =    -329.49055839 Ry
     estimated scf accuracy    <       0.00003933 Ry

     iteration #  3     ecut=    30.00 Ry     beta=0.70
     Davidson diagonalization with overlap
     ethr =  7.15E-08,  avg # of iterations =  2.0

     total cpu time spent up to now is       28.3 secs

     total energy              =    -329.49054910 Ry
     Harris-Foulkes estimate   =    -329.49055241 Ry
     estimated scf accuracy    <       0.00000957 Ry

     iteration #  4     ecut=    30.00 Ry     beta=0.70
     Davidson diagonalization with overlap
     ethr =  1.74E-08,  avg # of iterations =  2.0

     total cpu time spent up to now is       28.5 secs

     total energy              =    -329.49055162 Ry
     Harris-Foulkes estimate   =    -329.49055244 Ry
     estimated scf accuracy    <       0.00000355 Ry

     iteration #  5     ecut=    30.00 Ry     beta=0.70
     Davidson diagonalization with overlap
     ethr =  6.45E-09,  avg # of iterations =  2.0

     total cpu time spent up to now is       28.7 secs

     total energy              =    -329.49055228 Ry
     Harris-Foulkes estimate   =    -329.49055230 Ry
     estimated scf accuracy    <       0.00000028 Ry

     iteration #  6     ecut=    30.00 Ry     beta=0.70
     Davidson diagonalization with overlap
     ethr =  5.08E-10,  avg # of iterations =  2.0

     total cpu time spent up to now is       28.9 secs

     total energy              =    -329.49055250 Ry
     Harris-Foulkes estimate   =    -329.49055236 Ry
     estimated scf accuracy    <       0.00000002 Ry

     iteration #  7     ecut=    30.00 Ry     beta=0.70
     Davidson diagonalization with overlap
     ethr =  3.21E-11,  avg # of iterations =  2.0

     total cpu time spent up to now is       29.1 secs

     total energy              =    -329.49055250 Ry
     Harris-Foulkes estimate   =    -329.49055251 Ry
     estimated scf accuracy    <       0.00000001 Ry

     iteration #  8     ecut=    30.00 Ry     beta=0.70
     Davidson diagonalization with overlap
     ethr =  2.39E-11,  avg # of iterations =  2.0

     total cpu time spent up to now is       29.3 secs

     total energy              =    -329.49055254 Ry
     Harris-Foulkes estimate   =    -329.49055250 Ry
     estimated scf accuracy    <          8.6E-10 Ry

     iteration #  9     ecut=    30.00 Ry     beta=0.70
     Davidson diagonalization with overlap
     ethr =  1.56E-12,  avg # of iterations =  2.0

     total cpu time spent up to now is       29.6 secs

     End of self-consistent calculation

          k = 0.0000 0.0000 0.0000 ( 22119 PWs)   bands (ev):

    -8.5104  -7.7815  -7.6645  -7.2396  -6.9336  -6.8277  -6.6282  -6.4794
    -6.3208  -6.0639  -5.9794  -5.7737  -5.7418  -5.6765  -5.4236  -5.3849
    -5.3259  -5.2231  -5.2087  -5.2020  -5.1613  -5.1286  -4.9887  -4.9030
    -4.8711  -4.7038  -4.4549  -3.7888  -2.4806  -2.1934  -0.5761  -0.2163
     0.4626   0.9056

     the Fermi energy is    -3.7613 ev

!    total energy              =    -329.49055254 Ry
     Harris-Foulkes estimate   =    -329.49055254 Ry
     estimated scf accuracy    <          1.1E-10 Ry

     The total energy is the sum of the following terms:

     one-electron contribution =    -610.43557273 Ry
     hartree contribution      =     326.64729391 Ry
     xc contribution           =     -51.40907333 Ry
     ewald contribution        =       5.71001526 Ry
     smearing contrib. (-TS)   =      -0.00321564 Ry

     convergence has been achieved in   9 iterations

     Forces acting on atoms (Ry/au):

     atom    1 type  1   force =     0.00042234    0.00114116   -0.00047102
     atom    2 type  1   force =    -0.00200870   -0.00148276   -0.00374657
     atom    3 type  1   force =    -0.00796379   -0.00208892    0.00158020
     atom    4 type  1   force =     0.00152328    0.00085428    0.00141749
     atom    5 type  1   force =     0.00802687    0.00157624    0.00121991

     Total force =     0.012873     Total SCF correction =     0.000050

     number of scf cycles    =  12
     number of bfgs steps    =  11

     energy   old            =    -329.4903625697 Ry
     energy   new            =    -329.4905525395 Ry

     CASE: energy  _new < energy  _old

     new trust radius        =       0.0152712730 bohr
     new conv_thr            =       0.0000000002 Ry


ATOMIC_POSITIONS (bohr)
Au      -1.648378302   1.039567002  -0.904675230
Au      -0.779733950   2.569113566   3.936812683
Au       3.206523277   1.652270179   0.464992345
Au       3.986073990   3.293467975   5.732569268
Au       7.768350985   2.028075278   2.489553934



     Writing output data file pwscf.save
     Check: negative starting charge=   -0.006512
     NEW-OLD atomic charge density approx. for the potential
     Check: negative starting charge=   -0.006511

     negative rho (up, down):  3.803E-05 0.000E+00

     total cpu time spent up to now is       29.9 secs

     per-process dynamical memory:    50.7 Mb

     Self-consistent Calculation

     iteration #  1     ecut=    30.00 Ry     beta=0.70
     Davidson diagonalization with overlap
     ethr =  1.00E-06,  avg # of iterations =  4.0

     Threshold (ethr) on eigenvalues was too large:
     Diagonalizing with lowered threshold

     Davidson diagonalization with overlap
     ethr =  8.64E-08,  avg # of iterations =  1.0

     negative rho (up, down):  1.217E-07 0.000E+00

     total cpu time spent up to now is       30.4 secs

     total energy              =    -329.49072949 Ry
     Harris-Foulkes estimate   =    -329.49073238 Ry
     estimated scf accuracy    <       0.00004771 Ry

     iteration #  2     ecut=    30.00 Ry     beta=0.70
     Davidson diagonalization with overlap
     ethr =  8.68E-08,  avg # of iterations =  2.0

     total cpu time spent up to now is       30.6 secs

     total energy              =    -329.49073156 Ry
     Harris-Foulkes estimate   =    -329.49075846 Ry
     estimated scf accuracy    <       0.00006126 Ry

     iteration #  3     ecut=    30.00 Ry     beta=0.70
     Davidson diagonalization with overlap
     ethr =  8.68E-08,  avg # of iterations =  2.0

     total cpu time spent up to now is       30.8 secs

     total energy              =    -329.49074531 Ry
     Harris-Foulkes estimate   =    -329.49075024 Ry
     estimated scf accuracy    <       0.00001649 Ry

     iteration #  4     ecut=    30.00 Ry     beta=0.70
     Davidson diagonalization with overlap
     ethr =  3.00E-08,  avg # of iterations =  2.0

     total cpu time spent up to now is       31.0 secs

     total energy              =    -329.49074907 Ry
     Harris-Foulkes estimate   =    -329.49074938 Ry
     estimated scf accuracy    <       0.00000221 Ry

     iteration #  5     ecut=    30.00 Ry     beta=0.70
     Davidson diagonalization with overlap
     ethr =  4.02E-09,  avg # of iterations =  2.0

     total cpu time spent up to now is       31.2 secs

     total energy              =    -329.49074969 Ry
     Harris-Foulkes estimate   =    -329.49074966 Ry
     estimated scf accuracy    <       0.00000043 Ry

     iteration #  6     ecut=    30.00 Ry     beta=0.70
     Davidson diagonalization with overlap
     ethr =  7.84E-10,  avg # of iterations =  2.0

     total cpu time spent up to now is       31.4 secs

     total energy              =    -329.49074971 Ry
     Harris-Foulkes estimate   =    -329.49074979 Ry
     estimated scf accuracy    <       0.00000003 Ry

     iteration #  7     ecut=    30.00 Ry     beta=0.70
     Davidson diagonalization with overlap
     ethr =  4.72E-11,  avg # of iterations =  2.0

     total cpu time spent up to now is       31.6 secs

     total energy              =    -329.49074978 Ry
     Harris-Foulkes estimate   =    -329.49074972 Ry
     estimated scf accuracy    <          9.7E-09 Ry

     iteration #  8     ecut=    30.00 Ry     beta=0.70
     Davidson diagonalization with overlap
     ethr =  1.76E-11,  avg # of iterations =  2.0

     total cpu time spent up to now is       31.8 secs

     total energy              =    -329.49074976 Ry
     Harris-Foulkes estimate   =    -329.49074978 Ry
     estimated scf accuracy    <          2.0E-09 Ry

     iteration #  9     ecut=    30.00 Ry     beta=0.70
     Davidson diagonalization with overlap
     ethr =  3.67E-12,  avg # of iterations =  2.0

     total cpu time spent up to now is       32.1 secs

[...]

     per-process dynamical memory:    50.7 Mb

     Self-consistent Calculation

     iteration #  1     ecut=    30.00 Ry     beta=0.70
     Davidson diagonalization with overlap
     ethr =  1.00E-06,  avg # of iterations =  4.0

     negative rho (up, down):  3.603E-07 0.000E+00

     total cpu time spent up to now is       45.4 secs

     total energy              =    -329.49109360 Ry
     Harris-Foulkes estimate   =    -329.49112915 Ry
     estimated scf accuracy    <       0.00010640 Ry

     iteration #  2     ecut=    30.00 Ry     beta=0.70
     Davidson diagonalization with overlap
     ethr =  1.93E-07,  avg # of iterations =  2.0

     negative rho (up, down):  1.088E-08 0.000E+00

     total cpu time spent up to now is       45.6 secs

     total energy              =    -329.49111577 Ry
     Harris-Foulkes estimate   =    -329.49115192 Ry
     estimated scf accuracy    <       0.00007649 Ry

     iteration #  3     ecut=    30.00 Ry     beta=0.70
     Davidson diagonalization with overlap
     ethr =  1.39E-07,  avg # of iterations =  2.0

     total cpu time spent up to now is       45.8 secs

     total energy              =    -329.49113039 Ry
     Harris-Foulkes estimate   =    -329.49113471 Ry
     estimated scf accuracy    <       0.00000854 Ry

     iteration #  4     ecut=    30.00 Ry     beta=0.70
     Davidson diagonalization with overlap
     ethr =  1.55E-08,  avg # of iterations =  2.0

     total cpu time spent up to now is       46.0 secs

     total energy              =    -329.49113215 Ry
     Harris-Foulkes estimate   =    -329.49113530 Ry
     estimated scf accuracy    <       0.00000902 Ry

     iteration #  5     ecut=    30.00 Ry     beta=0.70
     Davidson diagonalization with overlap
     ethr =  1.55E-08,  avg # of iterations =  2.0

     total cpu time spent up to now is       46.2 secs

     total energy              =    -329.49113335 Ry
     Harris-Foulkes estimate   =    -329.49113357 Ry
     estimated scf accuracy    <       0.00000012 Ry

     iteration #  6     ecut=    30.00 Ry     beta=0.70
     Davidson diagonalization with overlap
     ethr =  2.22E-10,  avg # of iterations =  3.0

     total cpu time spent up to now is       46.5 secs

     total energy              =    -329.49113350 Ry
     Harris-Foulkes estimate   =    -329.49113344 Ry
     estimated scf accuracy    <       0.00000007 Ry

     iteration #  7     ecut=    30.00 Ry     beta=0.70
     Davidson diagonalization with overlap
     ethr =  1.24E-10,  avg # of iterations =  2.0

     total cpu time spent up to now is       46.7 secs

     total energy              =    -329.49113345 Ry
     Harris-Foulkes estimate   =    -329.49113352 Ry
     estimated scf accuracy    <          7.9E-09 Ry

     iteration #  8     ecut=    30.00 Ry     beta=0.70
     Davidson diagonalization with overlap
     ethr =  1.44E-11,  avg # of iterations =  3.0

     total cpu time spent up to now is       46.9 secs

     total energy              =    -329.49113344 Ry
     Harris-Foulkes estimate   =    -329.49113346 Ry
     estimated scf accuracy    <          2.7E-09 Ry

     iteration #  9     ecut=    30.00 Ry     beta=0.70
     Davidson diagonalization with overlap
     ethr =  4.96E-12,  avg # of iterations =  2.0

     total cpu time spent up to now is       47.1 secs

     total energy              =    -329.49113344 Ry
     Harris-Foulkes estimate   =    -329.49113344 Ry
     estimated scf accuracy    <          2.6E-10 Ry

     iteration # 10     ecut=    30.00 Ry     beta=0.70
     Davidson diagonalization with overlap
     ethr =  4.71E-13,  avg # of iterations =  2.0

     total cpu time spent up to now is       47.3 secs

     End of self-consistent calculation

          k = 0.0000 0.0000 0.0000 ( 22119 PWs)   bands (ev):

    -8.5123  -7.7843  -7.6640  -7.2444  -6.8926  -6.8155  -6.6080  -6.4910
    -6.3143  -6.0735  -5.9642  -5.7726  -5.7342  -5.6874  -5.4577  -5.3718
    -5.3213  -5.2412  -5.2053  -5.1967  -5.1703  -5.1264  -5.0064  -4.9226
    -4.8714  -4.7057  -4.4835  -3.7762  -2.4946  -2.2124  -0.5768  -0.1985
     0.4522   0.9120

     the Fermi energy is    -3.7431 ev

!    total energy              =    -329.49113344 Ry
     Harris-Foulkes estimate   =    -329.49113344 Ry
     estimated scf accuracy    <          3.6E-11 Ry

     The total energy is the sum of the following terms:

     one-electron contribution =    -609.58966647 Ry
     hartree contribution      =     326.21763224 Ry
     xc contribution           =     -51.40191022 Ry
     ewald contribution        =       5.28725597 Ry
     smearing contrib. (-TS)   =      -0.00444497 Ry

     convergence has been achieved in  10 iterations

     Forces acting on atoms (Ry/au):

     atom    1 type  1   force =    -0.00053950    0.00003416   -0.00080172
     atom    2 type  1   force =    -0.00011208   -0.00013485   -0.00024018
     atom    3 type  1   force =     0.00190852    0.00012421    0.00131825
     atom    4 type  1   force =     0.00004329   -0.00006369    0.00010260
     atom    5 type  1   force =    -0.00130023    0.00004018   -0.00037896

     Total force =     0.002876     Total SCF correction =     0.000021

     number of scf cycles    =  19
     number of bfgs steps    =  18

     energy   old            =    -329.4910973870 Ry
     energy   new            =    -329.4911334436 Ry

     CASE: energy  _new < energy  _old

     new trust radius        =       0.0180919447 bohr
     new conv_thr            =            1.0E-10 Ry


ATOMIC_POSITIONS (bohr)
Au      -1.638609688   1.068928706  -0.951363148
Au      -0.798756761   2.571709371   3.928797011
Au       3.173887040   1.567546497   0.529308917
Au       3.996220104   3.292429016   5.730845462
Au       7.800095304   2.081880410   2.481664758



     Writing output data file pwscf.save
     Check: negative starting charge=   -0.006510
     NEW-OLD atomic charge density approx. for the potential
     Check: negative starting charge=   -0.006508

     negative rho (up, down):  2.897E-05 0.000E+00

     total cpu time spent up to now is       47.6 secs

     per-process dynamical memory:    50.7 Mb

     Self-consistent Calculation

     iteration #  1     ecut=    30.00 Ry     beta=0.70
     Davidson diagonalization with overlap
     ethr =  1.00E-06,  avg # of iterations =  4.0

     negative rho (up, down):  3.882E-08 0.000E+00

     total cpu time spent up to now is       48.0 secs

     total energy              =    -329.49112543 Ry
     Harris-Foulkes estimate   =    -329.49115165 Ry
     estimated scf accuracy    <       0.00006261 Ry

     iteration #  2     ecut=    30.00 Ry     beta=0.70
     Davidson diagonalization with overlap
     ethr =  1.14E-07,  avg # of iterations =  2.0

     total cpu time spent up to now is       48.2 secs

     total energy              =    -329.49113733 Ry
     Harris-Foulkes estimate   =    -329.49116151 Ry
     estimated scf accuracy    <       0.00005012 Ry

     iteration #  3     ecut=    30.00 Ry     beta=0.70
     Davidson diagonalization with overlap
     ethr =  9.11E-08,  avg # of iterations =  2.0

     total cpu time spent up to now is       48.4 secs

     total energy              =    -329.49114673 Ry
     Harris-Foulkes estimate   =    -329.49115019 Ry
     estimated scf accuracy    <       0.00000735 Ry

     iteration #  4     ecut=    30.00 Ry     beta=0.70
     Davidson diagonalization with overlap
     ethr =  1.34E-08,  avg # of iterations =  2.0

     total cpu time spent up to now is       48.6 secs

     total energy              =    -329.49114839 Ry
     Harris-Foulkes estimate   =    -329.49114990 Ry
     estimated scf accuracy    <       0.00000405 Ry

     iteration #  5     ecut=    30.00 Ry     beta=0.70
     Davidson diagonalization with overlap
     ethr =  7.36E-09,  avg # of iterations =  2.0

     total cpu time spent up to now is       48.8 secs

     total energy              =    -329.49114890 Ry
     Harris-Foulkes estimate   =    -329.49114903 Ry
     estimated scf accuracy    <       0.00000007 Ry

     iteration #  6     ecut=    30.00 Ry     beta=0.70
     Davidson diagonalization with overlap
     ethr =  1.32E-10,  avg # of iterations =  3.0

     total cpu time spent up to now is       49.0 secs

     total energy              =    -329.49114910 Ry
     Harris-Foulkes estimate   =    -329.49114895 Ry
     estimated scf accuracy    <       0.00000003 Ry

     iteration #  7     ecut=    30.00 Ry     beta=0.70
     Davidson diagonalization with overlap
     ethr =  5.21E-11,  avg # of iterations =  2.0

     total cpu time spent up to now is       49.2 secs

     total energy              =    -329.49114905 Ry
     Harris-Foulkes estimate   =    -329.49114911 Ry
     estimated scf accuracy    <          5.1E-09 Ry

     iteration #  8     ecut=    30.00 Ry     beta=0.70
     Davidson diagonalization with overlap
     ethr =  9.34E-12,  avg # of iterations =  2.0

     total cpu time spent up to now is       49.5 secs

     total energy              =    -329.49114910 Ry
     Harris-Foulkes estimate   =    -329.49114905 Ry
     estimated scf accuracy    <          7.9E-10 Ry

     iteration #  9     ecut=    30.00 Ry     beta=0.70
     Davidson diagonalization with overlap
     ethr =  1.44E-12,  avg # of iterations =  2.0

     total cpu time spent up to now is       49.7 secs

     total energy              =    -329.49114909 Ry
     Harris-Foulkes estimate   =    -329.49114910 Ry
     estimated scf accuracy    <          1.4E-10 Ry

     iteration # 10     ecut=    30.00 Ry     beta=0.70
     Davidson diagonalization with overlap
     ethr =  2.63E-13,  avg # of iterations =  2.0

     total cpu time spent up to now is       49.9 secs

     End of self-consistent calculation

          k = 0.0000 0.0000 0.0000 ( 22119 PWs)   bands (ev):

    -8.5148  -7.7857  -7.6651  -7.2432  -6.8900  -6.8165  -6.6066  -6.4924
    -6.3133  -6.0758  -5.9632  -5.7720  -5.7338  -5.6889  -5.4587  -5.3702
    -5.3213  -5.2422  -5.2055  -5.1973  -5.1692  -5.1262  -5.0057  -4.9240
    -4.8697  -4.7071  -4.4847  -3.7762  -2.4925  -2.2146  -0.5768  -0.1979
     0.4520   0.9145

     the Fermi energy is    -3.7430 ev

!    total energy              =    -329.49114910 Ry
     Harris-Foulkes estimate   =    -329.49114909 Ry
     estimated scf accuracy    <          2.0E-11 Ry

     The total energy is the sum of the following terms:

     one-electron contribution =    -609.58778531 Ry
     hartree contribution      =     326.21629011 Ry
     xc contribution           =     -51.40179791 Ry
     ewald contribution        =       5.28662480 Ry
     smearing contrib. (-TS)   =      -0.00448080 Ry

     convergence has been achieved in  10 iterations

     Forces acting on atoms (Ry/au):

     atom    1 type  1   force =    -0.00018652    0.00003347   -0.00023483
     atom    2 type  1   force =    -0.00007337   -0.00026421   -0.00063770
     atom    3 type  1   force =     0.00100793    0.00001921    0.00055159
     atom    4 type  1   force =    -0.00024158    0.00003503    0.00040549
     atom    5 type  1   force =    -0.00050646    0.00017649   -0.00008454

     Total force =     0.001553     Total SCF correction =     0.000016

     number of scf cycles    =  20
     number of bfgs steps    =  19

     energy   old            =    -329.4911334436 Ry
     energy   new            =    -329.4911490988 Ry

     CASE: energy  _new < energy  _old

     new trust radius        =       0.0193742671 bohr
     new conv_thr            =            1.0E-10 Ry


ATOMIC_POSITIONS (bohr)
Au      -1.638363533   1.075292991  -0.956669065
Au      -0.800906208   2.572655522   3.927953787
Au       3.176946472   1.550497881   0.537989170
Au       3.995035301   3.291234672   5.730082629
Au       7.800123968   2.092812934   2.479896479



     Writing output data file pwscf.save
     Check: negative starting charge=   -0.006508
     NEW-OLD atomic charge density approx. for the potential
     Check: negative starting charge=   -0.006506

     negative rho (up, down):  3.691E-05 0.000E+00

     total cpu time spent up to now is       50.2 secs

     per-process dynamical memory:    50.7 Mb

     Self-consistent Calculation

     iteration #  1     ecut=    30.00 Ry     beta=0.70
     Davidson diagonalization with overlap
     ethr =  1.00E-06,  avg # of iterations =  4.0

     negative rho (up, down):  6.448E-08 0.000E+00

     total cpu time spent up to now is       50.5 secs

     total energy              =    -329.49113111 Ry
     Harris-Foulkes estimate   =    -329.49116212 Ry
     estimated scf accuracy    <       0.00007209 Ry

     iteration #  2     ecut=    30.00 Ry     beta=0.70
     Davidson diagonalization with overlap
     ethr =  1.31E-07,  avg # of iterations =  2.0

     total cpu time spent up to now is       50.7 secs

     total energy              =    -329.49114581 Ry
     Harris-Foulkes estimate   =    -329.49117184 Ry
     estimated scf accuracy    <       0.00005280 Ry

     iteration #  3     ecut=    30.00 Ry     beta=0.70
     Davidson diagonalization with overlap
     ethr =  9.60E-08,  avg # of iterations =  2.0

     total cpu time spent up to now is       50.9 secs

     total energy              =    -329.49115619 Ry
     Harris-Foulkes estimate   =    -329.49115808 Ry
     estimated scf accuracy    <       0.00000396 Ry

     iteration #  4     ecut=    30.00 Ry     beta=0.70
     Davidson diagonalization with overlap
     ethr =  7.20E-09,  avg # of iterations =  2.0

     total cpu time spent up to now is       51.1 secs

     total energy              =    -329.49115668 Ry
     Harris-Foulkes estimate   =    -329.49115903 Ry
     estimated scf accuracy    <       0.00000631 Ry

     iteration #  5     ecut=    30.00 Ry     beta=0.70
     Davidson diagonalization with overlap
     ethr =  7.20E-09,  avg # of iterations =  2.0

     total cpu time spent up to now is       51.3 secs

     total energy              =    -329.49115767 Ry
     Harris-Foulkes estimate   =    -329.49115768 Ry
     estimated scf accuracy    <       0.00000005 Ry

     iteration #  6     ecut=    30.00 Ry     beta=0.70
     Davidson diagonalization with overlap
     ethr =  9.26E-11,  avg # of iterations =  3.0

     total cpu time spent up to now is       51.6 secs

     total energy              =    -329.49115771 Ry
     Harris-Foulkes estimate   =    -329.49115771 Ry
     estimated scf accuracy    <       0.00000003 Ry

     iteration #  7     ecut=    30.00 Ry     beta=0.70
     Davidson diagonalization with overlap
     ethr =  6.26E-11,  avg # of iterations =  2.0

     total cpu time spent up to now is       51.8 secs

     total energy              =    -329.49115779 Ry
     Harris-Foulkes estimate   =    -329.49115772 Ry
     estimated scf accuracy    <          4.5E-09 Ry

     iteration #  8     ecut=    30.00 Ry     beta=0.70
     Davidson diagonalization with overlap
     ethr =  8.21E-12,  avg # of iterations =  3.0

     total cpu time spent up to now is       52.0 secs

     total energy              =    -329.49115776 Ry
     Harris-Foulkes estimate   =    -329.49115779 Ry
     estimated scf accuracy    <          1.1E-09 Ry

     iteration #  9     ecut=    30.00 Ry     beta=0.70
     Davidson diagonalization with overlap
     ethr =  2.05E-12,  avg # of iterations =  2.0

     total cpu time spent up to now is       52.2 secs

     total energy              =    -329.49115776 Ry
     Harris-Foulkes estimate   =    -329.49115776 Ry
     estimated scf accuracy    <          2.4E-10 Ry

     iteration # 10     ecut=    30.00 Ry     beta=0.70
     Davidson diagonalization with overlap
     ethr =  4.34E-13,  avg # of iterations =  2.0

     total cpu time spent up to now is       52.4 secs

     End of self-consistent calculation

          k = 0.0000 0.0000 0.0000 ( 22119 PWs)   bands (ev):

    -8.5151  -7.7864  -7.6657  -7.2434  -6.8881  -6.8163  -6.6068  -6.4932
    -6.3133  -6.0764  -5.9630  -5.7711  -5.7329  -5.6897  -5.4597  -5.3694
    -5.3214  -5.2428  -5.2056  -5.1979  -5.1683  -5.1261  -5.0059  -4.9243
    -4.8683  -4.7086  -4.4851  -3.7761  -2.4922  -2.2152  -0.5768  -0.1974
     0.4519   0.9169

     the Fermi energy is    -3.7428 ev

!    total energy              =    -329.49115776 Ry
     Harris-Foulkes estimate   =    -329.49115776 Ry
     estimated scf accuracy    <          1.8E-11 Ry

     The total energy is the sum of the following terms:

     one-electron contribution =    -609.58257328 Ry
     hartree contribution      =     326.21351604 Ry
     xc contribution           =     -51.40171126 Ry
     ewald contribution        =       5.28410996 Ry
     smearing contrib. (-TS)   =      -0.00449921 Ry

     convergence has been achieved in  10 iterations

     Forces acting on atoms (Ry/au):

     atom    1 type  1   force =     0.00034399   -0.00007298    0.00011935
     atom    2 type  1   force =    -0.00004826   -0.00025899   -0.00079887
     atom    3 type  1   force =     0.00005158   -0.00023613   -0.00011941
     atom    4 type  1   force =    -0.00042889    0.00016664    0.00064470
     atom    5 type  1   force =     0.00008158    0.00040146    0.00015423

     Total force =     0.001318     Total SCF correction =     0.000015

     bfgs converged in  21 scf cycles and  20 bfgs steps
     (criteria: energy <  1.0E-04, force <  1.0E-03)

     End of BFGS Geometry Optimization

     Final energy   =    -329.4911577554 Ry
Begin final coordinates

ATOMIC_POSITIONS (bohr)
Au      -1.638363533   1.075292991  -0.956669065
Au      -0.800906208   2.572655522   3.927953787
Au       3.176946472   1.550497881   0.537989170
Au       3.995035301   3.291234672   5.730082629
Au       7.800123968   2.092812934   2.479896479
End final coordinates



     Writing output data file pwscf.save
 
     init_run     :      0.16s CPU      0.18s WALL (       1 calls)
     electrons    :     45.17s CPU     48.51s WALL (      21 calls)
     update_pot   :      1.30s CPU      1.65s WALL (      20 calls)
     forces       :      0.87s CPU      0.88s WALL (      21 calls)

     Called by init_run:
     wfcinit      :      0.07s CPU      0.08s WALL (       1 calls)
     potinit      :      0.03s CPU      0.03s WALL (       1 calls)

     Called by electrons:
     c_bands      :     34.41s CPU     34.89s WALL (     210 calls)
     sum_band     :      4.96s CPU      5.07s WALL (     210 calls)
     v_of_rho     :      3.90s CPU      3.96s WALL (     222 calls)
     mix_rho      :      1.53s CPU      3.20s WALL (     210 calls)

     Called by c_bands:
     init_us_2    :      0.64s CPU      0.67s WALL (     421 calls)
     cegterg      :     30.59s CPU     30.92s WALL (     210 calls)

     Called by sum_band:

     Called by *egterg:
     h_psi        :     24.08s CPU     24.32s WALL (     716 calls)
     g_psi        :      0.24s CPU      0.24s WALL (     505 calls)
     cdiaghg      :      1.57s CPU      1.58s WALL (     686 calls)

     Called by h_psi:
     h_psi:pot    :     23.73s CPU     23.97s WALL (     716 calls)
     h_psi:calbec :      1.30s CPU      1.38s WALL (     716 calls)
     vloc_psi     :     20.96s CPU     21.11s WALL (     716 calls)
     add_vuspsi   :      1.46s CPU      1.47s WALL (     716 calls)

     General routines
     calbec       :      1.55s CPU      1.63s WALL (     800 calls)
     fft          :      2.16s CPU      2.22s WALL (    2501 calls)
     fftw         :     22.06s CPU     22.40s WALL (   46336 calls)
     davcio       :      0.26s CPU      1.66s WALL (    2074 calls)
 
     Parallel routines
     fft_scatter  :      5.70s CPU      5.51s WALL (   48837 calls)
 
     PWSCF        :    48.06s CPU        52.59s WALL

 
   This run was terminated on:  18:31:44   3Aug2017            

=------------------------------------------------------------------------------=
   JOB DONE.
=------------------------------------------------------------------------------=
